<?xml version="1.0"?>
<VTKFile type="UnstructuredGrid"  version="0.1"  >
<UnstructuredGrid>
<Piece  NumberOfPoints="366" NumberOfCells="673">
<Points>
<DataArray  type="Float64"  NumberOfComponents="3"  format="ascii">-1 1 0  -0.75 1 0  -1 0.75 0  -0.5 1 0  -0.75 0.75 0  -1 0.5 0  -0.25 1 0  -0.5 0.75 0  -0.75 0.5 0  -1 0.25 0  1 1 0  1 1.110223024625157e-16 0  1 0.2500000000000001 0  1 0.5 0  1 0.75 0  0.75 1 0  0.5 1 0  0.25 1 0  0 1 0  -0.25 0.75 0  -0.5 0.5 0  -0.75 0.25 0  -1 0 0  0.75 0.75 0  0.75 0 0  0.75 0.25 0  0.75 0.5 0  0.5 0.75 0  0.25 0.75 0  0 0.75 0  -0.25 0.5 0  -0.5 0.25 0  -0.75 0 0  -1 -0.2500000000000001 0  0.5 0.5 0  0.5 0 0  0.5 0.25 0  0.25 0.5 0  0 0.5 0  -0.25 0.25 0  -0.5 0 0  -0.75 -0.2500000000000001 0  -1 -0.5 0  0.25 0.25 0  0.25 0 0  0 0.25 0  -1 -0.75 0  -0.25 0 0  -0.5 -0.25 0  -0.75 -0.5 0  -0.9999999999999999 -1 0  0 0 0  -0.75 -0.75 0  -0.25 -0.25 0  -0.5 -0.5 0  -0.7499999999999999 -1 0  0 -0.25 0  -0.5 -0.75 0  -0.25 -0.5 0  -0.4999999999999999 -0.9999999999999999 0  0 -0.5 0  -0.25 -0.75 0  -0.2499999999999999 -0.9999999999999999 0  0 -0.75 0  0 -0.9999999999999999 0  0.375 0.375 0  0.375 0.25 0  0.375 0.125 0  0.25 0.375 0  0.125 0.375 0  -0.125 0.375 0  -0.375 0.125 0  -0.125 0.25 0  -0.25 0.125 0  0.25 0.125 0  0.125 0.25 0  0.125 0.125 0  0.125 0 0  -0.125 0.125 0  0 0.125 0  -0.375 -0.125 0  -0.125 0 0  -0.25 -0.125 0  -0.375 -0.25 0  -0.125 -0.125 0  0 -0.125 0  -0.375 -0.375 0  -0.125 -0.25 0  -0.125 -0.375 0  0.1875 0.0625 0  0.0625 0.1875 0  -0.0625 0.1875 0  -0.1875 0.0625 0  -0.1875 0 0  -0.1875 -0.0625 0  0.0625 0.0625 0  0.0625 0 0  -0.0625 0.0625 0  0 0.0625 0  -0.0625 0 0  -0.0625 -0.0625 0  0 -0.0625 0  -0.625 -0.625 0  -0.5 -0.625 0  -0.375 -0.5 0  -0.0625 -0.1875 0  -0.375 -0.625 0  -0.375 -0.75 0  -0.125 -0.5 0  -0.25 -0.625 0  -0.3749999999999999 -0.875 0  -0.3749999999999999 -0.9999999999999999 0  -0.125 -0.625 0  0 -0.625 0  -0.2499999999999999 -0.875 0  -0.125 -0.75 0  -0.1249999999999999 -0.875 0  -0.1249999999999999 -0.9999999999999999 0  0 -0.875 0  0.125 0.0625 0  0.0625 0.125 0  -0.0625 0.125 0  -0.125 0.0625 0  -0.125 -0.0625 0  -0.0625 -0.125 0  -0.375 0.875 0  -0.625 0.625 0  -0.375 0.75 0  -0.5 0.625 0  -0.875 0.375 0  -0.625 0.5 0  -0.75 0.375 0  -0.125 0.875 0  -0.375 0.625 0  -0.125 0.75 0  -0.25 0.625 0  -0.625 0.375 0  -0.375 0.5 0  -0.5 0.375 0  -0.875 0.125 0  -0.625 0.25 0  -0.75 0.125 0  0.625 0.125 0  0.625 0.25 0  0.625 0.375 0  0.125 0.625 0  -0.125 0.625 0  0 0.625 0  -0.375 0.375 0  -0.125 0.5 0  -0.25 0.375 0  -0.625 0.125 0  -0.375 0.25 0  -0.5 0.125 0  -0.625 0 0  0.5 0.125 0  -0.625 -0.125 0  0.03125 0.03125 0  0.03125 0 0  -0.03125 0.03125 0  0 0.03125 0  -0.03125 0 0  -0.03125 -0.03125 0  0 -0.03125 0  0.09375 0.03125 0  0.03125 0.09375 0  -0.03125 0.09375 0  0 0.09375 0  -0.09375 0.03125 0  -0.09375 0 0  -0.09375 -0.03125 0  -0.03125 -0.09375 0  0.0625 0.03125 0  0.03125 0.0625 0  -0.03125 0.0625 0  -0.0625 0.03125 0  -0.0625 -0.03125 0  -0.03125 -0.0625 0  -0.875 0.875 0  -0.625 1 0  -0.75 0.875 0  -0.875 0.75 0  -0.625 0.875 0  -0.875 0.625 0  0.875 0.875 0  1 0.1250000000000001 0  0.875 5.551115123125783e-17 0  1 0.3750000000000001 0  0.875 0.1250000000000001 0  0.875 0.2500000000000001 0  1 0.625 0  0.875 0.375 0  0.875 0.5 0  0.875 0.75 0  0.875 0.625 0  0.75 0.875 0  0.625 0.875 0  0.5 0.875 0  0.375 0.875 0  0.25 0.875 0  0.125 0.875 0  0.75 0.625 0  0.625 0.75 0  0.625 0.625 0  0.75 0.125 0  0.75 0.375 0  0.375 0.75 0  0.5 0.625 0  0.375 0.625 0  0.125 0.75 0  0.25 0.625 0  -0.875 -0.125 0  -0.75 -0.125 0  -0.875 -0.2500000000000001 0  0.5 0.375 0  0.375 0.5 0  0.4375 0.4375 0  0.125 0.5 0  0.3125 0.4375 0  0 0.375 0  0.0625 0.4375 0  -0.0625 0.4375 0  -0.375 0 0  -0.5 -0.125 0  -0.4375 0.0625 0  -0.4375 -0.0625 0  -0.875 -0.375 0  -0.625 -0.25 0  -0.75 -0.375 0  -0.875 -0.5 0  0.0625 0.3125 0  -0.0625 0.3125 0  -0.875 -0.625 0  -0.3125 0.0625 0  -0.3125 -0.0625 0  -0.625 -0.375 0  -0.5 -0.375 0  -0.625 -0.5 0  0.015625 0.015625 0  0.015625 0 0  -0.015625 0.015625 0  0 0.015625 0  -0.015625 0 0  -0.015625 -0.015625 0  0 -0.015625 0  0.046875 0.015625 0  0.015625 0.046875 0  -0.015625 0.046875 0  0 0.046875 0  -0.046875 0.015625 0  -0.046875 0 0  -0.046875 -0.015625 0  -0.015625 -0.046875 0  0.03125 0.015625 0  0.015625 0.03125 0  -0.015625 0.03125 0  -0.03125 0.015625 0  -0.03125 -0.015625 0  -0.015625 -0.03125 0  0.625 0 0  0.6875 0.0625 0  0.625 0.5 0  0.6875 0.4375 0  -0.1875 0.4375 0  -0.4375 0.1875 0  0.5625 0.4375 0  0.375 0 0  0.4375 0.0625 0  0.5625 0.0625 0  0.5 0.0625 0  0.4375 0.1875 0  0.5625 0.1875 0  -0.1875 0.3125 0  -0.3125 0.1875 0  -0.1875 0.25 0  -0.25 0.1875 0  -0.1875 0.1875 0  -0.3125 0.3125 0  -0.25 0.3125 0  -0.3125 0.25 0  0.3125 0.3125 0  0.3125 0.25 0  0.3125 0.1875 0  0.1875 0.3125 0  0.25 0.1875 0  0.1875 0.25 0  0.1875 0.1875 0  0.3125 0.0625 0  0.25 0.0625 0  -1 -0.875 0  -0.875 -0.75 0  -0.4375 -0.3125 0  -0.75 -0.625 0  -0.875 -0.875 0  -0.8749999999999999 -1 0  0.0078125 0.0078125 0  0.0078125 0 0  -0.0078125 0.0078125 0  0 0.0078125 0  -0.0078125 0 0  -0.0078125 -0.0078125 0  0 -0.0078125 0  -0.75 -0.875 0  -0.625 -0.75 0  -0.6875 -0.6875 0  -0.25 -0.375 0  -0.3125 -0.1875 0  -0.25 -0.1875 0  -0.3125 -0.25 0  -0.1875 -0.1875 0  -0.3125 -0.3125 0  -0.1875 -0.25 0  -0.1875 -0.3125 0  -0.625 -0.875 0  -0.6249999999999999 -1 0  0 -0.375 0  -0.0625 -0.25 0  -0.0625 -0.3125 0  -0.4999999999999999 -0.875 0  -0.5625 -0.6875 0  -0.4375 -0.8125 0  -0.3125 -0.4375 0  -0.1875 -0.4375 0  -0.1875 -0.5 0  -0.1875 -0.5625 0  -0.4374999999999999 -0.9375 0  -0.0625 -0.4375 0  -0.0625 -0.5 0  -0.0625 -0.5625 0  0.375 0.1875 0  0.3125 0.125 0  0.4375 0.125 0  0.125 0.3125 0  -0.125 0.3125 0  -0.1875 0.375 0  -0.3125 0.125 0  -0.375 0.1875 0  -0.125 0.1875 0  -0.1875 0.125 0  0.1875 0.125 0  0.21875 0.09375 0  0.125 0.1875 0  0.15625 0.09375 0  -0.3125 -0.125 0  -0.1875 -0.125 0  -0.375 -0.3125 0  -0.125 -0.1875 0  -0.09375 -0.15625 0  -0.125 -0.3125 0  -0.09375 -0.21875 0  -0.125 -0.4375 0  0.5625 0.125 0  0.0234375 0.0078125 0  0.0078125 0.0234375 0  -0.0078125 0.0234375 0  0 0.0234375 0  -0.0234375 0.0078125 0  -0.0234375 0 0  -0.0234375 -0.0078125 0  -0.0078125 -0.0234375 0  0.015625 0.0078125 0  0.0078125 0.015625 0  -0.0078125 0.015625 0  -0.015625 0.0078125 0  -0.015625 -0.0078125 0  -0.0078125 -0.015625 0  </DataArray>
</Points>
<Cells>
<DataArray  type="UInt32"  Name="connectivity"  format="ascii">0 2 178  0 1 178  2 5 183  2 181 183  4 181 183  1 180 182  4 180 182  1 179 182  3 179 182  4 178 181  2 178 181  4 178 180  1 178 180  9 22 139  9 21 139  8 131 136  21 131 136  8 130 136  20 130 136  5 9 129  5 8 129  9 21 129  21 129 131  8 129 131  6 19 132  6 18 132  3 7 125  3 6 125  7 128 133  20 128 133  7 127 133  19 127 133  19 125 127  7 125 127  6 19 125  5 8 183  4 8 183  20 126 130  8 126 130  20 126 128  7 126 128  4 7 182  3 7 182  4 8 126  4 7 126  97 122 168  81 122 168  78 97 122  99 168 175  97 168 175  99 168 169  81 168 169  159 175 249  99 175 249  97 159 175  161 249 256  159 249 256  161 249 250  99 249 250  240 256 356  161 256 356  159 240 256  242 356 363  240 356 363  242 356 357  161 356 357  242 297 363  240 297 363  242 297 299  51 297 299  81 92 122  78 92 122  81 92 93  47 92 93  97 121 166  79 121 166  78 97 121  98 166 174  97 166 174  98 166 167  79 166 167  159 174 247  98 174 247  97 159 174  160 247 255  159 247 255  160 247 248  98 247 248  240 255 354  160 255 354  159 240 255  241 354 362  240 354 362  241 354 355  160 354 355  241 297 362  240 297 362  241 297 298  51 297 298  79 91 121  78 91 121  45 79 91  72 231 333  70 231 333  45 72 231  72 272 333  70 272 333  72 272 274  39 272 274  70 221 231  38 219 221  45 219 231  219 221 231  71 224 233  40 222 224  47 222 233  222 224 233  73 233 335  71 233 335  47 73 233  73 273 335  71 273 335  73 273 275  39 273 275  73 275 276  39 275 276  73 276 338  78 276 338  47 73 92  78 92 338  73 92 338  72 274 276  39 274 276  72 276 337  78 276 337  45 72 91  78 91 337  72 91 337  29 132 134  19 132 134  18 29 132  30 133 137  20 133 137  30 133 135  19 133 135  38 146 149  30 146 149  38 146 147  29 146 147  19 135 146  30 135 146  19 134 146  29 134 146  22 32 139  32 139 141  21 139 141  40 151 154  32 151 154  40 151 153  31 151 153  31 136 140  21 136 140  31 136 138  20 136 138  21 141 151  32 141 151  21 140 151  31 140 151  150 272 334  70 272 334  150 272 278  39 272 278  150 263 334  70 263 334  30 150 263  70 149 221  38 149 221  70 149 263  30 149 263  20 138 148  31 138 148  20 137 148  30 137 148  71 153 224  40 153 224  71 153 264  31 153 264  152 273 336  71 273 336  152 273 279  39 273 279  152 264 336  71 264 336  31 152 264  148 152 277  152 277 279  39 277 279  31 148 152  148 150 277  150 277 278  39 277 278  30 148 150  22 33 211  22 32 211  33 42 226  33 213 226  41 213 226  41 156 212  32 156 212  32 154 156  40 154 156  41 211 213  33 211 213  41 211 212  32 211 212  46 289 290  50 289 293  52 290 293  289 290 293  54 102 237  49 102 237  102 292 304  52 292 304  49 102 292  42 229 232  49 229 232  42 46 232  52 232 292  49 232 292  52 232 290  46 232 290  47 82 94  84 94 344  82 94 344  82 307 309  53 307 309  82 309 344  84 309 344  81 93 94  47 93 94  81 94 123  84 94 123  99 169 170  81 169 170  99 170 176  100 170 176  161 250 251  99 250 251  161 251 257  162 251 257  242 357 358  161 357 358  242 358 364  243 358 364  242 299 300  51 299 300  242 300 364  243 300 364  243 257 358  161 257 358  162 243 257  162 176 251  99 176 251  100 162 176  100 123 170  81 123 170  84 100 123  48 80 223  80 223 225  40 223 225  80 225 234  40 222 225  47 222 234  222 225 234  54 86 236  86 236 291  48 236 291  48 83 291  83 291 345  86 291 345  83 308 310  53 308 310  83 310 345  86 310 345  80 83 306  83 306 308  53 306 308  48 80 83  82 306 343  80 306 343  82 306 307  53 306 307  82 234 343  80 234 343  47 82 234  49 226 229  42 226 229  49 226 228  41 226 228  54 235 237  49 235 237  54 235 236  48 235 236  48 156 227  41 156 227  48 156 223  40 156 223  41 228 235  49 228 235  41 227 235  48 227 235  64 116 118  63 116 118  64 116 117  62 116 117  63 112 115  61 112 115  63 112 113  112 113 328  60 113 328  62 110 114  61 110 114  62 110 111  110 111 325  59 111 325  61 115 116  63 115 116  61 114 116  62 114 116  105 347 349  84 346 347  87 346 349  346 347 349  105 316 349  87 316 349  56 105 316  87 309 346  84 309 346  87 309 311  53 309 311  85 105 124  105 124 347  84 124 347  56 85 105  100 124 171  85 124 171  84 100 124  101 171 177  100 171 177  85 101 171  162 177 252  101 177 252  100 162 177  163 252 258  162 252 258  101 163 252  243 258 359  163 258 359  162 243 258  244 359 365  243 359 365  163 244 359  244 300 365  243 300 365  244 300 301  51 300 301  86 104 321  58 104 321  54 86 104  86 310 321  53 305 310  58 305 321  305 310 321  108 326 350  88 326 350  108 326 327  60 326 327  108 322 350  88 322 350  108 322 323  58 322 323  88 317 326  56 315 317  60 315 326  315 317 326  88 312 322  53 305 312  58 305 322  305 312 322  87 311 312  53 311 312  87 312 348  88 312 348  87 316 317  56 316 317  87 317 348  88 317 348  55 294 302  50 293 294  52 293 302  293 294 302  59 313 318  57 313 318  59 313 314  55 313 314  102 103 319  57 103 319  54 102 103  102 304 319  52 303 304  57 303 319  303 304 319  52 302 303  55 302 313  57 303 313  302 303 313  58 109 324  109 112 324  61 109 112  108 323 324  58 323 324  108 112 324  108 327 328  60 327 328  108 112 328  54 104 106  58 104 106  54 103 106  57 103 106  57 107 320  107 110 320  61 107 110  110 318 325  59 318 325  110 318 320  57 318 320  61 106 109  58 106 109  61 106 107  57 106 107  17 18 200  18 29 200  29 145 209  28 145 209  29 145 147  38 145 147  16 17 198  17 198 199  28 198 199  28 199 200  17 199 200  28 200 209  29 200 209  45 75 90  76 90 341  75 90 341  75 285 286  43 285 286  75 286 341  76 286 341  79 90 120  76 90 120  45 79 90  95 120 165  79 120 165  76 95 120  98 165 173  95 165 173  98 165 167  79 165 167  157 173 246  98 173 246  95 157 173  160 246 254  157 246 254  160 246 248  98 246 248  238 254 353  160 254 353  157 238 254  241 353 361  238 353 361  241 353 355  160 353 355  241 295 361  238 295 361  241 295 298  51 295 298  65 216 218  34 215 216  37 215 218  215 216 218  65 68 218  37 68 218  65 68 280  43 68 280  69 217 220  38 217 220  37 69 217  69 220 230  38 219 220  45 219 230  219 220 230  43 68 283  68 69 283  37 68 69  75 283 332  69 283 332  75 283 285  43 283 285  75 230 332  69 230 332  45 75 230  10 15 184  15 184 195  23 184 195  15 16 196  16 196 197  27 196 197  27 202 203  23 202 203  27 203 207  34 203 207  23 195 196  15 195 196  23 196 202  27 196 202  37 145 210  28 145 210  38 145 217  37 145 217  34 207 208  27 207 208  34 208 215  37 208 215  27 197 198  16 197 198  27 198 206  28 198 206  28 206 208  27 206 208  28 208 210  37 208 210  11 186 188  24 186 188  11 185 188  12 185 188  12 189 191  25 189 191  12 187 191  13 187 191  142 260 268  24 259 260  35 259 268  259 260 268  25 142 204  142 204 260  24 204 260  25 188 204  24 188 204  25 188 189  12 188 189  10 14 184  14 184 193  23 184 193  26 201 203  23 201 203  34 203 261  26 203 261  13 192 194  26 192 194  13 190 194  14 190 194  23 193 194  14 193 194  23 194 201  26 194 201  89 288 340  74 288 340  44 89 288  89 340 342  74 339 340  76 339 342  339 340 342  74 284 286  43 284 286  74 286 339  76 286 339  77 89 119  89 119 342  76 119 342  44 77 89  95 119 164  77 119 164  76 95 119  96 164 172  95 164 172  77 96 164  157 172 245  96 172 245  95 157 172  158 245 253  157 245 253  96 158 245  238 253 352  158 253 352  157 238 253  239 352 360  238 352 360  158 239 352  239 295 360  238 295 360  239 295 296  51 295 296  67 267 287  35 266 267  44 266 287  266 267 287  155 270 331  67 270 331  36 155 270  155 267 331  67 267 331  155 267 269  35 267 269  36 65 214  65 214 216  34 214 216  36 65 66  65 66 280  66 280 281  43 280 281  66 281 282  43 281 282  66 282 329  67 282 329  36 66 270  66 270 329  67 270 329  74 282 330  67 282 330  74 282 284  43 282 284  74 287 330  67 287 330  74 287 288  44 287 288  26 191 205  25 191 205  26 191 192  13 191 192  144 262 265  26 261 262  34 261 265  261 262 265  36 144 214  144 214 265  34 214 265  155 271 351  142 271 351  36 155 271  155 268 351  142 268 351  155 268 269  35 268 269  142 143 271  36 143 271  25 142 143  25 143 144  36 143 144  144 205 262  26 205 262  25 144 205  </DataArray>
<DataArray  type="UInt32"  Name="offsets"  format="ascii">3 6 9 12 15 18 21 24 27 30 33 36 39 42 45 48 51 54 57 60 63 66 69 72 75 78 81 84 87 90 93 96 99 102 105 108 111 114 117 120 123 126 129 132 135 138 141 144 147 150 153 156 159 162 165 168 171 174 177 180 183 186 189 192 195 198 201 204 207 210 213 216 219 222 225 228 231 234 237 240 243 246 249 252 255 258 261 264 267 270 273 276 279 282 285 288 291 294 297 300 303 306 309 312 315 318 321 324 327 330 333 336 339 342 345 348 351 354 357 360 363 366 369 372 375 378 381 384 387 390 393 396 399 402 405 408 411 414 417 420 423 426 429 432 435 438 441 444 447 450 453 456 459 462 465 468 471 474 477 480 483 486 489 492 495 498 501 504 507 510 513 516 519 522 525 528 531 534 537 540 543 546 549 552 555 558 561 564 567 570 573 576 579 582 585 588 591 594 597 600 603 606 609 612 615 618 621 624 627 630 633 636 639 642 645 648 651 654 657 660 663 666 669 672 675 678 681 684 687 690 693 696 699 702 705 708 711 714 717 720 723 726 729 732 735 738 741 744 747 750 753 756 759 762 765 768 771 774 777 780 783 786 789 792 795 798 801 804 807 810 813 816 819 822 825 828 831 834 837 840 843 846 849 852 855 858 861 864 867 870 873 876 879 882 885 888 891 894 897 900 903 906 909 912 915 918 921 924 927 930 933 936 939 942 945 948 951 954 957 960 963 966 969 972 975 978 981 984 987 990 993 996 999 1002 1005 1008 1011 1014 1017 1020 1023 1026 1029 1032 1035 1038 1041 1044 1047 1050 1053 1056 1059 1062 1065 1068 1071 1074 1077 1080 1083 1086 1089 1092 1095 1098 1101 1104 1107 1110 1113 1116 1119 1122 1125 1128 1131 1134 1137 1140 1143 1146 1149 1152 1155 1158 1161 1164 1167 1170 1173 1176 1179 1182 1185 1188 1191 1194 1197 1200 1203 1206 1209 1212 1215 1218 1221 1224 1227 1230 1233 1236 1239 1242 1245 1248 1251 1254 1257 1260 1263 1266 1269 1272 1275 1278 1281 1284 1287 1290 1293 1296 1299 1302 1305 1308 1311 1314 1317 1320 1323 1326 1329 1332 1335 1338 1341 1344 1347 1350 1353 1356 1359 1362 1365 1368 1371 1374 1377 1380 1383 1386 1389 1392 1395 1398 1401 1404 1407 1410 1413 1416 1419 1422 1425 1428 1431 1434 1437 1440 1443 1446 1449 1452 1455 1458 1461 1464 1467 1470 1473 1476 1479 1482 1485 1488 1491 1494 1497 1500 1503 1506 1509 1512 1515 1518 1521 1524 1527 1530 1533 1536 1539 1542 1545 1548 1551 1554 1557 1560 1563 1566 1569 1572 1575 1578 1581 1584 1587 1590 1593 1596 1599 1602 1605 1608 1611 1614 1617 1620 1623 1626 1629 1632 1635 1638 1641 1644 1647 1650 1653 1656 1659 1662 1665 1668 1671 1674 1677 1680 1683 1686 1689 1692 1695 1698 1701 1704 1707 1710 1713 1716 1719 1722 1725 1728 1731 1734 1737 1740 1743 1746 1749 1752 1755 1758 1761 1764 1767 1770 1773 1776 1779 1782 1785 1788 1791 1794 1797 1800 1803 1806 1809 1812 1815 1818 1821 1824 1827 1830 1833 1836 1839 1842 1845 1848 1851 1854 1857 1860 1863 1866 1869 1872 1875 1878 1881 1884 1887 1890 1893 1896 1899 1902 1905 1908 1911 1914 1917 1920 1923 1926 1929 1932 1935 1938 1941 1944 1947 1950 1953 1956 1959 1962 1965 1968 1971 1974 1977 1980 1983 1986 1989 1992 1995 1998 2001 2004 2007 2010 2013 2016 2019 </DataArray>
<DataArray  type="UInt8"  Name="types"  format="ascii">5 5 5 5 5 5 5 5 5 5 5 5 5 5 5 5 5 5 5 5 5 5 5 5 5 5 5 5 5 5 5 5 5 5 5 5 5 5 5 5 5 5 5 5 5 5 5 5 5 5 5 5 5 5 5 5 5 5 5 5 5 5 5 5 5 5 5 5 5 5 5 5 5 5 5 5 5 5 5 5 5 5 5 5 5 5 5 5 5 5 5 5 5 5 5 5 5 5 5 5 5 5 5 5 5 5 5 5 5 5 5 5 5 5 5 5 5 5 5 5 5 5 5 5 5 5 5 5 5 5 5 5 5 5 5 5 5 5 5 5 5 5 5 5 5 5 5 5 5 5 5 5 5 5 5 5 5 5 5 5 5 5 5 5 5 5 5 5 5 5 5 5 5 5 5 5 5 5 5 5 5 5 5 5 5 5 5 5 5 5 5 5 5 5 5 5 5 5 5 5 5 5 5 5 5 5 5 5 5 5 5 5 5 5 5 5 5 5 5 5 5 5 5 5 5 5 5 5 5 5 5 5 5 5 5 5 5 5 5 5 5 5 5 5 5 5 5 5 5 5 5 5 5 5 5 5 5 5 5 5 5 5 5 5 5 5 5 5 5 5 5 5 5 5 5 5 5 5 5 5 5 5 5 5 5 5 5 5 5 5 5 5 5 5 5 5 5 5 5 5 5 5 5 5 5 5 5 5 5 5 5 5 5 5 5 5 5 5 5 5 5 5 5 5 5 5 5 5 5 5 5 5 5 5 5 5 5 5 5 5 5 5 5 5 5 5 5 5 5 5 5 5 5 5 5 5 5 5 5 5 5 5 5 5 5 5 5 5 5 5 5 5 5 5 5 5 5 5 5 5 5 5 5 5 5 5 5 5 5 5 5 5 5 5 5 5 5 5 5 5 5 5 5 5 5 5 5 5 5 5 5 5 5 5 5 5 5 5 5 5 5 5 5 5 5 5 5 5 5 5 5 5 5 5 5 5 5 5 5 5 5 5 5 5 5 5 5 5 5 5 5 5 5 5 5 5 5 5 5 5 5 5 5 5 5 5 5 5 5 5 5 5 5 5 5 5 5 5 5 5 5 5 5 5 5 5 5 5 5 5 5 5 5 5 5 5 5 5 5 5 5 5 5 5 5 5 5 5 5 5 5 5 5 5 5 5 5 5 5 5 5 5 5 5 5 5 5 5 5 5 5 5 5 5 5 5 5 5 5 5 5 5 5 5 5 5 5 5 5 5 5 5 5 5 5 5 5 5 5 5 5 5 5 5 5 5 5 5 5 5 5 5 5 5 5 5 5 5 5 5 5 5 5 5 5 5 5 5 5 5 5 5 5 5 5 5 5 5 5 5 5 5 5 5 5 5 5 5 5 5 5 5 5 5 5 5 5 5 5 5 5 5 5 5 5 5 5 5 5 5 5 5 5 5 5 5 5 5 5 5 5 5 5 5 5 5 5 5 5 5 5 5 5 5 5 5 5 5 5 5 5 5 5 5 5 5 5 5 5 5 5 5 5 </DataArray>
</Cells>
<CellData  Scalars="mu"> 