<?xml version="1.0"?>
<VTKFile type="UnstructuredGrid"  version="0.1"  >
<UnstructuredGrid>
<Piece  NumberOfPoints="1004" NumberOfCells="1893">
<Points>
<DataArray  type="Float64"  NumberOfComponents="3"  format="ascii">-1 1 0  -0.75 1 0  -1 0.75 0  -0.5 1 0  -0.75 0.75 0  -1 0.5 0  -0.25 1 0  -0.5 0.75 0  -0.75 0.5 0  -1 0.25 0  1 1 0  1 1.110223024625157e-16 0  1 0.2500000000000001 0  1 0.5 0  1 0.75 0  0.75 1 0  0.5 1 0  0.25 1 0  0 1 0  -0.25 0.75 0  -0.5 0.5 0  -0.75 0.25 0  -1 0 0  0.75 0.75 0  0.75 0 0  0.75 0.25 0  0.75 0.5 0  0.5 0.75 0  0.25 0.75 0  0 0.75 0  -0.25 0.5 0  -0.5 0.25 0  -0.75 0 0  -1 -0.2500000000000001 0  0.5 0.5 0  0.5 0 0  0.5 0.25 0  0.25 0.5 0  0 0.5 0  -0.25 0.25 0  -0.5 0 0  -0.75 -0.2500000000000001 0  -1 -0.5 0  0.25 0.25 0  0.25 0 0  0 0.25 0  -1 -0.75 0  -0.25 0 0  -0.5 -0.25 0  -0.75 -0.5 0  -0.9999999999999999 -1 0  0 0 0  -0.75 -0.75 0  -0.25 -0.25 0  -0.5 -0.5 0  -0.7499999999999999 -1 0  0 -0.25 0  -0.5 -0.75 0  -0.25 -0.5 0  -0.4999999999999999 -0.9999999999999999 0  0 -0.5 0  -0.25 -0.75 0  -0.2499999999999999 -0.9999999999999999 0  0 -0.75 0  0 -0.9999999999999999 0  0.375 0.125 0  0.125 0.375 0  -0.125 0.375 0  -0.375 0.125 0  -0.125 0.25 0  -0.25 0.125 0  0.25 0.125 0  0.125 0.25 0  0.125 0.125 0  0.125 0 0  -0.125 0.125 0  0 0.125 0  -0.375 -0.125 0  -0.125 0 0  -0.25 -0.125 0  -0.125 -0.125 0  -0.125 -0.375 0  -0.375 -0.625 0  -0.125 -0.5 0  -0.25 -0.625 0  -0.3749999999999999 -0.875 0  -0.125 -0.625 0  0 -0.625 0  -0.2499999999999999 -0.875 0  -0.125 -0.75 0  -0.1249999999999999 -0.875 0  -0.1249999999999999 -0.9999999999999999 0  0 -0.875 0  -0.375 0.625 0  -0.625 0.375 0  -0.375 0.5 0  -0.5 0.375 0  -0.375 0.375 0  -0.25 0.375 0  -0.375 0.25 0  0.1875 0.0625 0  0.1875 0 0  0.0625 0.1875 0  -0.0625 0.1875 0  0 0.1875 0  -0.1875 0.0625 0  -0.1875 0 0  -0.1875 -0.0625 0  0 -0.125 0  0.0625 0.0625 0  0.0625 0 0  -0.0625 0.0625 0  0 0.0625 0  -0.0625 0 0  -0.0625 -0.0625 0  -0.125 -0.25 0  -0.1875 -0.1875 0  -0.0625 -0.1875 0  0.125 0.0625 0  0.0625 0.125 0  -0.0625 0.125 0  -0.125 0.0625 0  -0.125 -0.0625 0  0.875 0.375 0  0.125 0.875 0  0.625 0.625 0  0.75 0.375 0  0.625 0.125 0  0.625 0.25 0  0.625 0.5 0  0.625 0.375 0  0.375 0.625 0  0.125 0.75 0  0.25 0.625 0  0.125 0.625 0  -0.125 0.625 0  0 0.625 0  -0.125 0.5 0  -0.625 0.125 0  -0.5 0.125 0  -0.625 0 0  0.5 0.375 0  0.375 0.5 0  0.375 0.375 0  0.5 0.125 0  0.125 0.5 0  0.25 0.375 0  -0.625 -0.125 0  -0.5 -0.125 0  -0.625 -0.25 0  -0.625 -0.375 0  -0.375 -0.25 0  -0.5 -0.375 0  0 -0.0625 0  0.03125 0.03125 0  0.03125 0 0  -0.03125 0.03125 0  0 0.03125 0  -0.03125 0 0  -0.03125 -0.03125 0  -0.375 -0.375 0  0.09375 0.03125 0  0.03125 0.09375 0  -0.03125 0.09375 0  0 0.09375 0  -0.09375 0.03125 0  -0.09375 0 0  -0.09375 -0.03125 0  -0.03125 -0.09375 0  0.0625 0.03125 0  0.03125 0.0625 0  -0.03125 0.0625 0  -0.0625 0.03125 0  -0.0625 -0.03125 0  -0.0625 -0.125 0  -0.875 0.875 0  -0.625 1 0  -0.75 0.875 0  -0.875 0.75 0  -1 0.625 0  -0.625 0.875 0  -0.375 1 0  -0.5 0.875 0  -0.875 0.625 0  -0.625 0.75 0  -0.75 0.625 0  -0.875 0.5 0  -1 0.375 0  -0.375 0.875 0  -0.125 1 0  -0.25 0.875 0  -0.625 0.625 0  -0.375 0.75 0  -0.5 0.625 0  -0.875 0.375 0  -0.625 0.5 0  -0.75 0.375 0  -0.875 0.25 0  -1 0.125 0  0.875 0.1250000000000001 0  0.875 0.2500000000000001 0  -0.125 0.875 0  -0.875 0.125 0  -0.75 0.125 0  -0.875 0 0  -1 -0.125 0  0.75 0.125 0  -0.875 -0.125 0  -0.75 -0.125 0  -0.875 -0.2500000000000001 0  0 0.375 0  -0.0625 0.4375 0  -0.375 0 0  -0.4375 0.0625 0  -0.875 -0.375 0  -0.0625 0.3125 0  -0.875 -0.625 0  -0.3125 0.0625 0  -0.75 -0.625 0  -0.625 -0.5 0  0 -0.03125 0  0.015625 0.015625 0  0.015625 0 0  -0.015625 0.015625 0  0 0.015625 0  -0.015625 0 0  -0.015625 -0.015625 0  -0.625 -0.625 0  0.046875 0.015625 0  0.015625 0.046875 0  -0.015625 0.046875 0  0 0.046875 0  -0.046875 0.015625 0  -0.046875 0 0  -0.046875 -0.015625 0  -0.015625 -0.046875 0  0.03125 0.015625 0  0.015625 0.03125 0  -0.015625 0.03125 0  -0.03125 0.015625 0  -0.03125 -0.015625 0  -0.03125 -0.0625 0  1 0.875 0  0.875 0.875 0  1 0.625 0  0.875 0.5 0  0.875 0.75 0  0.875 0.625 0  0.625 1 0  0.75 0.875 0  0.625 0.875 0  0.5 0.875 0  0.375 0.875 0  -0.125 0.75 0  -0.25 0.625 0  -0.1875 0.6875 0  0.75 0.625 0  0.625 0.75 0  0.6875 0.6875 0  0.375 0.75 0  0.5 0.625 0  0.5625 0.6875 0  0.4375 0.6875 0  0.3125 0.6875 0  -0.1875 0.5625 0  0.375 0 0  0.4375 0.0625 0  0.375 0.25 0  0.4375 0.1875 0  0.5625 0.1875 0  0.4375 0.3125 0  0.5 0.1875 0  -0.1875 0.3125 0  -0.3125 0.1875 0  -0.1875 0.25 0  -0.25 0.1875 0  -0.1875 0.1875 0  0.3125 0.1875 0  0.1875 0.3125 0  0.25 0.1875 0  0.1875 0.25 0  0.1875 0.1875 0  0.3125 0.3125 0  0.3125 0.0625 0  0.25 0.0625 0  0.0625 0.3125 0  -0.4375 -0.3125 0  -0.875 -0.875 0  -0.8749999999999999 -1 0  0 -0.015625 0  0.0078125 0.0078125 0  0.0078125 0 0  -0.0078125 0.0078125 0  0 0.0078125 0  -0.0078125 0 0  -0.0078125 -0.0078125 0  -0.75 -0.875 0  -0.625 -0.75 0  -0.25 -0.375 0  -0.3125 -0.1875 0  -0.1875 -0.3125 0  -0.3125 -0.25 0  -0.3125 -0.3125 0  -0.5 -0.625 0  -0.375 -0.5 0  -0.4375 -0.5625 0  -0.4375 -0.4375 0  -0.625 -0.875 0  -0.6249999999999999 -1 0  0 -0.375 0  -0.0625 -0.3125 0  -0.0625 -0.25 0  -0.4999999999999999 -0.875 0  -0.375 -0.75 0  -0.4375 -0.8125 0  -0.1875 -0.4375 0  -0.3125 -0.5625 0  -0.1875 -0.5 0  -0.1875 -0.5625 0  -0.3125 -0.4375 0  -0.3749999999999999 -0.9999999999999999 0  -0.4374999999999999 -0.9375 0  -0.0625 -0.4375 0  0.3125 0.125 0  0.4375 0.125 0  0.125 0.3125 0  -0.125 0.1875 0  -0.1875 0.125 0  0.1875 0.125 0  0.125 0.1875 0  -0.125 -0.4375 0  -0.125 -0.3125 0  -0.375 -0.3125 0  0 -0.046875 0  0.0234375 0.0078125 0  0.0078125 0.0234375 0  -0.0078125 0.0234375 0  0 0.0234375 0  -0.0234375 0.0078125 0  -0.0234375 0 0  -0.0234375 -0.0078125 0  -0.0078125 -0.0234375 0  -0.0078125 -0.0390625 0  0.015625 0.0078125 0  0.0078125 0.015625 0  -0.0078125 0.015625 0  -0.015625 0.0078125 0  -0.015625 -0.0078125 0  -0.015625 -0.03125 0  -0.6875 0.4375 0  1 0.1250000000000001 0  0.875 5.551115123125783e-17 0  0.9375 0.06250000000000008 0  0.9375 0.1875000000000001 0  0.375 1 0  0.125 1 0  0.25 0.875 0  0.1875 0.9375 0  0.3125 0.9375 0  0 0.875 0  0.0625 0.9375 0  -0.0625 0.9375 0  -0.4375 0.4375 0  -0.625 0.25 0  -0.6875 0.3125 0  -0.6875 0.1875 0  -0.8125 0.3125 0  -0.75 0.3125 0  0.625 0 0  0.6875 0.0625 0  0.8125 0.06250000000000003 0  0.75 0.0625 0  0.6875 0.1875 0  0.1875 0.8125 0  0.3125 0.8125 0  0.0625 0.8125 0  -0.0625 0.8125 0  -0.1875 0.4375 0  -0.3125 0.5625 0  -0.3125 0.5 0  -0.3125 0.4375 0  -0.25 0.4375 0  -0.1875 0.5 0  -0.4375 0.1875 0  -0.5625 0.3125 0  -0.5 0.3125 0  -0.4375 0.3125 0  -0.4375 0.25 0  -0.5625 0.1875 0  -0.5 0.1875 0  -1 -0.375 0  0.5625 0.0625 0  0.5 0.0625 0  0.1875 0.4375 0  0.1875 0.5625 0  0.3125 0.4375 0  0.1875 0.5 0  0.25 0.4375 0  0.0625 0.4375 0  0.0625 0.5625 0  0.0625 0.5 0  0 0.4375 0  -0.3125 0.3125 0  -0.25 0.3125 0  -0.3125 0.25 0  -0.4375 -0.0625 0  -0.5625 0.0625 0  -0.5625 -0.06250000000000001 0  -0.5 -0.0625 0  -0.4375 0 0  -0.75 -0.375 0  -0.6875 -0.3125 0  -0.8125 -0.3125 0  -1 -0.625 0  -0.875 -0.5 0  -0.9375 -0.4375 0  -0.9375 -0.5625 0  -0.875 -0.75 0  -0.9375 -0.6875 0  -0.25 0.0625 0  -0.3125 -0.0625 0  -0.25 -0.0625 0  -0.21875 -0.03125 0  -0.3125 0 0  -0.28125 0.03125 0  -0.4375 -0.1875 0  -0.5625 -0.1875 0  -0.5 -0.1875 0  -0.6875 -0.4375 0  -0.8125 -0.4375 0  -0.8125 -0.5625 0  0 -0.0078125 0  0.00390625 0.00390625 0  0.00390625 0 0  -0.00390625 0.00390625 0  0 0.00390625 0  -0.00390625 0 0  -0.00390625 -0.00390625 0  -0.8125 -0.6875 0  -0.25 -0.1875 0  -0.1875 -0.25 0  -0.21875 -0.21875 0  0 -0.1875 0  -0.03125 -0.21875 0  0.125 0.4375 0  0.1875 0.375 0  0.0625 0.375 0  -0.1875 0.375 0  -0.125 0.4375 0  -0.375 0.1875 0  -0.4375 0.125 0  -0.3125 -0.125 0  -0.4375 -0.125 0  -0.375 -0.1875 0  -0.375 -0.0625 0  -0.34375 -0.15625 0  -0.1875 -0.125 0  -0.21875 -0.09375 0  -0.21875 -0.15625 0  -0.28125 -0.15625 0  -0.15625 -0.09375 0  -0.15625 -0.15625 0  -0.09375 -0.15625 0  -0.6875 0.375 0  -0.375 0.4375 0  -0.4375 0.375 0  -0.3125 0.375 0  -0.375 0.3125 0  -0.03125 -0.15625 0  -0.15625 -0.21875 0  -0.09375 -0.21875 0  -0.125 -0.1875 0  0.5625 0.125 0  0.6875 0.125 0  0.125 0.5625 0  -0.5625 0.125 0  0.3125 0.375 0  -0.5625 -0.125 0  -0.34375 0.03125 0  -0.375 0.0625 0  0 -0.0234375 0  0.01171875 0.00390625 0  0.01171875 0 0  0.00390625 0.01171875 0  -0.00390625 0.01171875 0  0 0.01171875 0  -0.01171875 0.00390625 0  -0.01171875 0 0  -0.01171875 -0.00390625 0  -0.00390625 -0.01171875 0  -0.00390625 -0.01953125 0  0.0078125 0.00390625 0  0.00390625 0.0078125 0  -0.00390625 0.0078125 0  -0.0078125 0.00390625 0  -0.0078125 -0.00390625 0  -0.0078125 -0.015625 0  -0.875 1 0  -1 0.875 0  -0.9375 0.9375 0  -0.8125 0.9375 0  -0.9375 0.8125 0  -0.4375 0.6875 0  -0.4375 0.8125 0  -0.5625 0.6875 0  -0.4375 0.75 0  -0.5 0.6875 0  -0.6875 0.5625 0  1 0.3750000000000001 0  0.9375 0.3125000000000001 0  0.9375 0.2500000000000001 0  0.9375 0.4375 0  -0.3125 0.6875 0  -0.25 0.6875 0  -0.4375 0.5625 0  -0.5625 0.4375 0  -0.4375 0.5 0  -0.5 0.4375 0  -0.5625 0.5625 0  -0.5 0.5625 0  -0.5625 0.5 0  -0.8125 0.1875 0  0.8125 0.3125 0  0.75 0.3125 0  0.6875 0.25 0  0.6875 0.3125 0  0.8125 0.4375 0  0.6875 0.5625 0  0.6875 0.5 0  0.6875 0.4375 0  0.1875 0.6875 0  0.0625 0.75 0  0.0625 0.6875 0  -0.0625 0.6875 0  0 0.6875 0  -0.6875 0.0625 0  -0.6875 0 0  -0.6875 -0.06250000000000001 0  -0.8125 0.0625 0  -0.75 0.0625 0  -0.8125 -0.06250000000000001 0  -0.75 -0.06250000000000001 0  0.5625 0.5625 0  0.5625 0.5 0  0.5625 0.4375 0  0.4375 0.5625 0  0.5 0.4375 0  0.4375 0.5 0  0.4375 0.4375 0  0.5 0.5625 0  0.5625 0.25 0  0.5625 0.3125 0  0.5 0.3125 0  0.3125 0.5625 0  0.25 0.5625 0  0.3125 0.5 0  -0.0625 0.5625 0  0 0.5625 0  -0.0625 0.5 0  -0.6875 -0.1875000000000001 0  -0.8125 -0.1875000000000001 0  -0.75 -0.1875000000000001 0  0.3125 0.25 0  0.28125 0.21875 0  0.3125 0 0  0.28125 0.03125 0  -0.0625 0.25 0  0.0625 0.25 0  0.03125 0.21875 0  -0.03125 0.21875 
[...]
<PointData  Scalars="u"> 
<DataArray  type="Float64"  Name="u"  format="ascii">1.2599821175937989e+00  1.1551569534732586e+00  1.1551569672433153e+00  1.0524874748280117e+00  1.0400320259428615e+00  1.0524875198699564e+00  9.5486263802784066e-01  9.2488073468102949e-01  9.2489558373840630e-01  9.5486374663037510e-01  6.2998034493327015e-01  -9.9033705203625745e-05  1.6601368679437864e-01  3.2779540856224587e-01  4.8278338220654043e-01  6.7245361137525750e-01  7.2473717907287849e-01  7.8896716858710614e-01  8.6605364935622431e-01  8.1432502041843169e-01  7.9356892658269007e-01  8.1451111440954826e-01  8.6606099296636951e-01  5.1997738377754554e-01  8.8322915456739398e-05  1.8195382557934500e-01  3.5662956025725873e-01  5.6848789979043002e-01  6.3247288016666925e-01  7.1462090601469996e-01  6.6276473210609188e-01  6.6274186969124482e-01  7.1467175703775199e-01  7.8885510842499806e-01  3.9675681546522018e-01  1.2402321247290552e-04  2.0645091194512719e-01  4.5654667431525447e-01  5.4517732456929691e-01  4.9969777042430041e-01  5.4516856983488460e-01  6.3253346672947341e-01  7.2483726150052818e-01  2.4990536260159288e-01  8.5206932830804677e-05  3.4299935680349541e-01  6.7253182836027414e-01  3.4294585738208266e-01  4.5691108653283513e-01  5.6835959145082660e-01  6.2998644462845765e-01  7.3888919548348103e-04  5.1995757416936961e-01  2.4989079641703510e-01  3.9647040482627899e-01  4.8276324092148104e-01  8.5313827943955475e-05  3.5660953566402770e-01  2.0633581165285936e-01  3.2777285510099780e-01  1.7515461482241890e-04  1.8192937498799816e-01  1.6596419840698295e-01  9.3680892592664235e-05  -8.5139121181816588e-05  1.1463976601628940e-01  3.9829509921696671e-01  5.1288375564827715e-01  5.1272301485616578e-01  4.1748438955521283e-01  4.1740312521628037e-01  1.3000751655148052e-01  2.8712965859310613e-01  1.5746137082890899e-01  -4.9594859195469789e-04  3.1442632296731732e-01  2.1616562976990020e-01  3.9827293524298940e-01  2.1539146198210157e-01  2.8728339443861062e-01  1.5738102285363981e-01  1.1460206473115218e-01  2.8553103368783989e-01  1.0429034129468198e-01  1.9264213240672654e-01  2.5805347646331445e-01  9.7233375808324682e-02  -1.3788500225503877e-04  1.7318130810452279e-01  9.1486782949127862e-02  8.7069506996090701e-02  8.3178136947568010e-02  -1.1716943349315835e-04  7.9882908985422529e-01  7.9874604412591566e-01  7.2758870061335679e-01  7.2758792950579643e-01  6.5477417044469599e-01  5.8257389640170454e-01  5.8247464878811850e-01  7.2115815160385927e-02  1.3722686247737032e-04  2.5068401511124982e-01  3.2295049819546628e-01  2.8328027738249661e-01  3.2283115296846338e-01  2.8292594177938757e-01  2.5088374359557736e-01  1.8392407116080302e-05  9.9283333756983450e-02  -2.4641508033818651e-04  1.9807427673726102e-01  1.3573077456840146e-01  1.3548927591227833e-01  9.8628645035742132e-02  1.3030152607805306e-01  2.0622781486048652e-01  7.2165881365936949e-02  8.1771431754179585e-02  1.8073101193274096e-01  2.6273754120033627e-01  2.6266864884300895e-01  1.8067318990005332e-01  2.5814009770746288e-01  7.5041035459811212e-01  4.6061666086795799e-01  2.7046484928626635e-01  9.7388196192060503e-02  1.9273112020213287e-01  3.7481646574782901e-01  2.8551013803500369e-01  5.1342244830516015e-01  6.7111150120979335e-01  5.4738282459381782e-01  5.8698907597673000e-01  6.8434185870441144e-01  6.3291335245046487e-01  6.0112526457166615e-01  6.8401175491875321e-01  6.0109727967383497e-01  6.3282002808593740e-01  3.0394058659340495e-01  4.2346840883234310e-01  3.2744007656558372e-01  1.0438598293086694e-01  4.9678590712749043e-01  3.5805868287506776e-01  5.8692604164913298e-01  4.9671342962413639e-01  5.4719381622526597e-01  5.1323892363094192e-01  3.5839477220228250e-01  4.2356968061673000e-01  -1.2308937884438208e-04  6.2617875461868075e-02  -1.5780127453044398e-04  1.2498149704806587e-01  8.5465248852160697e-02  8.5326118899910069e-02  6.2105645650963874e-02  3.2759214576189949e-01  4.5447175742839019e-02  1.5749956379542071e-01  2.0264451945032183e-01  1.7802662569749655e-01  2.0261248154977030e-01  1.7801571765994564e-01  1.5821167021055821e-01  4.5575383844879719e-02  5.0937912751962924e-02  1.1366550345721241e-01  1.6458050825080350e-01  1.6458409834095564e-01  1.1380313425937615e-01  8.1764317343926543e-02  1.1525766348472326e+00  1.1034988435545035e+00  1.0977803794699819e+00  1.0977808679101031e+00  1.1034988097330303e+00  1.0431311626473352e+00  1.0029078751554306e+00  9.8937383290635483e-01  1.0431440719610447e+00  9.8229558374026993e-01  9.8229984797037229e-01  9.8937772997075424e-01  1.0029072397985523e+00  9.3659969262676590e-01  9.0912088518720868e-01  8.8585920995468459e-01  9.2081905030255862e-01  8.6873747845136340e-01  8.5961115723963222e-01  9.3663506760661230e-01  8.5963581645391507e-01  8.6872822564675023e-01  8.8593616396505082e-01  9.0918370584423214e-01  8.7061811497828823e-02  1.7320261119298527e-01  8.3726559832048841e-01  8.3740692797376193e-01  7.6241506187680808e-01  7.9219924869543490e-01  8.2585756137781441e-01  9.1482272981044707e-02  7.5041699423014530e-01  6.7107961582746078e-01  7.1266439157482342e-01  4.4999357601861978e-01  5.2722884924372537e-01  4.5011493646469475e-01  5.2736372312160851e-01  6.7874179427204584e-01  4.3096352416239414e-01  6.2127976632313509e-01  4.3074740827596353e-01  5.4240721909377088e-01  4.8487000258880902e-01  1.2263937233982881e-05  3.9455170207144723e-02  -5.3613932333389769e-05  7.8762409517380935e-02  5.3836173342637121e-02  5.3753539654275505e-02  3.9139964156075582e-02  4.6043075110388948e-01  2.8753003471831098e-02  9.9061292479286550e-02  1.2762630205137376e-01  1.1195677169012588e-01  1.2765280711149413e-01  1.1201344575188313e-01  9.9345747670006937e-02  2.8696935614932476e-02  3.2128879519894613e-02  7.1615837048913430e-02  1.0374038645833653e-01  1.0376055964935160e-01  7.1706772715127265e-02  5.1432403169845681e-02  5.5729548506389448e-01  5.7645784038362913e-01  4.0608886983853626e-01  3.4098313353386989e-01  5.0021483435760916e-01  4.2172110111431005e-01  6.9730499542703006e-01  5.9748903623685568e-01  6.2150457025889927e-01  6.4824963931320279e-01  6.7854493286640172e-01  7.6258927574350821e-01  7.3994115271056926e-01  7.5037170226721550e-01  4.3956651706794481e-01  5.4257173108842549e-01  4.9067026637609590e-01  5.9827193216559549e-01  4.8479405155002492e-01  5.1381708079379074e-01  5.4095190286776662e-01  5.7262192959634850e-01  6.7223480865712038e-01  2.7974763010271567e-04  5.4662475773010338e-02  2.2432548406717023e-01  1.6233423069704445e-01  1.5007816541775038e-01  2.6551070679127636e-01  1.5593262483899062e-01  5.0280731453606164e-01  5.0266879809255449e-01  4.5801173856279798e-01  4.5813105284355915e-01  4.1247129483958389e-01  1.7962496992144120e-01  3.2341635727355500e-01  1.9123852624788237e-01  2.6646780397042680e-01  2.0627697775082623e-01  2.8988128104283550e-01  6.1298406370956494e-02  6.5760519409294893e-02  3.6967943614883103e-01  3.9117197839151224e-01  5.7623369078576858e-01  5.5732094896307416e-01  8.2194773386001453e-06  2.4853586205012497e-02  -3.5293385056949903e-05  4.9615782248188370e-02  3.3902613181539178e-02  3.3852182605173392e-02  2.4656817069312532e-02  5.0019964300849074e-01  4.3965535059105570e-01  2.2441565377748329e-01  3.2339569223506337e-01  1.7972399928611088e-01  3.0536095815284547e-01  2.8990802615133926e-01  3.7465621892262269e-01  3.0398397746435124e-01  3.4025384628225136e-01  3.6284052631394942e-01  4.2173583978871471e-01  4.0619367901611064e-01  1.5059659661060344e-06  6.1172929281615822e-02  6.5744622722281570e-02  3.4105063922004031e-01  2.7047885737897565e-01  3.0642002634871801e-01  1.6227506940862088e-01  2.4716137072794100e-01  1.5589490048365687e-01  1.5031189482717605e-01  2.6552823160984601e-01  2.4755262624001556e-01  2.9356979559149526e-01  5.4840200683608342e-02  1.2112345794103130e-01  1.0913258599080605e-01  3.4460160264229395e-01  3.6669669790379733e-01  3.6661620593274941e-01  1.4127630284948633e-01  2.2529084699977706e-01  1.0887836014281788e-01  1.2122256190434759e-01  3.4171948664592194e-01  1.2626762122925803e-04  1.8124779827002592e-02  6.2396958563995526e-02  8.0410798091196986e-02  7.0517477269229731e-02  8.0437872352645837e-02  7.0563508494302568e-02  6.2586608213124215e-02  1.8040954895107604e-02  1.5181840532429573e-02  2.0241194622473754e-02  4.5113385917364204e-02  6.5361489256979363e-02  6.5378025056013686e-02  4.5176118995602088e-02  3.2554648782532718e-02  8.6302431733532525e-01  8.3358553255866663e-02  1.0753105841288922e-04  4.2561054610089556e-02  1.2740917723578127e-01  7.5514524588253751e-01  8.2584968713775031e-01  7.1244510682642936e-01  7.6946719227124993e-01  7.3385277618465061e-01  7.9198706515792106e-01  8.0858232095949845e-01  8.5124423287400763e-01  7.2594583288568915e-01  7.3997587172810164e-01  8.0558522524145371e-01  7.5039889166532858e-01  8.7636295883319237e-01  8.4120411400780082e-01  2.2401472207793361e-06  4.7133168980925864e-02  4.4663235274687595e-02  4.5798474962631605e-02  1.4093874105936066e-01  6.9162118599335798e-01  6.5554952164816760e-01  7.3191973089180229e-01  7.7680656879937293e-01  5.8995764413946183e-01  7.3218629085016007e-01  6.9491814637117788e-01  6.5679020048910541e-01  6.2305024759206395e-01  6.3147024929801931e-01  5.8980805223815458e-01  7.3231900590017851e-01  6.9491467390950779e-01  6.5676200460145018e-01  6.2298903583902077e-01  6.7221284461139219e-01  6.3142782626143845e-01  7.5513283400559850e-01  5.0453279865866514e-02  5.2339077229785605e-02  4.2729946816397346e-01  5.2209962642696106e-01  3.9126192103227447e-01  4.7567708346870580e-01  4.0829797231031090e-01  4.7256027484652041e-01  5.6549120244245987e-01  5.2006683058801639e-01  4.9882847956580839e-01  5.8002979870758975e-01  5.4111785047844907e-01  5.4119676561942376e-01  4.7250279709900267e-01  6.1590020687847957e-01  5.6546125351904475e-01  5.2003070137313134e-01  4.9874893855571967e-01  5.9807505299409891e-01  5.7290566069421500e-01  6.5543726279133452e-01  6.9727932437587503e-01  6.4818528231640404e-01  7.0177321727414566e-01  6.7278618441483617e-01  5.9741261161106873e-01  6.4716387789663776e-01  3.7841819431666457e-01  3.6974302950418314e-01  3.1287139691017324e-01  2.9760807577100051e-01  3.9859963552726896e-01  3.8782917112185977e-01  4.2703687749066849e-01  5.2189385480912032e-01  4.7573910693317029e-01  5.4126117965703680e-01  6.2343130844273575e-01  5.9518125683178502e-01  5.1733927791169164e-06  1.5646061046175910e-02  -2.2291247900774680e-05  3.1237423786011465e-02  2.1327204336727999e-02  2.1293094841835069e-02  1.5524730133897080e-02  5.7035056289430386e-01  2.6681291660822259e-01  1.9142248181351731e-01  2.2859917000484764e-01  2.7971462934162493e-06  3.4588992667717179e-02  4.4874958537486048e-01  3.7675812549082155e-01  4.2264983202770490e-01  5.4692949485153264e-01  5.5769783866226996e-01  5.4699417754661894e-01  5.5793593057767144e-01  3.4472184311217374e-01  4.4867059338412907e-01  3.7670139716198547e-01  4.2261317010682081e-01  3.6083051143328732e-01  2.2519760606306333e-01  2.6925278957031923e-01  2.4658005090681878e-01  3.0558141289155150e-01  2.0326858026523309e-01  1.8258043538996813e-01  1.1312630784978750e-01  8.3397515815426460e-01  6.9133787979382633e-01  6.9133102595384066e-01  6.1857661263396235e-01  6.1854338478712312e-01  3.8606780212929702e-02  1.6734150016721921e-01  1.0236697721765413e-01  1.4123687091449852e-01  1.0052124449183514e-01  9.4235154489546058e-02  5.4282445312727834e-01  6.4335823713497031e-01  3.4163877567476286e-01  5.4275383500738883e-01  4.3984481500206868e-01  4.8016339609721809e-01  7.0375194065199216e-05  1.1352538429284163e-02  2.4913763823698586e-05  3.9303097270723744e-02  5.0653470491876969e-02  4.4417732366221416e-02  5.0673284480545332e-02  4.4450164502472918e-02  3.9426518720713365e-02  1.1367799945643105e-02  9.5644431778842357e-03  1.2755222250258109e-02  2.8411648349787270e-02  4.1166216027141982e-02  4.1177690858533726e-02  2.8453688939922849e-02  2.0519595863603333e-02  1.2074506630505688e+00  1.2074506636895526e+00  1.2068107038927518e+00  1.1532289049155418e+00  1.1532290247990604e+00  8.6309850787342624e-01  9.2986709880546070e-01  9.2195380409676320e-01  8.9666864604846142e-01  8.9238068925797531e-01  9.2194299986119277e-01  2.4754921031893423e-01  2.1132056340778524e-01  1.6943859857674143e-01  2.9361286862394531e-01  8.0540315731068213e-01  7.7750198075324262e-01  7.9478983592188623e-01  7.9478866734955811e-01  7.6037992963740675e-01  7.6038182366972384e-01  8.5843070174105607e-01  8.2653001634367351e-01  8.2652079709950810e-01  8.2513980506376838e-01  2.2099714069278079e-01  2.2657270607982860e-01  1.8711240071323293e-01  2.3266409138208519e-01  3.0639587164850507e-01  4.0779686864782821e-01  3.6521137621108968e-01  3.2185952885397556e-01  6.0963957010873204e-01  6.9228985011332977e-01  6.5137232282227431e-01  6.9862996028438906e-01  6.7433409148160528e-01  6.9853489052077600e-01  6.7435429077526110e-01  6.5146041715399350e-01  7.7665994297383245e-01  7.3814469090094703e-01  7.3200384246426964e-01  6.9232441503268671e-01  4.2918272383383410e-01  3.8526447340988862e-01  3.4017169868943303e-01  4.5472996547357236e-01  3.5100301855629551e-01  4.0951108644721557e-01  3.6304460442871073e-01  4.4133245506283908e-01  1.9908068091118247e-01  2.4717758989611688e-01  2.5567412195389261e-01  4.8515619190650622e-01  5.0275149759695292e-01  4.3913865093684573e-01  6.1589448996918428e-01  5.8989053299849636e-01  5.7245866603403261e-01  6.0935763772668616e-01  6.9154129373888207e-01  6.5113125617924028e-01  2.3599867160385410e-01  2.1413734796420883e-01  -4.3498184898399137e-07  3.1842744274370262e-02  3.7868449045353597e-01  3.1288356228420600e-01  2.9745424325945108e-01  3.3192918881141242e-01  3.1393734181915928e-01  3.9837419817359793e-01  3.8784536374278444e-01  3.5589549110097057e-01  3.3183377807732628e-01  4.8533003123538210e-01  4.3921625953131949e-01  5.1403967265321182e-01  4.1952172963488524e-06  9.8319591440584695e-03  -8.3141145153057416e-05  1.9649680301896507e-02  1.3398609371385196e-02  1.3319889918260776e-02  9.7982456101594687e-03  2.3595968363902836e-01  2.1419249901020498e-01  4.5474323014161971e-01  4.0949080805866611e-01  4.4135382211992513e-01  4.2934462379804883e-01  3.2159069720271333e-01  5.2241999728933737e-02  5.0487322887631941e-02  -5.9708831464505243e-05  2.3258391416043894e-01  1.8708543311800710e-01  2.2104595622733020e-01  1.4091569152233113e-01  1.3698839193637966e-01  1.3349713055280349e-01  2.2654965612763547e-01  4.7102650577003143e-02  3.8237633460749906e-05  4.5881915437633161e-02  4.4578586109196537e-02  4.6592441092404430e-01  3.7143529043344753e-01  4.2320140294567499e-01  4.1366450754690848e-01  3.9228658490570417e-01  2.6913012053382074e-01  3.2844512299172907e-01  1.1307665445554897e-01  2.0372109785020873e-01  1.2978645495755312e-01  1.2049877495051647e-01  1.6788005161114314e-01  3.8562944248876872e-02  4.1535420438298117e-02  3.1659730364895239e-01  3.1652465797490253e-01  2.5963907394967289e-01  2.8839909041169076e-01  2.8836383055048592e-01  2.3249121211400775e-01  2.7118849744928991e-01  2.5078788928868617e-01  1.9673573939845171e-01  2.3812487474651992e-01  2.7107961961062127e-01  2.5067936659183082e-01  2.3295840573747689e-01  2.3800658504851568e-01  1.2973345013152901e-01  1.6775424787077572e-01  1.2043650880128944e-01  2.3947765505284010e-01  2.7755052766721666e-01  1.0049199971354110e-01  1.4520025510488210e-01  4.8633200815284015e-02  9.4139921441228222e-02  8.9234201247770234e-02  7.6340870907567071e-01  8.3400070072037868e-01  8.2905582748919915e-01  7.6920500457370655e-01  7.6339309964275670e-01  7.6483699435839270e-02  2.6598732161843119e-01  2.1696709268520586e-01  3.0237498080768088e-01  2.9341136239322957e-01  3.4440157681271039e-01  3.0224119159350105e-01  2.9330403804385724e-01  8.8896080818893872e-02  1.4172916654250434e-01  2.3056871661220130e-01  2.3054074559406776e-01  1.4178330178648629e-01  8.8819136311362484e-02  2.6397289129301593e-01  2.1591269830132345e-01  4.7205125379343643e-01  2.7760335945898668e-01  2.3949547207352589e-01  3.3055860305307233e-01  2.9418359560504276e-01  5.2967443873550746e-01  4.6921475089549725e-01  6.2973779793948403e-01  6.0917057511940753e-01  6.5791009837772263e-01  6.4340954746340318e-01  6.5781701737003639e-01  7.2386753801840398e-01  6.0912165149491004e-01  3.1495578392701273e-01  3.7629957981278711e-01  6.2968234234415243e-01  4.6921830981977602e-01  8.9019776301972331e-01  8.9018214435382725e-01  8.0043749699747890e-01  7.1126705961948866e-01  4.8909089480164480e-01  4.3996179404362534e-01  4.1024225292964317e-01  4.8011842890890638e-01  4.7211625124824447e-01  2.9714953833138057e-02  5.7379503166971664e-02  2.0262186771318541e-01  1.7044425737616667e-01  4.4239221314965162e-05  7.1485544226026808e-03  1.5922213439654485e-05  2.4744268011545806e-02  3.1892767413860823e-02  2.7963074549925512e-02  3.1905826784644299e-02  2.7984522494892021e-02  2.4824401140066479e-02  2.0260755862849095e-01  1.7013834865608501e-01  7.1586720694089018e-03  6.0256566740113371e-03  8.0287536550549890e-03  1.7875353581203596e-02  2.5908743311673095e-02  2.5915400525846895e-02  1.7904974220831652e-02  1.2925248221616220e-02  1.1292248799386453e+00  1.1265411983575440e+00  1.0999246212818741e+00  1.1265414975489543e+00  1.1292248890484635e+00  1.0999365875170994e+00  1.0778725592494940e+00  1.0470593205866423e+00  1.0274765305955853e+00  1.0210912650418413e+00  9.9535698775237091e-01  1.0970614752063870e+00  1.0688633996895862e+00  1.0688638246126239e+00  1.0407455710142521e+00  1.0407467960418835e+00  1.0110651307241114e+00  1.0110659141810145e+00  9.8138904509285319e-01  1.0778725423396065e+00  1.0470609521669823e+00  1.0210934057452912e+00  1.0274765542723898e+00  9.9538877233509404e-01  9.7863589037451448e-01  9.4497373465409507e-01  9.3167727124976807e-01  9.2064178753665127e-01  8.9678559916377121e-01  9.8496432623113406e-01  9.5724899282476994e-01  9.5352832273872434e-01  9.8498558340384013e-01  9.5353641545982737e-01  9.5725647823684978e-01  9.2986651559245315e-01  8.9666580639226157e-01  9.7863540562251894e-01  9.4499298251883068e-01  9.2067574108935435e-01  9.3167644265707195e-01  8.9687238983469353e-01  6.5012942332861112e-01  5.9387882493080002e-01  6.0343539649314737e-01  3.3413513866495081e-01  3.7422326056281541e-01  5.2908051980652626e-01  4.9119775153262540e-01  4.5274246911114280e-01  6.2406301004877651e-01  6.3527457892537920e-01  6.4714962457619130e-01  6.7287459467612531e-01  6.8687188443513536e-01  7.0166650933460084e-01  8.7639232212524942e-01  8.5034516737657573e-01  8.4118576908602960e-01  8.2500291823970817e-01  7.8804541212586410e-01  8.8721481424158244e-01  8.5109936263901576e-01  8.2947032365292683e-01  8.4553313131479091e-01  8.0864104202488929e-01  5.4851409599502976e-01  5.0977609881982144e-01  4.7032585768470370e-01  5.5909984958377323e-01  5.7039668078078531e-01  4.8015804654013505e-01  5.3092231803865619e-01  1.3349527989831486e-01  1.7737694277099342e-01  1.3688138926743271e-01  3.4843010403251290e-01  3.8971122016444959e-01  3.9837473658833644e-01  5.9523968611979938e-01  6.0883950734058168e-01  6.2339153325888419e-01  5.5504756017849011e-01  5.8277860379390101e-01  7.6943975363710138e-01  7.5117636669834043e-01  7.3380657061431143e-01  2.1464684093511074e-01  2.3559775888002785e-01  4.5703855159825119e-01  5.7254882980599431e-01  5.8990846099010652e-01  5.3595271284012180e-01  5.8088506615520696e-01  3.0519964850751374e-01  2.8627370036085475e-01  2.7028173249455190e-01  3.4437063466995224e-02  4.3068716461723623e-05  3.2999264430579357e-02  6.5006101760862223e-01  6.2405317245545577e-01  6.0335980720295346e-01  5.9389365070444067e-01  -6.2400106979030180e-05  6.2392179984005766e-03  -1.6131252889568472e-04  1.2346939640061939e-02  8.2795974309861353e-03  8.2514559463160130e-03  5.9874007292048080e-03  5.3087553044519376e-01  4.9064474482807557e-01  5.4848024972656739e-01  5.0974286