<?xml version="1.0"?>
<VTKFile type="UnstructuredGrid"  version="0.1"  >
<UnstructuredGrid>
<Piece  NumberOfPoints="93" NumberOfCells="148">
<Points>
<DataArray  type="Float64"  NumberOfComponents="3"  format="ascii">-1 1 0  -0.75 1 0  -1 0.75 0  -0.5 1 0  -0.75 0.75 0  -1 0.5 0  -0.25 1 0  -0.5 0.75 0  -0.75 0.5 0  -1 0.25 0  1 1 0  1 1.110223024625157e-16 0  1 0.2500000000000001 0  1 0.5 0  1 0.75 0  0.75 1 0  0.5 1 0  0.25 1 0  0 1 0  -0.25 0.75 0  -0.5 0.5 0  -0.75 0.25 0  -1 0 0  0.75 0.75 0  0.75 0 0  0.75 0.25 0  0.75 0.5 0  0.5 0.75 0  0.25 0.75 0  0 0.75 0  -0.25 0.5 0  -0.5 0.25 0  -0.75 0 0  -1 -0.2500000000000001 0  0.5 0.5 0  0.5 0 0  0.5 0.25 0  0.25 0.5 0  0 0.5 0  -0.25 0.25 0  -0.5 0 0  -0.75 -0.2500000000000001 0  -1 -0.5 0  0.25 0.25 0  0.25 0 0  0 0.25 0  -1 -0.75 0  -0.25 0 0  -0.5 -0.25 0  -0.75 -0.5 0  -0.9999999999999999 -1 0  0 0 0  -0.75 -0.75 0  -0.25 -0.25 0  -0.5 -0.5 0  -0.7499999999999999 -1 0  0 -0.25 0  -0.5 -0.75 0  -0.25 -0.5 0  -0.4999999999999999 -0.9999999999999999 0  0 -0.5 0  -0.25 -0.75 0  -0.2499999999999999 -0.9999999999999999 0  0 -0.75 0  0 -0.9999999999999999 0  0.375 0.125 0  0.125 0.375 0  -0.125 0.375 0  -0.375 0.125 0  -0.125 0.25 0  -0.25 0.125 0  0.25 0.125 0  0.125 0.25 0  0.125 0.125 0  0.125 0 0  -0.125 0.125 0  0 0.125 0  -0.375 -0.125 0  -0.125 0 0  -0.25 -0.125 0  -0.125 -0.125 0  -0.125 -0.375 0  -0.375 -0.625 0  -0.125 -0.5 0  -0.25 -0.625 0  -0.3749999999999999 -0.875 0  -0.125 -0.625 0  0 -0.625 0  -0.2499999999999999 -0.875 0  -0.125 -0.75 0  -0.1249999999999999 -0.875 0  -0.1249999999999999 -0.9999999999999999 0  0 -0.875 0  </DataArray>
</Points>
<Cells>
<DataArray  type="UInt32"  Name="connectivity"  format="ascii">0 1 2  2 4 5  1 3 4  1 2 4  9 21 22  8 20 21  5 8 9  8 9 21  6 18 19  3 6 7  7 19 20  6 7 19  4 5 8  7 8 20  3 4 7  4 7 8  51 75 78  47 75 78  51 75 76  45 75 76  45 67 69  39 67 69  38 45 67  40 47 68  47 68 70  39 68 70  39 70 75  47 70 75  39 69 75  45 69 75  18 19 29  19 20 30  29 30 38  19 29 30  21 22 32  31 32 40  20 21 31  21 31 32  30 39 67  30 38 67  20 30 31  31 40 68  31 39 68  30 31 39  22 32 33  33 41 42  32 40 41  32 33 41  46 50 52  49 52 54  42 46 49  46 49 52  47 79 80  53 79 80  47 78 80  51 78 80  40 48 77  40 47 77  48 53 54  48 53 77  53 77 79  47 77 79  41 42 49  48 49 54  40 41 48  41 48 49  64 90 92  63 90 92  64 90 91  62 90 91  63 86 89  61 86 89  63 86 87  60 86 87  62 85 88  61 85 88  59 62 85  61 89 90  63 89 90  61 88 90  62 88 90  53 56 80  51 56 80  53 54 58  60 81 83  58 81 83  56 60 81  53 58 81  53 56 81  50 52 55  55 57 59  52 54 57  52 55 57  58 84 86  61 84 86  58 83 86  60 83 86  54 58 82  54 57 82  57 61 85  57 59 85  61 82 84  58 82 84  57 61 82  17 18 29  28 29 38  16 17 28  17 28 29  45 72 73  43 72 73  45 73 76  51 73 76  34 37 43  37 38 66  38 45 66  37 43 66  43 66 72  45 66 72  10 15 23  15 16 27  23 27 34  15 23 27  28 37 38  27 34 37  16 27 28  27 28 37  11 12 24  12 13 25  24 25 35  12 24 25  10 14 23  23 26 34  13 14 26  14 23 26  44 71 73  43 71 73  44 73 74  51 73 74  35 44 65  35 36 65  34 36 43  36 43 65  43 65 71  44 65 71  13 25 26  26 34 36  25 35 36  25 26 36  </DataArray>
<DataArray  type="UInt32"  Name="offsets"  format="ascii">3 6 9 12 15 18 21 24 27 30 33 36 39 42 45 48 51 54 57 60 63 66 69 72 75 78 81 84 87 90 93 96 99 102 105 108 111 114 117 120 123 126 129 132 135 138 141 144 147 150 153 156 159 162 165 168 171 174 177 180 183 186 189 192 195 198 201 204 207 210 213 216 219 222 225 228 231 234 237 240 243 246 249 252 255 258 261 264 267 270 273 276 279 282 285 288 291 294 297 300 303 306 309 312 315 318 321 324 327 330 333 336 339 342 345 348 351 354 357 360 363 366 369 372 375 378 381 384 387 390 393 396 399 402 405 408 411 414 417 420 423 426 429 432 435 438 441 444 </DataArray>
<DataArray  type="UInt8"  Name="types"  format="ascii">5 5 5 5 5 5 5 5 5 5 5 5 5 5 5 5 5 5 5 5 5 5 5 5 5 5 5 5 5 5 5 5 5 5 5 5 5 5 5 5 5 5 5 5 5 5 5 5 5 5 5 5 5 5 5 5 5 5 5 5 5 5 5 5 5 5 5 5 5 5 5 5 5 5 5 5 5 5 5 5 5 5 5 5 5 5 5 5 5 5 5 5 5 5 5 5 5 5 5 5 5 5 5 5 5 5 5 5 5 5 5 5 5 5 5 5 5 5 5 5 5 5 5 5 5 5 5 5 5 5 5 5 5 5 5 5 5 5 5 5 5 5 5 5 5 5 5 5 </DataArray>
</Cells>
<PointData  Scalars="u"> 
<DataArray  type="Float64"  Name="u"  format="ascii">1.2602492014267868e+00  1.1543635151739313e+00  1.1543635683961884e+00  1.0515046832063926e+00  1.0400372999412437e+00  1.0515058874849879e+00  9.5381365768422388e-01  9.2305136081843175e-01  9.2306374444611827e-01  9.5381715170358539e-01  6.3080109596665046e-01  -4.6975398885550388e-04  1.6708491804695402e-01  3.2865443209268330e-01  4.8333442527563752e-01  6.7278720443819973e-01  7.2485164455981699e-01  7.8856079333152973e-01  8.6576878740876650e-01  8.1321903565681164e-01  7.9256667980321482e-01  8.1327079100088628e-01  8.6576534319805132e-01  5.1937311269472430e-01  1.1773093319966909e-03  1.8096099403690977e-01  3.5730571844689268e-01  5.6723641071436115e-01  6.3081659732014805e-01  7.1229342989076172e-01  6.5785114865636296e-01  6.5791343521818890e-01  7.1244421886337084e-01  7.8857066073916093e-01  3.9516298539636602e-01  2.5421652364560079e-03  2.0525846385304042e-01  4.5529440554180256e-01  5.4147376846796069e-01  5.0020908278765397e-01  5.4171286139832930e-01  6.3108290463101957e-01  7.2485338436102942e-01  2.4867130346755154e-01  1.2034657952572612e-03  3.3960046571921615e-01  6.7276695248180751e-01  3.3954850493666472e-01  4.5594997614622640e-01  5.6758811940871967e-01  6.3079366246036506e-01  1.8848954140180847e-02  5.1944629126560371e-01  2.5017495634316539e-01  3.9611021780863204e-01  4.8334417940445173e-01  7.7739483613886685e-04  3.5685979852035815e-01  2.0532340058228332e-01  3.2785538547867016e-01  4.1922407274460434e-04  1.8192430435851067e-01  1.6619689476444122e-01  3.0248764270962759e-04  -3.4126889105762757e-04  1.1508183282660123e-01  3.9528408986592467e-01  5.0981879824035192e-01  5.0915711532737595e-01  4.1565959239778355e-01  4.1567384292583354e-01  1.2902271579185826e-01  2.8496517749978506e-01  1.5878653011558760e-01  -4.1167799335176296e-03  3.0956563216413774e-01  2.1086059577078875e-01  3.9570938382562143e-01  2.1015284848815258e-01  2.8524869370655526e-01  1.5703081512876296e-01  1.1373280053903317e-01  2.8462526140570599e-01  1.0377952376190606e-01  1.9214084448593338e-01  2.5816547302048765e-01  9.7240951378217061e-02  -1.9602301048495397e-04  1.7317124957472180e-01  9.1324012344847397e-02  8.7249538492583045e-02  8.3158384490951656e-02  -1.2491960521948743e-04  </DataArray> 
</PointData> 
</Piece>
</UnstructuredGrid>
</VTKFile>