<?xml version="1.0"?>
<VTKFile type="UnstructuredGrid"  version="0.1"  >
<UnstructuredGrid>
<Piece  NumberOfPoints="8225" NumberOfCells="16132">
<Points>
<DataArray  type="Float64"  NumberOfComponents="3"  format="ascii">-1 1 0  -0.75 1 0  -1 0.75 0  -0.5 1 0  -0.75 0.75 0  -1 0.5 0  -0.25 1 0  -0.5 0.75 0  -0.75 0.5 0  -1 0.25 0  1 1 0  1 1.110223024625157e-16 0  1 0.2500000000000001 0  1 0.5 0  1 0.75 0  0.75 1 0  0.5 1 0  0.25 1 0  0 1 0  -0.25 0.75 0  -0.5 0.5 0  -0.75 0.25 0  -1 0 0  0.75 0.75 0  0.75 0 0  0.75 0.25 0  0.75 0.5 0  0.5 0.75 0  0.25 0.75 0  0 0.75 0  -0.25 0.5 0  -0.5 0.25 0  -0.75 0 0  -1 -0.2500000000000001 0  0.5 0.5 0  0.5 0 0  0.5 0.25 0  0.25 0.5 0  0 0.5 0  -0.25 0.25 0  -0.5 0 0  -0.75 -0.2500000000000001 0  -1 -0.5 0  0.25 0.25 0  0.25 0 0  0 0.25 0  -1 -0.75 0  -0.25 0 0  -0.5 -0.25 0  -0.75 -0.5 0  -0.9999999999999999 -1 0  0 0 0  -0.75 -0.75 0  -0.25 -0.25 0  -0.5 -0.5 0  -0.7499999999999999 -1 0  0 -0.25 0  -0.5 -0.75 0  -0.25 -0.5 0  -0.4999999999999999 -0.9999999999999999 0  0 -0.5 0  -0.25 -0.75 0  -0.2499999999999999 -0.9999999999999999 0  0 -0.75 0  0 -0.9999999999999999 0  0.375 0.125 0  0.125 0.375 0  -0.125 0.375 0  -0.375 0.125 0  -0.125 0.25 0  -0.25 0.125 0  0.25 0.125 0  0.125 0.25 0  0.125 0.125 0  0.125 0 0  -0.125 0.125 0  0 0.125 0  -0.375 -0.125 0  -0.125 0 0  -0.25 -0.125 0  -0.125 -0.125 0  -0.125 -0.375 0  -0.375 -0.625 0  -0.125 -0.5 0  -0.25 -0.625 0  -0.3749999999999999 -0.875 0  -0.125 -0.625 0  0 -0.625 0  -0.2499999999999999 -0.875 0  -0.125 -0.75 0  -0.1249999999999999 -0.875 0  -0.1249999999999999 -0.9999999999999999 0  0 -0.875 0  -0.375 0.625 0  -0.625 0.375 0  -0.375 0.5 0  -0.5 0.375 0  -0.375 0.375 0  -0.25 0.375 0  -0.375 0.25 0  0.1875 0.0625 0  0.1875 0 0  0.0625 0.1875 0  -0.0625 0.1875 0  0 0.1875 0  -0.1875 0.0625 0  -0.1875 0 0  -0.1875 -0.0625 0  0 -0.125 0  0.0625 0.0625 0  0.0625 0 0  -0.0625 0.0625 0  0 0.0625 0  -0.0625 0 0  -0.0625 -0.0625 0  -0.125 -0.25 0  -0.1875 -0.1875 0  -0.0625 -0.1875 0  0.125 0.0625 0  0.0625 0.125 0  -0.0625 0.125 0  -0.125 0.0625 0  -0.125 -0.0625 0  0.875 0.375 0  0.125 0.875 0  0.625 0.625 0  0.75 0.375 0  0.625 0.125 0  0.625 0.25 0  0.625 0.5 0  0.625 0.375 0  0.375 0.625 0  0.125 0.75 0  0.25 0.625 0  0.125 0.625 0  -0.125 0.625 0  0 0.625 0  -0.125 0.5 0  -0.625 0.125 0  -0.5 0.125 0  -0.625 0 0  0.5 0.375 0  0.375 0.5 0  0.375 0.375 0  0.5 0.125 0  0.125 0.5 0  0.25 0.375 0  -0.625 -0.125 0  -0.5 -0.125 0  -0.625 -0.25 0  -0.625 -0.375 0  -0.375 -0.25 0  -0.5 -0.375 0  0 -0.0625 0  0.03125 0.03125 0  0.03125 0 0  -0.03125 0.03125 0  0 0.03125 0  -0.03125 0 0  -0.03125 -0.03125 0  -0.375 -0.375 0  0.09375 0.03125 0  0.03125 0.09375 0  -0.03125 0.09375 0  0 0.09375 0  -0.09375 0.03125 0  -0.09375 0 0  -0.09375 -0.03125 0  -0.03125 -0.09375 0  0.0625 0.03125 0  0.03125 0.0625 0  -0.03125 0.0625 0  -0.0625 0.03125 0  -0.0625 -0.03125 0  -0.0625 -0.125 0  -0.875 0.875 0  -0.625 1 0  -0.75 0.875 0  -0.875 0.75 0  -1 0.625 0  -0.625 0.875 0  -0.375 1 0  -0.5 0.875 0  -0.875 0.625 0  -0.625 0.75 0  -0.75 0.625 0  -0.875 0.5 0  -1 0.375 0  -0.375 0.875 0  -0.125 1 0  -0.25 0.875 0  -0.625 0.625 0  -0.375 0.75 0  -0.5 0.625 0  -0.875 0.375 0  -0.625 0.5 0  -0.75 0.375 0  -0.875 0.25 0  -1 0.125 0  0.875 0.1250000000000001 0  0.875 0.2500000000000001 0  -0.125 0.875 0  -0.875 0.125 0  -0.75 0.125 0  -0.875 0 0  -1 -0.125 0  0.75 0.125 0  -0.875 -0.125 0  -0.75 -0.125 0  -0.875 -0.2500000000000001 0  0 0.375 0  -0.0625 0.4375 0  -0.375 0 0  -0.4375 0.0625 0  -0.875 -0.375 0  -0.0625 0.3125 0  -0.875 -0.625 0  -0.3125 0.0625 0  -0.75 -0.625 0  -0.625 -0.5 0  0 -0.03125 0  0.015625 0.015625 0  0.015625 0 0  -0.015625 0.015625 0  0 0.015625 0  -0.015625 0 0  -0.015625 -0.015625 0  -0.625 -0.625 0  0.046875 0.015625 0  0.015625 0.046875 0  -0.015625 0.046875 0  0 0.046875 0  -0.046875 0.015625 0  -0.046875 0 0  -0.046875 -0.015625 0  -0.015625 -0.046875 0  0.03125 0.015625 0  0.015625 0.03125 0  -0.015625 0.03125 0  -0.03125 0.015625 0  -0.03125 -0.015625 0  -0.03125 -0.0625 0  1 0.875 0  0.875 0.875 0  1 0.625 0  0.875 0.5 0  0.875 0.75 0  0.875 0.625 0  0.625 1 0  0.75 0.875 0  0.625 0.875 0  0.5 0.875 0  0.375 0.875 0  -0.125 0.75 0  -0.25 0.625 0  -0.1875 0.6875 0  0.75 0.625 0  0.625 0.75 0  0.6875 0.6875 0  0.375 0.75 0  0.5 0.625 0  0.5625 0.6875 0  0.4375 0.6875 0  0.3125 0.6875 0  -0.1875 0.5625 0  0.375 0 0  0.4375 0.0625 0  0.375 0.25 0  0.4375 0.1875 0  0.5625 0.1875 0  0.4375 0.3125 0  0.5 0.1875 0  -0.1875 0.3125 0  -0.3125 0.1875 0  -0.1875 0.25 0  -0.25 0.1875 0  -0.1875 0.1875 0  0.3125 0.1875 0  0.1875 0.3125 0  0.25 0.1875 0  0.1875 0.25 0  0.1875 0.1875 0  0.3125 0.3125 0  0.3125 0.0625 0  0.25 0.0625 0  0.0625 0.3125 0  -0.4375 -0.3125 0  -0.875 -0.875 0  -0.8749999999999999 -1 0  0 -0.015625 0  0.0078125 0.0078125 0  0.0078125 0 0  -0.0078125 0.0078125 0  0 0.0078125 0  -0.0078125 0 0  -0.0078125 -0.0078125 0  -0.75 -0.875 0  -0.625 -0.75 0  -0.25 -0.375 0  -0.3125 -0.1875 0  -0.1875 -0.3125 0  -0.3125 -0.25 0  -0.3125 -0.3125 0  -0.5 -0.625 0  -0.375 -0.5 0  -0.4375 -0.5625 0  -0.4375 -0.4375 0  -0.625 -0.875 0  -0.6249999999999999 -1 0  0 -0.375 0  -0.0625 -0.3125 0  -0.0625 -0.25 0  -0.4999999999999999 -0.875 0  -0.375 -0.75 0  -0.4375 -0.8125 0  -0.1875 -0.4375 0  -0.3125 -0.5625 0  -0.1875 -0.5 0  -0.1875 -0.5625 0  -0.3125 -0.4375 0  -0.3749999999999999 -0.9999999999999999 0  -0.4374999999999999 -0.9375 0  -0.0625 -0.4375 0  0.3125 0.125 0  0.4375 0.125 0  0.125 0.3125 0  -0.125 0.1875 0  -0.1875 0.125 0  0.1875 0.125 0  0.125 0.1875 0  -0.125 -0.4375 0  -0.125 -0.3125 0  -0.375 -0.3125 0  0 -0.046875 0  0.0234375 0.0078125 0  0.0078125 0.0234375 0  -0.0078125 0.0234375 0  0 0.0234375 0  -0.0234375 0.0078125 0  -0.0234375 0 0  -0.0234375 -0.0078125 0  -0.0078125 -0.0234375 0  -0.0078125 -0.0390625 0  0.015625 0.0078125 0  0.0078125 0.015625 0  -0.0078125 0.015625 0  -0.015625 0.0078125 0  -0.015625 -0.0078125 0  -0.015625 -0.03125 0  -0.6875 0.4375 0  1 0.1250000000000001 0  0.875 5.551115123125783e-17 0  0.9375 0.06250000000000008 0  0.9375 0.1875000000000001 0  0.375 1 0  0.125 1 0  0.25 0.875 0  0.1875 0.9375 0  0.3125 0.9375 0  0 0.875 0  0.0625 0.9375 0  -0.0625 0.9375 0  -0.4375 0.4375 0  -0.625 0.25 0  -0.6875 0.3125 0  -0.6875 0.1875 0  -0.8125 0.3125 0  -0.75 0.3125 0  0.625 0 0  0.6875 0.0625 0  0.8125 0.06250000000000003 0  0.75 0.0625 0  0.6875 0.1875 0  0.1875 0.8125 0  0.3125 0.8125 0  0.0625 0.8125 0  -0.0625 0.8125 0  -0.1875 0.4375 0  -0.3125 0.5625 0  -0.3125 0.5 0  -0.3125 0.4375 0  -0.25 0.4375 0  -0.1875 0.5 0  -0.4375 0.1875 0  -0.5625 0.3125 0  -0.5 0.3125 0  -0.4375 0.3125 0  -0.4375 0.25 0  -0.5625 0.1875 0  -0.5 0.1875 0  -1 -0.375 0  0.5625 0.0625 0  0.5 0.0625 0  0.1875 0.4375 0  0.1875 0.5625 0  0.3125 0.4375 0  0.1875 0.5 0  0.25 0.4375 0  0.0625 0.4375 0  0.0625 0.5625 0  0.0625 0.5 0  0 0.4375 0  -0.3125 0.3125 0  -0.25 0.3125 0  -0.3125 0.25 0  -0.4375 -0.0625 0  -0.5625 0.0625 0  -0.5625 -0.06250000000000001 0  -0.5 -0.0625 0  -0.4375 0 0  -0.75 -0.375 0  -0.6875 -0.3125 0  -0.8125 -0.3125 0  -1 -0.625 0  -0.875 -0.5 0  -0.9375 -0.4375 0  -0.9375 -0.5625 0  -0.875 -0.75 0  -0.9375 -0.6875 0  -0.25 0.0625 0  -0.3125 -0.0625 0  -0.25 -0.0625 0  -0.21875 -0.03125 0  -0.3125 0 0  -0.28125 0.03125 0  -0.4375 -0.1875 0  -0.5625 -0.1875 0  -0.5 -0.1875 0  -0.6875 -0.4375 0  -0.8125 -0.4375 0  -0.8125 -0.5625 0  0 -0.0078125 0  0.00390625 0.00390625 0  0.00390625 0 0  -0.00390625 0.00390625 0  0 0.00390625 0  -0.00390625 0 0  -0.00390625 -0.00390625 0  -0.8125 -0.6875 0  -0.25 -0.1875 0  -0.1875 -0.25 0  -0.21875 -0.21875 0  0 -0.1875 0  -0.03125 -0.21875 0  0.125 0.4375 0  0.1875 0.375 0  0.0625 0.375 0  -0.1875 0.375 0  -0.125 0.4375 0  -0.375 0.1875 0  -0.4375 0.125 0  -0.3125 -0.125 0  -0.4375 -0.125 0  -0.375 -0.1875 0  -0.375 -0.0625 0  -0.34375 -0.15625 0  -0.1875 -0.125 0  -0.21875 -0.09375 0  -0.21875 -0.15625 0  -0.28125 -0.15625 0  -0.15625 -0.09375 0  -0.15625 -0.15625 0  -0.09375 -0.15625 0  -0.6875 0.375 0  -0.375 0.4375 0  -0.4375 0.375 0  -0.3125 0.375 0  -0.375 0.3125 0  -0.03125 -0.15625 0  -0.15625 -0.21875 0  -0.09375 -0.21875 0  -0.125 -0.1875 0  0.5625 0.125 0  0.6875 0.125 0  0.125 0.5625 0  -0.5625 0.125 0  0.3125 0.375 0  -0.5625 -0.125 0  -0.34375 0.03125 0  -0.375 0.0625 0  0 -0.0234375 0  0.01171875 0.00390625 0  0.01171875 0 0  0.00390625 0.01171875 0  -0.00390625 0.01171875 0  0 0.01171875 0  -0.01171875 0.00390625 0  -0.01171875 0 0  -0.01171875 -0.00390625 0  -0.00390625 -0.01171875 0  -0.00390625 -0.01953125 0  0.0078125 0.00390625 0  0.00390625 0.0078125 0  -0.00390625 0.0078125 0  -0.0078125 0.00390625 0  -0.0078125 -0.00390625 0  -0.0078125 -0.015625 0  -0.875 1 0  -1 0.875 0  -0.9375 0.9375 0  -0.8125 0.9375 0  -0.9375 0.8125 0  -0.4375 0.6875 0  -0.4375 0.8125 0  -0.5625 0.6875 0  -0.4375 0.75 0  -0.5 0.6875 0  -0.6875 0.5625 0  1 0.3750000000000001 0  0.9375 0.3125000000000001 0  0.9375 0.2500000000000001 0  0.9375 0.4375 0  -0.3125 0.6875 0  -0.25 0.6875 0  -0.4375 0.5625 0  -0.5625 0.4375 0  -0.4375 0.5 0  -0.5 0.4375 0  -0.5625 0.5625 0  -0.5 0.5625 0  -0.5625 0.5 0  -0.8125 0.1875 0  0.8125 0.3125 0  0.75 0.3125 0  0.6875 0.25 0  0.6875 0.3125 0  0.8125 0.4375 0  0.6875 0.5625 0  0.6875 0.5 0  0.6875 0.4375 0  0.1875 0.6875 0  0.0625 0.75 0  0.0625 0.6875 0  -0.0625 0.6875 0  0 0.6875 0  -0.6875 0.0625 0  -0.6875 0 0  -0.6875 -0.06250000000000001 0  -0.8125 0.0625 0  -0.75 0.0625 0  -0.8125 -0.06250000000000001 0  -0.75 -0.06250000000000001 0  0.5625 0.5625 0  0.5625 0.5 0  0.5625 0.4375 0  0.4375 0.5625 0  0.5 0.4375 0  0.4375 0.5 0  0.4375 0.4375 0  0.5 0.5625 0  0.5625 0.25 0  0.5625 0.3125 0  0.5 0.3125 0  0.3125 0.5625 0  0.25 0.5625 0  0.3125 0.5 0  -0.0625 0.5625 0  0 0.5625 0  -0.0625 0.5 0  -0.6875 -0.1875000000000001 0  -0.8125 -0.1875000000000001 0  -0.75 -0.1875000000000001 0  0.3125 0.25 0  0.28125 0.21875 0  0.3125 0 0  0.28125 0.03125 0  -0.0625 0.25 0  0.0625 0.25 0  0.03125 0.21875 0  -0.03125 0.21875
[...]
<PointData  Scalars="u"> 
<DataArray  type="Float64"  Name="u"  format="ascii">1.2599343153529043e+00  1.1551989820387354e+00  1.1551989809746546e+00  1.0525200765591400e+00  1.0400443066628997e+00  1.0525200749407739e+00  9.5489319500059067e-01  9.2502948885429648e-01  9.2502616653671277e-01  9.5490205073532575e-01  6.2997202128048113e-01  -6.5798480989163226e-06  1.6591746024522333e-01  3.2771038292013016e-01  4.8268761894598511e-01  6.7253230566686861e-01  7.2484386038280246e-01  7.8898641813698311e-01  8.6602640601049885e-01  8.1445281259168945e-01  7.9369774517448100e-01  8.1444160759894646e-01  8.6603412484491460e-01  5.2001607279007966e-01  6.7904429527814880e-06  1.8197815574335927e-01  3.5650112592084626e-01  5.6855192034727176e-01  6.3246736876863940e-01  7.1485287331891734e-01  6.6303163193853487e-01  6.6302943190783825e-01  7.1485793132851072e-01  7.8898704073296366e-01  3.9684020087798993e-01  1.0922517846758530e-05  2.0643712370467093e-01  4.5661469645093117e-01  5.4553215903854080e-01  4.9996873770939965e-01  5.4551731017189420e-01  6.3246765817673445e-01  7.2484381609535176e-01  2.4996925752876853e-01  -1.6874516876933089e-06  3.4362717409043164e-01  6.7252793149028567e-01  3.4360863728868563e-01  4.5662321190999899e-01  5.6854862247758220e-01  6.2997228900693014e-01  4.6205266435458618e-05  5.2000460301668339e-01  2.4995726642381441e-01  3.9682414931317073e-01  4.8268427639083616e-01  6.4989534687256194e-06  3.5649937104735280e-01  2.0643643134995338e-01  3.2769809845588688e-01  8.4299282114434882e-06  1.8198018416080519e-01  1.6592569765967083e-01  6.8949068876871817e-06  -2.0815015014131922e-05  1.1464762777018182e-01  3.9840710406483271e-01  5.1307552832082215e-01  5.1305937580778282e-01  4.1767790258001919e-01  4.1765039923400049e-01  1.3002161428520087e-01  2.8760326305659484e-01  1.5747590287907742e-01  -2.2654345361114324e-05  3.1487413804833680e-01  2.1645952538309282e-01  3.9840111841671233e-01  2.1643379376725896e-01  2.8760743948382406e-01  1.5748929837698863e-01  1.1463264481525659e-01  2.8549780557169374e-01  1.0450872566261911e-01  1.9274002002984264e-01  2.5805130245558960e-01  9.7185292160164180e-02  -8.1829939307532470e-06  1.7321246594321005e-01  9.1519060567004804e-02  8.7001673495198939e-02  8.3222466316199048e-02  -7.0677438997357008e-06  7.9907112567270999e-01  7.9908578077048675e-01  7.2772828553110969e-01  7.2772518524400953e-01  6.5515387497854671e-01  5.8273497910631455e-01  5.8272761815515428e-01  7.2224063030111196e-02  7.2455475010723550e-06  2.5093185710631821e-01  3.2315185772033556e-01  2.8365645568700631e-01  3.2313684448187580e-01  2.8362092356620544e-01  2.5096427137955551e-01  -1.5542892824863122e-05  9.9204544595337396e-02  -6.6746790357652007e-05  1.9835755759908019e-01  1.3634886883135028e-01  1.3631806474871647e-01  9.9172347790325729e-02  1.3005027045406295e-01  2.0635176620248954e-01  7.2219261603250595e-02  8.1883758073329996e-02  1.8112157520422664e-01  2.6306861592907171e-01  2.6306524373542034e-01  1.8111000233898683e-01  2.5806814016207541e-01  7.5054071303174685e-01  4.6050350932953149e-01  2.7050235795352517e-01  9.7195921165488169e-02  1.9275276192165949e-01  3.7482340877226783e-01  2.8550700969449994e-01  5.1357420353734728e-01  6.7127950134744818e-01  5.4750013192212921e-01  5.8723570387790969e-01  6.8444030937949341e-01  6.3305487762947177e-01  6.0151835922694730e-01  6.8441140170427717e-01  6.0151361534472836e-01  6.3304257786895557e-01  3.0406696590298632e-01  4.2365099181875537e-01  3.2758329672789466e-01  1.0451587642545833e-01  4.9700825424024664e-01  3.5817731025163818e-01  5.8723357831307266e-01  4.9699991454373521e-01  5.4748319804253709e-01  5.1357533469591243e-01  3.5817484518364096e-01  4.2364217791655873e-01  -4.4594971945941367e-05  6.2500982976237698e-02  -4.1068308186067873e-05  1.2490992769885692e-01  8.5779903450236131e-02  8.5736790042864067e-02  6.2394244941630525e-02  3.2758921291308285e-01  4.5509999923309986e-02  1.5804419355869900e-01  2.0353026314505404e-01  1.7868669391072062e-01  2.0352415736268686e-01  1.7864625714784099e-01  1.5805709144143085e-01  4.5509759743757039e-02  5.1551320080607588e-02  1.1406117521542528e-01  1.6562785921626932e-01  1.6562709296236500e-01  1.1407216546244044e-01  8.1921721092134331e-02  1.1525971927724272e+00  1.1034633596600938e+00  1.0977725500551396e+00  1.0977724024102282e+00  1.1034633618120209e+00  1.0432084874002745e+00  1.0028713532146818e+00  9.8939173725774388e-01  1.0432107804863620e+00  9.8232923606966405e-01  9.8232842522378772e-01  9.8939056540853354e-01  1.0028712640019681e+00  9.3673327187936906e-01  9.0914277483720152e-01  8.8590541187395122e-01  9.2097499387367676e-01  8.6883226864940732e-01  8.5969995507592001e-01  9.3672534505020821e-01  8.5970500260712757e-01  8.6883285551434686e-01  8.8589711339282406e-01  9.0914269251239133e-01  8.6988624913713258e-02  1.7321740518277265e-01  8.3751247544204899e-01  8.3754029237075189e-01  7.6281881572035726e-01  7.9224907788833554e-01  8.2589944794852221e-01  9.1544533460265629e-02  7.5054477418958643e-01  6.7128478520645585e-01  7.1267847731681366e-01  4.5033587731667407e-01  5.2759914057153923e-01  4.5031538958503503e-01  5.2760453506534088e-01  6.7869095759889642e-01  4.3112520818594674e-01  6.2147219136222098e-01  4.3114766877686378e-01  5.4262516382055259e-01  4.8487526867616726e-01  -1.6537990407724083e-06  3.9376954924042071e-02  -7.7176897112275967e-05  7.8663071900466730e-02  5.4057702132380862e-02  5.3992888244031638e-02  3.9253857040570342e-02  4.6048886136427031e-01  2.8561364970563330e-02  9.9501642947295313e-02  1.2809507361759509e-01  1.1250574293021912e-01  1.2809642976517194e-01  1.1246295360740023e-01  9.9557251103039215e-02  2.8658801997713035e-02  3.2560420336112582e-02  7.1779867195243929e-02  1.0431327846753456e-01  1.0431443188101237e-01  7.1787162949658812e-02  5.1537563690586534e-02  5.5728517385703680e-01  5.7631830529301753e-01  4.0613358175470682e-01  3.4097085274620004e-01  5.0018268181107794e-01  4.2174451924181078e-01  6.9732417259128887e-01  5.9756786990041744e-01  6.2148656420909143e-01  6.4837877469694227e-01  6.7868856641271269e-01  7.6279963159369457e-01  7.4023430013087499e-01  7.5050220405176782e-01  4.3967314576515815e-01  5.4262251691959973e-01  4.9070568268846476e-01  5.9833342885368535e-01  4.8487186831232804e-01  5.1413038378752240e-01  5.4132166695239858e-01  5.7294940927487581e-01  6.7232028501720031e-01  1.3253893682079298e-05  5.4793749797345928e-02  2.2454023371270987e-01  1.6255130374162541e-01  1.5022556040618443e-01  2.6568065540367508e-01  1.5593773136844916e-01  5.0336474124269859e-01  5.0336007741253741e-01  4.5837390168311032e-01  4.5838895054727846e-01  4.1270036562802115e-01  1.7986713017350592e-01  3.2354411074986567e-01  1.9154968569930619e-01  2.6685616785462829e-01  2.0636039323387126e-01  2.9007489426306610e-01  6.1208525016373014e-02  6.5857286862481740e-02  3.6991753874919003e-01  3.9150531126881749e-01  5.7629120856358451e-01  5.5729924732616587e-01  6.9479826348877470e-06  2.4804694831264101e-02  -3.5351505738000673e-05  4.9531023143015877e-02  3.3917092630420483e-02  3.3848243740082710e-02  2.4629447833059290e-02  5.0019812019475152e-01  4.3968408199673387e-01  2.2456486578516202e-01  3.2352676156479393e-01  1.7986717909415537e-01  3.0546960248148269e-01  2.9008987787953738e-01  3.7481909234368993e-01  3.0406464891378976e-01  3.4030150370161499e-01  3.6304776556338852e-01  4.2173784655619745e-01  4.0612640606246558e-01  1.6974714859177441e-07  6.1210632121787352e-02  6.5816997827998727e-02  3.4099260382907609e-01  2.7049888283740592e-01  3.0650727971999364e-01  1.6254871228046430e-01  2.4720248091977209e-01  1.5593461341230511e-01  1.5023595165576334e-01  2.6566809373336825e-01  2.4752891040000971e-01  2.9358025728512011e-01  5.4808066846561899e-02  1.2140440386428451e-01  1.0912601818626699e-01  3.4488276142320862e-01  3.6704903071975764e-01  3.6704677275516678e-01  1.4143564179801324e-01  2.2559922570875646e-01  1.0911695140171072e-01  1.2142999563627538e-01  3.4180484503757519e-01  6.2162364140659851e-05  1.8089193382325289e-02  6.2657304031971089e-02  8.0656899494150766e-02  7.0809363142902995e-02  8.0658594247302887e-02  7.0782745393239990e-02  6.2719078340124093e-02  1.8023976819698546e-02  1.5273251283633483e-02  2.0430752620408710e-02  4.5168726357011607e-02  6.5575010832320882e-02  6.5576340778660897e-02  4.5169659212304154e-02  3.2527015243521744e-02  8.6317438040708461e-01  8.3245096871969432e-02  6.7061307152830782e-06  4.2553484907493853e-02  1.2735153847388303e-01  7.5531886628774236e-01  8.2590079649844750e-01  7.1266614203128198e-01  7.6952432836424012e-01  7.3391562099155838e-01  7.9224302637486943e-01  8.0867531085854538e-01  8.5122975338903362e-01  7.2608685839459175e-01  7.4024064557271629e-01  8.0566075848953400e-01  7.5048151099963156e-01  8.7648824816066195e-01  8.4132968489761506e-01  5.6166921076778260e-07  4.7192251442146949e-02  4.4639294036153188e-02  4.5816742447228061e-02  1.4086904981674897e-01  6.9174115080251897e-01  6.5553597104221606e-01  7.3223615136763931e-01  7.7687138315162341e-01  5.9009523617613791e-01  7.3253529107410009e-01  6.9511983903193264e-01  6.5716200355971843e-01  6.2325378849350777e-01  6.3173255243366377e-01  5.9008839419685399e-01  7.3252502558142629e-01  6.9512280361070955e-01  6.5716304868379394e-01  6.2325836196516993e-01  6.7231820722427948e-01  6.3172876344515272e-01  7.5531769301009111e-01  5.0431217378403913e-02  5.2429081441169298e-02  4.2752969796304124e-01  5.2209065468108362e-01  3.9149621594983042e-01  4.7581182655179771e-01  4.0845777819756179e-01  4.7278042215249322e-01  5.6569751502716414e-01  5.2026038440416655e-01  4.9908333271316208e-01  5.8017392358600639e-01  5.4153684912587796e-01  5.4153898897714159e-01  4.7279264678150662e-01  6.1612648620814625e-01  5.6568926765963601e-01  5.2025455674759136e-01  4.9908180192121537e-01  5.9831944515005508e-01  5.7297050641016167e-01  6.5554164524049108e-01  6.9732284370108732e-01  6.4838423864527406e-01  7.0181046434943584e-01  6.7299706774001056e-01  5.9757238200325968e-01  6.4722634454557837e-01  3.7889231528266232e-01  3.6991409408636139e-01  3.1305810276878721e-01  2.9781034885247992e-01  3.9878452493661160e-01  3.8811797579845531e-01  4.2752100655775832e-01  5.2208909699036876e-01  4.7582507601042506e-01  5.4133769360239836e-01  6.2349051002486611e-01  5.9526854796907369e-01  4.8454971203066684e-06  1.5648649816262773e-02  -2.2371236352039685e-05  3.1240176001266048e-02  2.1361466654638180e-02  2.1321480525534231e-02  1.5507392530120625e-02  5.7042935045264431e-01  2.6686048321937483e-01  1.9154691940898302e-01  2.2868609940953924e-01  1.0336664055754115e-05  3.4529271681107240e-02  4.4894543514233293e-01  3.7688180825714229e-01  4.2285500189557368e-01  5.4729612483203105e-01  5.5806236256439057e-01  5.4728866677745625e-01  5.5806040598410078e-01  3.4488418973699836e-01  4.4894196331739378e-01  3.7685459093214219e-01  4.2285251767389492e-01  3.6094639587520394e-01  2.2559439472248213e-01  2.6931184566447786e-01  2.4662363034849988e-01  3.0572717187683351e-01  2.0379432262136221e-01  1.8272072851770080e-01  1.1324444366918993e-01  8.3418679192263590e-01  6.9153730240163136e-01  6.9153704667243532e-01  6.1880471493137756e-01  6.1880676294295289e-01  3.8531883490540916e-02  1.6735457735319942e-01  1.0238855593893897e-01  1.4144549017317756e-01  1.0057321180163344e-01  9.4203393553266804e-02  5.4300389708385899e-01  6.4359151722587093e-01  3.4182370746967211e-01  5.4299756175047020e-01  4.4019594307595522e-01  4.8051392512591257e-01  4.5199716077247715e-05  1.1284075854870051e-02  2.6299560634808946e-05  3.9357196663227977e-02  5.0700570151766204e-02  4.4477064965679158e-02  5.0702977513038379e-02  4.4481277664889553e-02  3.9436298496327064e-02  1.1278298602639890e-02  9.5568681926205025e-03  1.2725197785920579e-02  2.8403551084902785e-02  4.1142904677291731e-02  4.1145274491010485e-02  2.8413165152585119e-02  2.0469262261392274e-02  1.2074566982481327e+00  1.2074566982399673e+00  1.2068555943523793e+00  1.1532459976202563e+00  1.1532459605176950e+00  8.6317996412620224e-01  9.2998270831380292e-01  9.2202357732203055e-01  8.9676442793628264e-01  8.9249066932954335e-01  9.2202233572397707e-01  2.4753229138878893e-01  2.1119541688732341e-01  1.6941333126937655e-01  2.9357916053407268e-01  8.0562864504092357e-01  7.7770497504279545e-01  7.9505842581094688e-01  7.9505793284861637e-01  7.6063086104411792e-01  7.6062965622919587e-01  8.5852587806940805e-01  8.2670395917425099e-01  8.2670571603441567e-01  8.2518554573084701e-01  2.2095630752500900e-01  2.2653602825212069e-01  1.8709712093578568e-01  2.3268061478797061e-01  3.0650624295366236e-01  4.0787677709285536e-01  3.6526151144680019e-01  3.2184188477056641e-01  6.0962127302338875e-01  6.9248996867199342e-01  6.5159384518319863e-01  6.9878739903131581e-01  6.7456724166224824e-01  6.9880014827837189e-01  6.7455421994022258e-01  6.5159455166415114e-01  7.7687254221670299e-01  7.3833464989884201e-01  7.3223758115756588e-01  6.9249253474923145e-01  4.2927277878700953e-01  3.8532121953184661e-01  3.4031611427964298e-01  4.5473642683446985e-01  3.5107408735296430e-01  4.0957575548109770e-01  3.6305136573372704e-01  4.4144109649909957e-01  1.9914772123651292e-01  2.4719675790270265e-01  2.5584835942929618e-01  4.8532688478429481e-01  5.0287105338940485e-01  4.3927043840061636e-01  6.1613057594161902e-01  5.9011380159867799e-01  5.7270095238257013e-01  6.0960814065015789e-01  6.9174920027644093e-01  6.5126421764332199e-01  2.3612557886678220e-01  2.1436923596180504e-01  1.4846367153256556e-06  3.1767717625279329e-02  3.7891123241784841e-01  3.1307074679166208e-01  2.9778414245271639e-01  3.3232968848086086e-01  3.1435606776936698e-01  3.9876403997819643e-01  3.8811597538038772e-01  3.5632855385071766e-01  3.3231673598324868e-01  4.8534309953708016e-01  4.3926936132684469e-01  5.1413057839958731e-01  3.2611862417734251e-06  9.8635361231970229e-03  -1.4083572376785814e-05  1.9687312415245187e-02  1.3459304428418074e-02  1.3435916417679390e-02  9.7787564657693428e-03  2.3613074618832514e-01  2.1437073680433211e-01  4.5473647760252328e-01  4.0957383403998687e-01  4.4144009273914780e-01  4.2927690708308858e-01  3.2182826541455412e-01  5.2427210419322953e-02  5.0436272129832663e-02  -9.5850626911670063e-06  2.3267693700301659e-01  1.8707680836186666e-01  2.2096185673081092e-01  1.4086947823160612e-01  1.3694438111533028e-01  1.3342672257782354e-01  2.2652720722894223e-01  4.7194034860242706e-02  8.6589277585523412e-06  4.5825921530374847e-02  4.4627315175915436e-02  4.6631050263628715e-01  3.7171655650979230e-01  4.2348057169089298e-01  4.1392626401389526e-01  3.9257770331792036e-01  2.6928659773179187e-01  3.2885266783399397e-01  1.1325646266783294e-01  2.0378899904885117e-01  1.2997732860896613e-01  1.2067229114906231e-01  1.6806043999583131e-01  3.8560881954894537e-02  4.1483990725579158e-02  3.1698299011168424e-01  3.1698200301189006e-01  2.5995605223498036e-01  2.8878260580488091e-01  2.8878094948270649e-01  2.3297589313360109e-01  2.7157352614504265e-01  2.5116019286113095e-01  1.9717657850002845e-01  2.3862456656509459e-01  2.7157349278906445e-01  2.5116142515143741e-01  2.3302268703913967e-01  2.3861258843214975e-01  1.2996719053656597e-01  1.6806203606066161e-01  1.2063661017782491e-01  2.3952399043712896e-01  2.7761656899833292e-01  1.0058018450358541e-01  1.4525054162885651e-01  4.8693602268230149e-02  9.4181166963154775e-02  8.9158493199817251e-02  7.6361614974323822e-01  8.3416726558117216e-01  8.2922287630357083e-01  7.6939237631958324e-01  7.6359814818881766e-01  7.6494657395261831e-02  2.6633175712861373e-01  2.1723865829189143e-01  3.0267128761003986e-01  2.9373565510515942e-01  3.4475349352290058e-01  3.0264481173112456e-01  2.9373178847150105e-01  8.9097111999054249e-02  1.4210615247476671e-01  2.3117645358427560e-01  2.3117391917452235e-01  1.4207654084960714e-01  8.9092628867337528e-02  2.6398116646616121e-01  2.1585599990823218e-01  4.7219146589717537e-01  2.7760890236214558e-01  2.3955724977153359e-01  3.3062367614095572e-01  2.9427068172684701e-01  5.2982417938557158e-01  4.6933779319153285e-01  6.2996386824154871e-01  6.0939502389402789e-01  6.5809613060789196e-01  6.4360869442055957e-01  6.5809424107779779e-01  7.2413022128618787e-01  6.0938472368280305e-01  3.1508368372633933e-01  3.7644708158840473e-01  6.2995288243196290e-01  4.6933899324943967e-01  8.9031159372803226e-01  8.9031206869040513e-01  8.0061283824507334e-01  7.1145961835907034e-01  4.8935624246987969e-01  4.4019520967096332e-01  4.1046771800103021e-01  4.8050757736866256e-01  4.7217307874358661e-01  2.9730399769936661e-02  5.7644938240757629e-02  2.0273393675392901e-01  1.7042213803395390e-01  4.1861855899391960e-05  7.1417216852321021e-03  1.6050943422594929e-05  2.4755405925815790e-02  3.1899919843279168e-02  2.7980013680828014e-02  3.1903848179355376e-02  2.7987236638634103e-02  2.4814061490120744e-02  2.0273241535801542e-01  1.7039383409612718e-01  7.1410248913017262e-03  5.9791639961228006e-03  8.0319608278413678e-03  1.7898889315642180e-02  2.5930402112019319e-02  2.5933421977628105e-02  1.7912321279456803e-02  1.2864189043198412e-02  1.1292388904312267e+00  1.1265436529215711e+00  1.0999189712896982e+00  1.1265435627781704e+00  1.1292388888288951e+00  1.0999213474460352e+00  1.0778741812919377e+00  1.0471305286170804e+00  1.0274996693263809e+00  1.0211177243916350e+00  9.9536757538235043e-01  1.0970520327933924e+00  1.0689071538579766e+00  1.0689070200076525e+00  1.0408239616570605e+00  1.0408235770861645e+00  1.0111375647770471e+00  1.0111372696278971e+00  9.8142789368739081e-01  1.0778741834450689e+00  1.0471300895015874e+00  1.0211171601195090e+00  1.0274996720307239e+00  9.9537188179347835e-01  9.7864793456682730e-01  9.4507919886950065e-01  9.3170079865229516e-01  9.2069303848217698e-01  8.9687069096233418e-01  9.8500566588422933e-01  9.5733770644886529e-01  9.5360338853052307e-01  9.8500814328221875e-01  9.5360167736494938e-01  9.5733581964159775e-01  9.2998082260009751e-01  8.9676198842789323e-01  9.7863426202481929e-01  9.4507902247880371e-01  9.2070338269232377e-01  9.3170089468426320e-01  8.9687557343790147e-01  6.5016303997987779e-01  5.9386002830135387e-01  6.0343866716984162e-01  3.3408488057455643e-01  3.7414270973146685e-01  5.2912232543966031e-01  4.9117063288526996e-01  4.5269054810926701e-01  6.2413733674665706e-01  6.3535608812108257e-01  6.4723126610048942e-01  6.7299622484317279e-01  6.8699789933445876e-01  7.0180846598667612e-01  8.7648418894234192e-01  8.5049034912791066e-01  8.4132890176461683e-01  8.2516468181420766e-01  7.8820887772644432e-01  8.8723785361460450e-01  8.5121986429434271e-01  8.2952635113606410e-01  8.4555863426558731e-01  8.0867535757469511e-01  5.4853097256047667e-01  5.0979295839047067e-01  4.7039459237713105e-01  5.5913399400029351e-01  5.7042881559376890e-01  4.8021391549364989e-01  5.3094466918719974e-01  1.3346919489754303e-01  1.7738663478961628e-01  1.3695936817443055e-01  3.4844242535383796e-01  3.8971564525397678e-01  3.9844470713580743e-01  5.9527415455342403e-01  6.0891778381440032e-01  6.2349131953965531e-01  5.5513374646541747e-01  5.8291923519121491e-01  7.6951077649942623e-01  7.5127867915847679e-01  7.3391714132661701e-01  2.1479641639551678e-01  2.3566774560019049e-01  4.5734669811207201e-01  5.7270711884215431e-01  5.9011046416933144e-01  5.3621013345447388e-01  5.8113516420099720e-01  3.0543060022754398e-01  2.8644922432348446e-01  2.7043026235840317e-01  3.4498047790816937e-02  3.5629935693022725e-05  3.3032506264561640e-02  6.5015875879017504e-01  6.2414106642323219e-01  6.0342379080248065e-01  5.9387368989078626e-01  2.0606263648150707e-06  6.2156305968894396e-03  -8.8708713077598591e-06  1.2405763521644034e-02  8.4808341249319168e-03  8.4668899426373918e-03  6.1635938247545374e-03  5.3093320012687206e-01  4.9070823691234727e-01  5.4853190750550307e-01  5.097830