<?xml version="1.0"?>
<VTKFile type="UnstructuredGrid"  version="0.1"  >
<UnstructuredGrid>
<Piece  NumberOfPoints="715" NumberOfCells="1345">
<Points>
<DataArray  type="Float64"  NumberOfComponents="3"  format="ascii">-1 1 0  -0.75 1 0  -1 0.75 0  -0.5 1 0  -0.75 0.75 0  -1 0.5 0  -0.25 1 0  -0.5 0.75 0  -0.75 0.5 0  -1 0.25 0  1 1 0  1 1.110223024625157e-16 0  1 0.2500000000000001 0  1 0.5 0  1 0.75 0  0.75 1 0  0.5 1 0  0.25 1 0  0 1 0  -0.25 0.75 0  -0.5 0.5 0  -0.75 0.25 0  -1 0 0  0.75 0.75 0  0.75 0 0  0.75 0.25 0  0.75 0.5 0  0.5 0.75 0  0.25 0.75 0  0 0.75 0  -0.25 0.5 0  -0.5 0.25 0  -0.75 0 0  -1 -0.2500000000000001 0  0.5 0.5 0  0.5 0 0  0.5 0.25 0  0.25 0.5 0  0 0.5 0  -0.25 0.25 0  -0.5 0 0  -0.75 -0.2500000000000001 0  -1 -0.5 0  0.25 0.25 0  0.25 0 0  0 0.25 0  -1 -0.75 0  -0.25 0 0  -0.5 -0.25 0  -0.75 -0.5 0  -0.9999999999999999 -1 0  0 0 0  -0.75 -0.75 0  -0.25 -0.25 0  -0.5 -0.5 0  -0.7499999999999999 -1 0  0 -0.25 0  -0.5 -0.75 0  -0.25 -0.5 0  -0.4999999999999999 -0.9999999999999999 0  0 -0.5 0  -0.25 -0.75 0  -0.2499999999999999 -0.9999999999999999 0  0 -0.75 0  0 -0.9999999999999999 0  0.375 0.125 0  0.125 0.375 0  -0.125 0.375 0  -0.375 0.125 0  -0.125 0.25 0  -0.25 0.125 0  0.25 0.125 0  0.125 0.25 0  0.125 0.125 0  0.125 0 0  -0.125 0.125 0  0 0.125 0  -0.375 -0.125 0  -0.125 0 0  -0.25 -0.125 0  -0.125 -0.125 0  -0.125 -0.375 0  -0.375 -0.625 0  -0.125 -0.5 0  -0.25 -0.625 0  -0.3749999999999999 -0.875 0  -0.125 -0.625 0  0 -0.625 0  -0.2499999999999999 -0.875 0  -0.125 -0.75 0  -0.1249999999999999 -0.875 0  -0.1249999999999999 -0.9999999999999999 0  0 -0.875 0  -0.375 0.625 0  -0.625 0.375 0  -0.375 0.5 0  -0.5 0.375 0  -0.375 0.375 0  -0.25 0.375 0  -0.375 0.25 0  0.1875 0.0625 0  0.1875 0 0  0.0625 0.1875 0  -0.0625 0.1875 0  0 0.1875 0  -0.1875 0.0625 0  -0.1875 0 0  -0.1875 -0.0625 0  0 -0.125 0  0.0625 0.0625 0  0.0625 0 0  -0.0625 0.0625 0  0 0.0625 0  -0.0625 0 0  -0.0625 -0.0625 0  -0.125 -0.25 0  -0.1875 -0.1875 0  -0.0625 -0.1875 0  0.125 0.0625 0  0.0625 0.125 0  -0.0625 0.125 0  -0.125 0.0625 0  -0.125 -0.0625 0  0.875 0.375 0  0.125 0.875 0  0.625 0.625 0  0.75 0.375 0  0.625 0.125 0  0.625 0.25 0  0.625 0.5 0  0.625 0.375 0  0.375 0.625 0  0.125 0.75 0  0.25 0.625 0  0.125 0.625 0  -0.125 0.625 0  0 0.625 0  -0.125 0.5 0  -0.625 0.125 0  -0.5 0.125 0  -0.625 0 0  0.5 0.375 0  0.375 0.5 0  0.375 0.375 0  0.5 0.125 0  0.125 0.5 0  0.25 0.375 0  -0.625 -0.125 0  -0.5 -0.125 0  -0.625 -0.25 0  -0.625 -0.375 0  -0.375 -0.25 0  -0.5 -0.375 0  0 -0.0625 0  0.03125 0.03125 0  0.03125 0 0  -0.03125 0.03125 0  0 0.03125 0  -0.03125 0 0  -0.03125 -0.03125 0  -0.375 -0.375 0  0.09375 0.03125 0  0.03125 0.09375 0  -0.03125 0.09375 0  0 0.09375 0  -0.09375 0.03125 0  -0.09375 0 0  -0.09375 -0.03125 0  -0.03125 -0.09375 0  0.0625 0.03125 0  0.03125 0.0625 0  -0.03125 0.0625 0  -0.0625 0.03125 0  -0.0625 -0.03125 0  -0.0625 -0.125 0  -0.875 0.875 0  -0.625 1 0  -0.75 0.875 0  -0.875 0.75 0  -1 0.625 0  -0.625 0.875 0  -0.375 1 0  -0.5 0.875 0  -0.875 0.625 0  -0.625 0.75 0  -0.75 0.625 0  -0.875 0.5 0  -1 0.375 0  -0.375 0.875 0  -0.125 1 0  -0.25 0.875 0  -0.625 0.625 0  -0.375 0.75 0  -0.5 0.625 0  -0.875 0.375 0  -0.625 0.5 0  -0.75 0.375 0  -0.875 0.25 0  -1 0.125 0  0.875 0.1250000000000001 0  0.875 0.2500000000000001 0  -0.125 0.875 0  -0.875 0.125 0  -0.75 0.125 0  -0.875 0 0  -1 -0.125 0  0.75 0.125 0  -0.875 -0.125 0  -0.75 -0.125 0  -0.875 -0.2500000000000001 0  0 0.375 0  -0.0625 0.4375 0  -0.375 0 0  -0.4375 0.0625 0  -0.875 -0.375 0  -0.0625 0.3125 0  -0.875 -0.625 0  -0.3125 0.0625 0  -0.75 -0.625 0  -0.625 -0.5 0  0 -0.03125 0  0.015625 0.015625 0  0.015625 0 0  -0.015625 0.015625 0  0 0.015625 0  -0.015625 0 0  -0.015625 -0.015625 0  -0.625 -0.625 0  0.046875 0.015625 0  0.015625 0.046875 0  -0.015625 0.046875 0  0 0.046875 0  -0.046875 0.015625 0  -0.046875 0 0  -0.046875 -0.015625 0  -0.015625 -0.046875 0  0.03125 0.015625 0  0.015625 0.03125 0  -0.015625 0.03125 0  -0.03125 0.015625 0  -0.03125 -0.015625 0  -0.03125 -0.0625 0  1 0.875 0  0.875 0.875 0  1 0.625 0  0.875 0.5 0  0.875 0.75 0  0.875 0.625 0  0.625 1 0  0.75 0.875 0  0.625 0.875 0  0.5 0.875 0  0.375 0.875 0  -0.125 0.75 0  -0.25 0.625 0  -0.1875 0.6875 0  0.75 0.625 0  0.625 0.75 0  0.6875 0.6875 0  0.375 0.75 0  0.5 0.625 0  0.5625 0.6875 0  0.4375 0.6875 0  0.3125 0.6875 0  -0.1875 0.5625 0  0.375 0 0  0.4375 0.0625 0  0.375 0.25 0  0.4375 0.1875 0  0.5625 0.1875 0  0.4375 0.3125 0  0.5 0.1875 0  -0.1875 0.3125 0  -0.3125 0.1875 0  -0.1875 0.25 0  -0.25 0.1875 0  -0.1875 0.1875 0  0.3125 0.1875 0  0.1875 0.3125 0  0.25 0.1875 0  0.1875 0.25 0  0.1875 0.1875 0  0.3125 0.3125 0  0.3125 0.0625 0  0.25 0.0625 0  0.0625 0.3125 0  -0.4375 -0.3125 0  -0.875 -0.875 0  -0.8749999999999999 -1 0  0 -0.015625 0  0.0078125 0.0078125 0  0.0078125 0 0  -0.0078125 0.0078125 0  0 0.0078125 0  -0.0078125 0 0  -0.0078125 -0.0078125 0  -0.75 -0.875 0  -0.625 -0.75 0  -0.25 -0.375 0  -0.3125 -0.1875 0  -0.1875 -0.3125 0  -0.3125 -0.25 0  -0.3125 -0.3125 0  -0.5 -0.625 0  -0.375 -0.5 0  -0.4375 -0.5625 0  -0.4375 -0.4375 0  -0.625 -0.875 0  -0.6249999999999999 -1 0  0 -0.375 0  -0.0625 -0.3125 0  -0.0625 -0.25 0  -0.4999999999999999 -0.875 0  -0.375 -0.75 0  -0.4375 -0.8125 0  -0.1875 -0.4375 0  -0.3125 -0.5625 0  -0.1875 -0.5 0  -0.1875 -0.5625 0  -0.3125 -0.4375 0  -0.3749999999999999 -0.9999999999999999 0  -0.4374999999999999 -0.9375 0  -0.0625 -0.4375 0  0.3125 0.125 0  0.4375 0.125 0  0.125 0.3125 0  -0.125 0.1875 0  -0.1875 0.125 0  0.1875 0.125 0  0.125 0.1875 0  -0.125 -0.4375 0  -0.125 -0.3125 0  -0.375 -0.3125 0  0 -0.046875 0  0.0234375 0.0078125 0  0.0078125 0.0234375 0  -0.0078125 0.0234375 0  0 0.0234375 0  -0.0234375 0.0078125 0  -0.0234375 0 0  -0.0234375 -0.0078125 0  -0.0078125 -0.0234375 0  -0.0078125 -0.0390625 0  0.015625 0.0078125 0  0.0078125 0.015625 0  -0.0078125 0.015625 0  -0.015625 0.0078125 0  -0.015625 -0.0078125 0  -0.015625 -0.03125 0  -0.6875 0.4375 0  1 0.1250000000000001 0  0.875 5.551115123125783e-17 0  0.9375 0.06250000000000008 0  0.9375 0.1875000000000001 0  0.375 1 0  0.125 1 0  0.25 0.875 0  0.1875 0.9375 0  0.3125 0.9375 0  0 0.875 0  0.0625 0.9375 0  -0.0625 0.9375 0  -0.4375 0.4375 0  -0.625 0.25 0  -0.6875 0.3125 0  -0.6875 0.1875 0  -0.8125 0.3125 0  -0.75 0.3125 0  0.625 0 0  0.6875 0.0625 0  0.8125 0.06250000000000003 0  0.75 0.0625 0  0.6875 0.1875 0  0.1875 0.8125 0  0.3125 0.8125 0  0.0625 0.8125 0  -0.0625 0.8125 0  -0.1875 0.4375 0  -0.3125 0.5625 0  -0.3125 0.5 0  -0.3125 0.4375 0  -0.25 0.4375 0  -0.1875 0.5 0  -0.4375 0.1875 0  -0.5625 0.3125 0  -0.5 0.3125 0  -0.4375 0.3125 0  -0.4375 0.25 0  -0.5625 0.1875 0  -0.5 0.1875 0  -1 -0.375 0  0.5625 0.0625 0  0.5 0.0625 0  0.1875 0.4375 0  0.1875 0.5625 0  0.3125 0.4375 0  0.1875 0.5 0  0.25 0.4375 0  0.0625 0.4375 0  0.0625 0.5625 0  0.0625 0.5 0  0 0.4375 0  -0.3125 0.3125 0  -0.25 0.3125 0  -0.3125 0.25 0  -0.4375 -0.0625 0  -0.5625 0.0625 0  -0.5625 -0.06250000000000001 0  -0.5 -0.0625 0  -0.4375 0 0  -0.75 -0.375 0  -0.6875 -0.3125 0  -0.8125 -0.3125 0  -1 -0.625 0  -0.875 -0.5 0  -0.9375 -0.4375 0  -0.9375 -0.5625 0  -0.875 -0.75 0  -0.9375 -0.6875 0  -0.25 0.0625 0  -0.3125 -0.0625 0  -0.25 -0.0625 0  -0.21875 -0.03125 0  -0.3125 0 0  -0.28125 0.03125 0  -0.4375 -0.1875 0  -0.5625 -0.1875 0  -0.5 -0.1875 0  -0.6875 -0.4375 0  -0.8125 -0.4375 0  -0.8125 -0.5625 0  0 -0.0078125 0  0.00390625 0.00390625 0  0.00390625 0 0  -0.00390625 0.00390625 0  0 0.00390625 0  -0.00390625 0 0  -0.00390625 -0.00390625 0  -0.8125 -0.6875 0  -0.25 -0.1875 0  -0.1875 -0.25 0  -0.21875 -0.21875 0  0 -0.1875 0  -0.03125 -0.21875 0  0.125 0.4375 0  0.1875 0.375 0  0.0625 0.375 0  -0.1875 0.375 0  -0.125 0.4375 0  -0.375 0.1875 0  -0.4375 0.125 0  -0.3125 -0.125 0  -0.4375 -0.125 0  -0.375 -0.1875 0  -0.375 -0.0625 0  -0.34375 -0.15625 0  -0.1875 -0.125 0  -0.21875 -0.09375 0  -0.21875 -0.15625 0  -0.28125 -0.15625 0  -0.15625 -0.09375 0  -0.15625 -0.15625 0  -0.09375 -0.15625 0  -0.6875 0.375 0  -0.375 0.4375 0  -0.4375 0.375 0  -0.3125 0.375 0  -0.375 0.3125 0  -0.03125 -0.15625 0  -0.15625 -0.21875 0  -0.09375 -0.21875 0  -0.125 -0.1875 0  0.5625 0.125 0  0.6875 0.125 0  0.125 0.5625 0  -0.5625 0.125 0  0.3125 0.375 0  -0.5625 -0.125 0  -0.34375 0.03125 0  -0.375 0.0625 0  0 -0.0234375 0  0.01171875 0.00390625 0  0.01171875 0 0  0.00390625 0.01171875 0  -0.00390625 0.01171875 0  0 0.01171875 0  -0.01171875 0.00390625 0  -0.01171875 0 0  -0.01171875 -0.00390625 0  -0.00390625 -0.01171875 0  -0.00390625 -0.01953125 0  0.0078125 0.00390625 0  0.00390625 0.0078125 0  -0.00390625 0.0078125 0  -0.0078125 0.00390625 0  -0.0078125 -0.00390625 0  -0.0078125 -0.015625 0  -0.875 1 0  -1 0.875 0  -0.9375 0.9375 0  -0.8125 0.9375 0  -0.9375 0.8125 0  -0.4375 0.6875 0  -0.4375 0.8125 0  -0.5625 0.6875 0  -0.4375 0.75 0  -0.5 0.6875 0  -0.6875 0.5625 0  1 0.3750000000000001 0  0.9375 0.3125000000000001 0  0.9375 0.2500000000000001 0  0.9375 0.4375 0  -0.3125 0.6875 0  -0.25 0.6875 0  -0.4375 0.5625 0  -0.5625 0.4375 0  -0.4375 0.5 0  -0.5 0.4375 0  -0.5625 0.5625 0  -0.5 0.5625 0  -0.5625 0.5 0  -0.8125 0.1875 0  0.8125 0.3125 0  0.75 0.3125 0  0.6875 0.25 0  0.6875 0.3125 0  0.8125 0.4375 0  0.6875 0.5625 0  0.6875 0.5 0  0.6875 0.4375 0  0.1875 0.6875 0  0.0625 0.75 0  0.0625 0.6875 0  -0.0625 0.6875 0  0 0.6875 0  -0.6875 0.0625 0  -0.6875 0 0  -0.6875 -0.06250000000000001 0  -0.8125 0.0625 0  -0.75 0.0625 0  -0.8125 -0.06250000000000001 0  -0.75 -0.06250000000000001 0  0.5625 0.5625 0  0.5625 0.5 0  0.5625 0.4375 0  0.4375 0.5625 0  0.5 0.4375 0  0.4375 0.5 0  0.4375 0.4375 0  0.5 0.5625 0  0.5625 0.25 0  0.5625 0.3125 0  0.5 0.3125 0  0.3125 0.5625 0  0.25 0.5625 0  0.3125 0.5 0  -0.0625 0.5625 0  0 0.5625 0  -0.0625 0.5 0  -0.6875 -0.1875000000000001 0  -0.8125 -0.1875000000000001 0  -0.75 -0.1875000000000001 0  0.3125 0.25 0  0.28125 0.21875 0  0.3125 0 0  0.28125 0.03125 0  -0.0625 0.25 0  0.0625 0.25 0  0.03125 0.21875 0  -0.03125 0.21875 0
[...]
<PointData  Scalars="u"> 
<DataArray  type="Float64"  Name="u"  format="ascii">1.2599821225680585e+00  1.1552261609786587e+00  1.1552264247580284e+00  1.0523381647221299e+00  1.0399525143526227e+00  1.0523551635119908e+00  9.5473907799310020e-01  9.2490595943405152e-01  9.2484604524200875e-01  9.5473897915725192e-01  6.3003036884890029e-01  -9.6117443574980405e-05  1.6601543684274556e-01  3.2767366712276769e-01  4.8277826507715410e-01  6.7248307578688116e-01  7.2488386971638752e-01  7.8896822181392723e-01  8.6604968838218077e-01  8.1421537456088133e-01  7.9359593914513527e-01  8.1455621156653757e-01  8.6616890328917162e-01  5.1987253821597634e-01  8.6426240324430782e-05  1.8184956322401308e-01  3.5680993832222097e-01  5.6831098423045523e-01  6.3243417001650926e-01  7.1462911349849512e-01  6.6276991560913256e-01  6.6278617148718277e-01  7.1472543612857697e-01  7.8896538021398877e-01  3.9682926369872196e-01  1.2441147473114339e-04  2.0630375910322052e-01  4.5658921767172489e-01  5.4516023667302449e-01  4.9969975837676972e-01  5.4513279274414161e-01  6.3256185265457843e-01  7.2483993471460040e-01  2.5012017465231628e-01  -3.5629775541283443e-05  3.4286148460143895e-01  6.7238724294433250e-01  3.4284532015960045e-01  4.5684379931375013e-01  5.6830150297989390e-01  6.3003295308826612e-01  1.1721449529444685e-03  5.1996875130112685e-01  2.4979424040944928e-01  3.9664184494325511e-01  4.8282995368193027e-01  4.4978012742916785e-04  3.5659881837832397e-01  2.0636483277234313e-01  3.2767441151487697e-01  1.2571789827438870e-04  1.8189124022525505e-01  1.6612982885919503e-01  9.3480205426543905e-05  -3.5080444694682327e-04  1.1471815397940208e-01  3.9821336297652921e-01  5.1280762185291973e-01  5.1287242784788745e-01  4.1729635721964242e-01  4.1766433660814950e-01  1.2981166046000234e-01  2.8709273751066189e-01  1.5747380712279088e-01  -4.9687374722135911e-04  3.1472502018315335e-01  2.1608806389791441e-01  3.9817116776181632e-01  2.1538923326012602e-01  2.8719024355421691e-01  1.5733433239423750e-01  1.1444955324535760e-01  2.8551413124972680e-01  1.0443851714498223e-01  1.9248492674056258e-01  2.5796810570556078e-01  9.7261510361759035e-02  -1.4106787751686932e-04  1.7309296337913571e-01  9.1481035342958525e-02  8.7315514049441045e-02  8.3163293400042040e-02  -9.4229351445033213e-05  7.9882189829615569e-01  7.9881386082109140e-01  7.2760273062068770e-01  7.2762778596236222e-01  6.5479130328778767e-01  5.8254178019863578e-01  5.8257017469013517e-01  7.1866657937823819e-02  3.1388077603385387e-04  2.5049217776482341e-01  3.2280520863986273e-01  2.8314618439402778e-01  3.2313765422462953e-01  2.8292151513253999e-01  2.5083013794302844e-01  -2.2242893412813779e-04  9.9246612093166292e-02  -2.4616185890186386e-04  1.9807888017806080e-01  1.3569192216199780e-01  1.3544660368887140e-01  9.8507010333162240e-02  1.3007137282763212e-01  2.0611891961711273e-01  7.2088325978545725e-02  8.1759675894480952e-02  1.8062475894610391e-01  2.6272001368871772e-01  2.6276384229762367e-01  1.8062585904410219e-01  2.5824185675149836e-01  7.5038813850951780e-01  4.6065788024272936e-01  2.7054315791440187e-01  9.7404238151375763e-02  1.9269718869830085e-01  3.7488737672959149e-01  2.8554844324884543e-01  5.1349159514230480e-01  6.7109928577199929e-01  5.4740147106587278e-01  5.8699356749420772e-01  6.8440446826312651e-01  6.3293635567877515e-01  6.0112008559345897e-01  6.8405160439975010e-01  6.0100810496863133e-01  6.3292370489519412e-01  3.0400249863726958e-01  4.2354635064472257e-01  3.2776548247023624e-01  1.0439643108902673e-01  4.9677740363431605e-01  3.5819454520327471e-01  5.8688312237080875e-01  4.9662383025074114e-01  5.4717007579012422e-01  5.1323364214207978e-01  3.5825609202729053e-01  4.2356276579025620e-01  4.7471255727620713e-05  6.2592755773756309e-02  -1.5746611646798815e-04  1.2494805764093672e-01  8.5427830746954037e-02  8.5272082131211568e-02  6.2006506642083729e-02  3.2764977768276676e-01  4.5430765619241024e-02  1.5743639471021784e-01  2.0261419154303059e-01  1.7797456046021343e-01  2.0262756239314025e-01  1.7799628613420038e-01  1.5816441108597526e-01  4.5383510610078386e-02  5.0918737811425134e-02  1.1362401905153328e-01  1.6455742840186027e-01  1.6457066341682636e-01  1.1372402169957097e-01  8.1927597268553046e-02  1.1526077124271903e+00  1.1035006147147555e+00  1.0975649243403514e+00  1.0975696559588481e+00  1.1034969239188912e+00  1.0428023564177216e+00  1.0028738143958560e+00  9.8918757498688237e-01  1.0428553229900015e+00  9.8201906312407428e-01  9.8200998131710204e-01  9.8930433651863847e-01  1.0028702381910979e+00  9.3641070349842004e-01  9.0910888876307905e-01  8.8587407263791429e-01  9.2090713847548777e-01  8.6854061738859534e-01  8.5962552159466066e-01  9.3631735172123831e-01  8.5967201762526479e-01  8.6899902724170008e-01  8.8586138906876111e-01  9.0910298728510586e-01  8.6950231422832744e-02  1.7337821166086750e-01  8.3730252565357022e-01  8.3727964266382837e-01  7.6246135692519612e-01  7.9206895978899461e-01  8.2581053866716314e-01  9.1655138598143462e-02  7.5026111503912007e-01  6.7109976084260459e-01  7.1254989190729690e-01  4.4991571898350502e-01  5.2718542403472857e-01  4.5002115176435220e-01  5.2754246178990039e-01  6.7863048244368229e-01  4.3084473097363324e-01  6.2126627354520414e-01  4.3063731062078814e-01  5.4231266207093121e-01  4.8485867319447745e-01  1.2272914065181365e-05  3.9430622132737798e-02  -5.3400518689068134e-05  7.8715053273897426e-02  5.3789771858329630e-02  5.3697680810791244e-02  3.9093230148970176e-02  4.6048205089000782e-01  2.8741338725036772e-02  9.9025896821040904e-02  1.2759285029421333e-01  1.1192062088563956e-01  1.2761644142025105e-01  1.1196193727659419e-01  9.9273835851840742e-02  2.8584923841074736e-02  3.2113996950766437e-02  7.1584363373952298e-02  1.0370254222327738e-01  1.0371769583026597e-01  7.1633275476954389e-02  5.1070914672771715e-02  5.5734657361778028e-01  5.7652881752231722e-01  4.0614489683114902e-01  3.4101072286426687e-01  5.0014910672612922e-01  4.2185941871970517e-01  6.9721342095161620e-01  5.9741541138378151e-01  6.2148530062114782e-01  6.4823429857298642e-01  6.7858835337613022e-01  7.6277362489188183e-01  7.3998949578343443e-01  7.5049558505642489e-01  4.3961312550397141e-01  5.4244389492398437e-01  4.9059487711218752e-01  5.9828941972328842e-01  4.8487900963555386e-01  5.1392657455791224e-01  5.4111009042025393e-01  5.7263318847310862e-01  6.7226893750656869e-01  2.7543322968957157e-04  5.4676998521020120e-02  2.2432116552173306e-01  1.6255011933114019e-01  1.5005393358626520e-01  2.6544219700325417e-01  1.5589802977259426e-01  5.0268970060887563e-01  5.0266662687672337e-01  4.5766621274388830e-01  4.5790108316534212e-01  4.1274962993895209e-01  1.7973633603258138e-01  3.2313569480207066e-01  1.9142949625304279e-01  2.6667175111929448e-01  2.0644574551459696e-01  2.8931499611239769e-01  6.1112186663766020e-02  6.5995632140195937e-02  3.6957571764736835e-01  3.9107363669305650e-01  5.7630541849488026e-01  5.5742489569603926e-01  8.1991848277393517e-06  2.4821173219260001e-02  -3.5360288353076158e-05  4.9556389676099481e-02  3.3835585895222016e-02  3.3776607045319283e-02  2.4621488393363849e-02  5.0041240897036998e-01  4.3972915875412671e-01  2.2450231643888427e-01  3.2327881443796685e-01  1.7965162961836539e-01  3.0521913603903933e-01  2.8942018778691742e-01  3.7482388386793825e-01  3.0388886847053642e-01  3.4035049587821098e-01  3.6296013193395221e-01  4.2172765460454997e-01  4.0614100529389446e-01  -4.2968153132620458e-07  6.1206647774772492e-02  6.5512434458995031e-02  3.4097999339470758e-01  2.7048968691730374e-01  3.0652420070161024e-01  1.6263523362641280e-01  2.4721921923846119e-01  1.5600425458429512e-01  1.5042307566439606e-01  2.6546606155159252e-01  2.4758074270613634e-01  2.9360693147072570e-01  5.4866228155942075e-02  1.2128680491689559e-01  1.0918704148623153e-01  3.4448788603208258e-01  3.6634252358234676e-01  3.6627862266643813e-01  1.4093698160214510e-01  2.2519341938700860e-01  1.0915196030838455e-01  1.2135733062712807e-01  3.4156006176604603e-01  1.1309297875220311e-04  1.8114000484946349e-02  6.2362315961520483e-02  8.0368317181775423e-02  7.0477440398325805e-02  8.0387524826759552e-02  7.0509497098167881e-02  6.2529355528216507e-02  1.8013328048634685e-02  1.5144046307185821e-02  2.0225389831416307e-02  4.5077605337123211e-02  6.5312140279165848e-02  6.5324297739119450e-02  4.5125512762320394e-02  3.2491787108428254e-02  8.6306855051593290e-01  8.3356939544607087e-02  1.0655344445883411e-04  4.2532980116290989e-02  1.2740518383043373e-01  7.5524062009680337e-01  8.2584970931430268e-01  7.1239014838342474e-01  7.6944745684221016e-01  7.3381904820484978e-01  7.9195112000660517e-01  8.0856647305538831e-01  8.5118894976346038e-01  7.2597104577277771e-01  7.4002169801063911e-01  8.0565467710243910e-01  7.5044568840786607e-01  8.7635580560304494e-01  8.4127092676683335e-01  2.5146797662788694e-06  4.7168406078980624e-02  4.4713513465495791e-02  4.5867683561442878e-02  1.4084493177744403e-01  6.9158765306449099e-01  6.5539101236070529e-01  7.3190377407007001e-01  7.7674834268556903e-01  5.8993020315212741e-01  7.3220516117673684e-01  6.9492785108445732e-01  6.5678999514001968e-01  6.2303687005286501e-01  6.3147129996713480e-01  5.8989002527312306e-01  7.3236749712043159e-01  6.9495897896260528e-01  6.5681040186288253e-01  6.2305956188651490e-01  6.7223470316206113e-01  6.3144498734667054e-01  7.5523019684731008e-01  5.0457034334176566e-02  5.2346463493629730e-02  4.2730604570099989e-01  5.2211354986667480e-01  3.9134330064870559e-01  4.7569112077478792e-01  4.0836202832826912e-01  4.7251672963855307e-01  5.6549204833558486e-01  5.2004969163126946e-01  4.9878284731265626e-01  5.7999545662920193e-01  5.4108355485033721e-01  5.4109225006969341e-01  4.7243604740011752e-01  6.1593875347051175e-01  5.6526539564814193e-01  5.1993547206850665e-01  4.9873293376790012e-01  5.9807443029089413e-01  5.7290469095703156e-01  6.5549934856983427e-01  6.9728529631593972e-01  6.4814715034425774e-01  7.0172951521211846e-01  6.7277465634060052e-01  5.9737921467043664e-01  6.4712621376597201e-01  3.7830363421020885e-01  3.6963086467625217e-01  3.1278659485357774e-01  2.9754958703766243e-01  3.9844402037177623e-01  3.8761632624057640e-01  4.2693882369663760e-01  5.2183001222629566e-01  4.7565877553914271e-01  5.4124092249614808e-01  6.2338212262975723e-01  5.9513460390681183e-01  6.6558239816159305e-06  1.5598027810093526e-02  -1.3189725661377034e-04  3.1172385896591357e-02  2.1256218024886395e-02  2.1129415544435731e-02  1.5541578887485238e-02  5.7041040105485252e-01  2.6670816889193877e-01  1.9130046507218759e-01  2.2849173851419641e-01  -6.6511030395453878e-06  3.4562070834755973e-02  4.4871815483998856e-01  3.7669317004408015e-01  4.2257289053659663e-01  5.4686718686154290e-01  5.5765945882969636e-01  5.4695317721093084e-01  5.5771021798571163e-01  3.4461642427649980e-01  4.4857813159370297e-01  3.7658797628435298e-01  4.2251717444084425e-01  3.6072113081233392e-01  2.2511867436919919e-01  2.6917430639916146e-01  2.4648283281005656e-01  3.0547640266109233e-01  2.0321168719695476e-01  1.8249389524762893e-01  1.1309130267856413e-01  8.3407967706033226e-01  6.9135226296536878e-01  6.9136338455836055e-01  6.1856804367476315e-01  6.1857979073179237e-01  3.8420022522096239e-02  1.6719281888969509e-01  1.0220448772276564e-01  1.4113064841389980e-01  1.0052064809925004e-01  9.4289403243510456e-02  5.4282694692870437e-01  6.4335171209792286e-01  3.4167251993697506e-01  5.4265557502133355e-01  4.3968974176685277e-01  4.8000195300725085e-01  7.0492690666012028e-05  1.1340106729391546e-02  2.4816484768210465e-05  3.9257976812136552e-02  5.0598734465295607e-02  4.4364746534031843e-02  5.0613664695928574e-02  4.4390408196859792e-02  3.9374276343380019e-02  1.1351706483832909e-02  9.5507728475972883e-03  1.2736770565568215e-02  2.8359102529441738e-02  4.1103557651680271e-02  4.1111475455319180e-02  2.8399598099172377e-02  2.0492080244111432e-02  1.2074477807120727e+00  1.2074477786784943e+00  1.2068175931003828e+00  1.1532073294428831e+00  1.1532083977168595e+00  8.6306456300865086e-01  9.2977037283887609e-01  9.2186226828242779e-01  8.9659689457110026e-01  8.9238828289630434e-01  9.2182779650385682e-01  2.4755303142192897e-01  2.1138204877267205e-01  1.6950012217501603e-01  2.9367345932188715e-01  8.0550200876653810e-01  7.7755224180882965e-01  7.9480267125411874e-01  7.9483014518164419e-01  7.6039940099326364e-01  7.6041527445572610e-01  8.5846226831431505e-01  8.2655159868233730e-01  8.2655389979232263e-01  8.2518962277952501e-01  2.2106742733982171e-01  2.2657487692461667e-01  1.8705940007332802e-01  2.3266588162437785e-01  3.0663277844602549e-01  4.0784050870480304e-01  3.6531990033866402e-01  3.2194745828850407e-01  6.0963364248269625e-01  6.9228769137414625e-01  6.5138010999553497e-01  6.9871173933888531e-01  6.7436268780690556e-01  6.9860122886483456e-01  6.7440659501064026e-01  6.5148018715515588e-01  7.7673719148482423e-01  7.3820484691007049e-01  7.3208379905031207e-01  6.9237170485689148e-01  4.2925077289356617e-01  3.8533196748166626e-01  3.4023185194455036e-01  4.5480531128357599e-01  3.5107124717186994e-01  4.0958859641586776e-01  3.6311983903825457e-01  4.4140669199823496e-01  1.9902725938521326e-01  2.4717987081583934e-01  2.5570845316344820e-01  4.8520686633570159e-01  5.0278286282093321e-01  4.3920188427291573e-01  6.1591195323939374e-01  5.8989646828286590e-01  5.7244662053011530e-01  6.0935733752811705e-01  6.9161721704779267e-01  6.5116237572542457e-01  2.3605214731213842e-01  2.1429561997236252e-01  2.8393833151174890e-06  3.1739548092150627e-02  3.7852917860818441e-01  3.1273452586444683e-01  2.9729792705949148e-01  3.3178813699245002e-01  3.1379471752537441e-01  3.9826301232967964e-01  3.8771486086799845e-01  3.5576749086028664e-01  3.3182279552585053e-01  4.8530327618362917e-01  4.3916839166105526e-01  5.1387357201354411e-01  -9.8993069797290647e-05  9.8981878577902860e-03  -2.5589981769283767e-04  1.9587062458523073e-02  1.3134957878108540e-02  1.3089531267863941e-02  9.4975060864757981e-03  2.3599197808659464e-01  2.1412218754566667e-01  4.5476173483530413e-01  4.0955729263546659e-01  4.4139596974374989e-01  4.2933377245975457e-01  3.2170263132633720e-01  5.2399410975267346e-02  5.0553456641033410e-02  -5.7162843360602632e-05  2.3256396699556803e-01  1.8705094583678031e-01  2.2096256016336321e-01  1.4089932961262858e-01  1.3696926677105770e-01  1.3341492302194025e-01  2.2651245937083322e-01  4.7108416413392640e-02  3.8546793569944119e-05  4.5882843570618982e-02  4.4552091980231766e-02  4.6579819755486318e-01  3.7123544371072853e-01  4.2305343211524210e-01  4.1347914640615779e-01  3.9204808804633823e-01  2.6881241953895757e-01  3.2834386037067970e-01  1.1314435744828027e-01  2.0346202507678338e-01  1.2974914221510378e-01  1.2049107612125881e-01  1.6781686217897696e-01  3.8556865956112123e-02  4.1513568454883534e-02  3.1661937617425634e-01  3.1674523236269625e-01  2.5971512349881543e-01  2.8847743106735946e-01  2.8853284058372752e-01  2.3235982787635109e-01  2.7109554196205560e-01  2.5067854311048882e-01  1.9664160828347726e-01  2.3807096140766715e-01  2.7113835612425924e-01  2.5068734521082858e-01  2.3293530795077533e-01  2.3804945428786103e-01  1.2970115294033893e-01  1.6770710915870651e-01  1.2043029980743640e-01  2.3947109836519057e-01  2.7756983781934247e-01  1.0057825756683719e-01  1.4519900815068162e-01  4.8656653545366364e-02  9.4143907547420677e-02  8.9229539250219869e-02  7.6341946333967159e-01  8.3394959298907689e-01  8.2905497383244087e-01  7.6923603354232839e-01  7.6344294442086036e-01  7.6490045546628166e-02  2.6583361381344833e-01  2.1679279451304592e-01  3.0224573058305887e-01  2.9333420369509794e-01  3.4418727549853084e-01  3.0229807338252501e-01  2.9343304439153406e-01  8.8870056618307186e-02  1.4166875596636655e-01  2.3057961013052011e-01  2.3059038162258608e-01  1.4171885624253622e-01  8.8779620305631177e-02  2.6408748932898218e-01  2.1603270839717154e-01  4.7212431334826072e-01  2.7765531488137357e-01  2.3949744576632970e-01  3.3062336282695731e-01  2.9422409596785853e-01  5.2971256081902285e-01  4.6928421835925532e-01  6.2973573806296801e-01  6.0917918226845524e-01  6.5795698040007644e-01  6.4343895393203820e-01  6.5791850616595715e-01  7.2391904592037326e-01  6.0909284645291717e-01  3.1504460174440913e-01  3.7640041715976980e-01  6.2968165131852394e-01  4.6921569760535969e-01  8.9023353951923900e-01  8.9021796904983441e-01  8.0043057604915091e-01  7.1125619058380241e-01  4.8902941415266543e-01  4.3986500057279132e-01  4.1014972026960633e-01  4.8003917940404567e-01  4.7212139965589550e-01  2.9677747249888652e-02  5.7374663263229424e-02  2.0269333712701137e-01  1.7053176823884428e-01  4.4077903041238831e-05  7.1398677422175203e-03  1.6531150974176548e-05  2.4667966857117151e-02  3.1822116795588502e-02  2.7876241324923650e-02  3.1828789725964077e-02  2.7887748357171414e-02  2.4744297858223137e-02  2.0267634657123398e-01  1.7043401471693917e-01  7.1428660964953572e-03  6.0183077521415726e-03  8.0622959118517440e-03  1.7744254277874898e-02  2.5852350873021263e-02  2.5851930389676356e-02  1.7744859064331604e-02  1.2901678336881685e-02  </DataArray> 
</PointData> 
</Piece>
</UnstructuredGrid>
</VTKFile>