<?xml version="1.0"?>
<VTKFile type="UnstructuredGrid"  version="0.1"  >
<UnstructuredGrid>
<Piece  NumberOfPoints="93" NumberOfCells="148">
<Points>
<DataArray  type="Float64"  NumberOfComponents="3"  format="ascii">-1 1 0  -0.75 1 0  -1 0.75 0  -0.5 1 0  -0.75 0.75 0  -1 0.5 0  -0.25 1 0  -0.5 0.75 0  -0.75 0.5 0  -1 0.25 0  1 1 0  1 1.110223024625157e-16 0  1 0.2500000000000001 0  1 0.5 0  1 0.75 0  0.75 1 0  0.5 1 0  0.25 1 0  0 1 0  -0.25 0.75 0  -0.5 0.5 0  -0.75 0.25 0  -1 0 0  0.75 0.75 0  0.75 0 0  0.75 0.25 0  0.75 0.5 0  0.5 0.75 0  0.25 0.75 0  0 0.75 0  -0.25 0.5 0  -0.5 0.25 0  -0.75 0 0  -1 -0.2500000000000001 0  0.5 0.5 0  0.5 0 0  0.5 0.25 0  0.25 0.5 0  0 0.5 0  -0.25 0.25 0  -0.5 0 0  -0.75 -0.2500000000000001 0  -1 -0.5 0  0.25 0.25 0  0.25 0 0  0 0.25 0  -1 -0.75 0  -0.25 0 0  -0.5 -0.25 0  -0.75 -0.5 0  -0.9999999999999999 -1 0  0 0 0  -0.75 -0.75 0  -0.25 -0.25 0  -0.5 -0.5 0  -0.7499999999999999 -1 0  0 -0.25 0  -0.5 -0.75 0  -0.25 -0.5 0  -0.4999999999999999 -0.9999999999999999 0  0 -0.5 0  -0.25 -0.75 0  -0.2499999999999999 -0.9999999999999999 0  0 -0.75 0  0 -0.9999999999999999 0  0.375 0.125 0  0.125 0.375 0  -0.125 0.375 0  -0.375 0.125 0  -0.125 0.25 0  -0.25 0.125 0  0.25 0.125 0  0.125 0.25 0  0.125 0.125 0  0.125 0 0  -0.125 0.125 0  0 0.125 0  -0.375 -0.125 0  -0.125 0 0  -0.25 -0.125 0  -0.125 -0.125 0  -0.125 -0.375 0  -0.375 -0.625 0  -0.125 -0.5 0  -0.25 -0.625 0  -0.3749999999999999 -0.875 0  -0.125 -0.625 0  0 -0.625 0  -0.2499999999999999 -0.875 0  -0.125 -0.75 0  -0.1249999999999999 -0.875 0  -0.1249999999999999 -0.9999999999999999 0  0 -0.875 0  </DataArray>
</Points>
<Cells>
<DataArray  type="UInt32"  Name="connectivity"  format="ascii">0 1 2  2 4 5  1 3 4  1 2 4  9 21 22  8 20 21  5 8 9  8 9 21  6 18 19  3 6 7  7 19 20  6 7 19  4 5 8  7 8 20  3 4 7  4 7 8  51 75 78  47 75 78  51 75 76  45 75 76  45 67 69  39 67 69  38 45 67  40 47 68  47 68 70  39 68 70  39 70 75  47 70 75  39 69 75  45 69 75  18 19 29  19 20 30  29 30 38  19 29 30  21 22 32  31 32 40  20 21 31  21 31 32  30 39 67  30 38 67  20 30 31  31 40 68  31 39 68  30 31 39  22 32 33  33 41 42  32 40 41  32 33 41  46 50 52  49 52 54  42 46 49  46 49 52  47 79 80  53 79 80  47 78 80  51 78 80  40 48 77  40 47 77  48 53 54  48 53 77  53 77 79  47 77 79  41 42 49  48 49 54  40 41 48  41 48 49  64 90 92  63 90 92  64 90 91  62 90 91  63 86 89  61 86 89  63 86 87  60 86 87  62 85 88  61 85 88  59 62 85  61 89 90  63 89 90  61 88 90  62 88 90  53 56 80  51 56 80  53 54 58  60 81 83  58 81 83  56 60 81  53 58 81  53 56 81  50 52 55  55 57 59  52 54 57  52 55 57  58 84 86  61 84 86  58 83 86  60 83 86  54 58 82  54 57 82  57 61 85  57 59 85  61 82 84  58 82 84  57 61 82  17 18 29  28 29 38  16 17 28  17 28 29  45 72 73  43 72 73  45 73 76  51 73 76  34 37 43  37 38 66  38 45 66  37 43 66  43 66 72  45 66 72  10 15 23  15 16 27  23 27 34  15 23 27  28 37 38  27 34 37  16 27 28  27 28 37  11 12 24  12 13 25  24 25 35  12 24 25  10 14 23  23 26 34  13 14 26  14 23 26  44 71 73  43 71 73  44 73 74  51 73 74  35 44 65  35 36 65  34 36 43  36 43 65  43 65 71  44 65 71  13 25 26  26 34 36  25 35 36  25 26 36  </DataArray>
<DataArray  type="UInt32"  Name="offsets"  format="ascii">3 6 9 12 15 18 21 24 27 30 33 36 39 42 45 48 51 54 57 60 63 66 69 72 75 78 81 84 87 90 93 96 99 102 105 108 111 114 117 120 123 126 129 132 135 138 141 144 147 150 153 156 159 162 165 168 171 174 177 180 183 186 189 192 195 198 201 204 207 210 213 216 219 222 225 228 231 234 237 240 243 246 249 252 255 258 261 264 267 270 273 276 279 282 285 288 291 294 297 300 303 306 309 312 315 318 321 324 327 330 333 336 339 342 345 348 351 354 357 360 363 366 369 372 375 378 381 384 387 390 393 396 399 402 405 408 411 414 417 420 423 426 429 432 435 438 441 444 </DataArray>
<DataArray  type="UInt8"  Name="types"  format="ascii">5 5 5 5 5 5 5 5 5 5 5 5 5 5 5 5 5 5 5 5 5 5 5 5 5 5 5 5 5 5 5 5 5 5 5 5 5 5 5 5 5 5 5 5 5 5 5 5 5 5 5 5 5 5 5 5 5 5 5 5 5 5 5 5 5 5 5 5 5 5 5 5 5 5 5 5 5 5 5 5 5 5 5 5 5 5 5 5 5 5 5 5 5 5 5 5 5 5 5 5 5 5 5 5 5 5 5 5 5 5 5 5 5 5 5 5 5 5 5 5 5 5 5 5 5 5 5 5 5 5 5 5 5 5 5 5 5 5 5 5 5 5 5 5 5 5 5 5 </DataArray>
</Cells>
<CellData  Scalars="w"> 
<DataArray  type="Float64"  Name="w"  format="ascii">1.7518243047571426e-05   3.5582332432534475e-05   3.5632618845676134e-05   3.5663458082220567e-05   5.1638049327264830e-05   1.0355826146212250e-04   4.9345342353192923e-05   6.6832254847792242e-05   5.2036559371705925e-05   4.9541517552433052e-05   1.0369552788790329e-04   6.7171789597259210e-05   5.5072250085674002e-05   1.0207388924774594e-04   5.5186511310871399e-05   6.5429354988824699e-05   8.2656419973457552e-03   4.7297680735441472e-04   8.3228565932938828e-03   4.9733244433647524e-04   9.2219105232266524e-06   2.2721566377157181e-05   5.2486416167802001e-05   5.3687494723075700e-05   9.3101127966511670e-06   2.2812609204193691e-05   2.0720491824673955e-05   3.5953848432274333e-05   2.0764840272760887e-05   3.5138051071376242e-05   5.5775075089630776e-05   1.6832065587405292e-04   1.3505483237056436e-04   1.1549668671527729e-04   5.5286814891633500e-05   1.3489025603734294e-04   1.6814028017535820e-04   1.1525857641734159e-04   5.9575465374282707e-05   4.5554750987220000e-05   1.8079352822715595e-04   4.6195396844404798e-05   5.9895303218768434e-05   1.6868311073221049e-04   4.0214988990789435e-05   2.4777721242470190e-05   1.0095892282700601e-04   4.2956933660645447e-05   8.3096011507336586e-06   4.5753927848077308e-05   1.3213932661355671e-05   3.2208522214481849e-05   1.8896825517862364e-05   1.9036079905597918e-05   7.4117618051049866e-04   5.3169080918773750e-03   5.1762467193325459e-05   4.2847509731534954e-05   1.4612247505988956e-04   4.3161631639900935e-05   2.1909804022602596e-05   2.3493878851264224e-05   3.8939899438559339e-05   9.5465188601167244e-05   1.0329456564997578e-04   8.0104546185651249e-05   5.4906013865772965e-07   8.2381068413254187e-07   5.5656897361859895e-07   5.2440597841573763e-07   1.2584160211529209e-06   1.0654193096244450e-06   1.2196476714300350e-06   2.1423378724624050e-06   1.3750197871879323e-06   7.0474347747511291e-07   2.7320521743607844e-06   8.2157634513747478e-07   8.5563344868166819e-07   8.7754824988334617e-07   5.9655337193934575e-07   6.4329772820443157e-04   3.6287229002609630e-03   9.0015480772590126e-05   8.5693944284843861e-06   1.3084735980789537e-05   2.9090399557896644e-05   8.8614498421371845e-05   7.9546161112182054e-05   2.3554609025384410e-05   1.8021360652119598e-05   2.9978625536307147e-05   3.1421023962994494e-05   1.8882206559790433e-06   1.2952691976859572e-06   1.9137224493438259e-06   2.4160928513465839e-06   1.2709371898822788e-05   2.3813771465171392e-05   3.8654768267140319e-06   1.0050755456869757e-05   2.9447499843031433e-06   1.5792461123939203e-06   7.4700006877186051e-06   4.0673294660400173e-05   1.0116766142004329e-04   2.5108785405122989e-05   4.3185031070726735e-05   1.6932441801052624e-05   2.0413481136058304e-05   8.2504485240549031e-04   3.6940892225446548e-03   1.4968716096056656e-04   5.0851775384642904e-05   4.2048597058886951e-05   4.2860095226364228e-05   1.9887106524409019e-05   2.2113052477514491e-05   8.2198838030641844e-06   1.3714120185486888e-05   5.0464905523711024e-05   3.3739273858982471e-05   1.0398122515705975e-04   9.3726166422372767e-05   3.9258883026701702e-05   8.0895413593668093e-05   3.6042295204920389e-05   5.0443969118987348e-05   9.2124143350385396e-05   6.9895570884257355e-05   2.3590550368025560e-05   6.6625166398923808e-05   3.7390920542668418e-05   3.1386100032060821e-05   3.3999344816123385e-05   9.6251247697441870e-06   1.8430942900377523e-04   1.4395214596613086e-03   4.2424888738829064e-05   3.7879034315633798e-05   8.9324624356815788e-05   7.2525000196895168e-05   9.2690707266436703e-06   2.3375503435377705e-05   5.3396525734655220e-05   1.0289317918498179e-04   1.3696045585285562e-04   1.0129114280969032e-04   </DataArray> 
</CellData> 
</Piece>
</UnstructuredGrid>
</VTKFile>