<?xml version="1.0"?>
<VTKFile type="UnstructuredGrid"  version="0.1"  >
<UnstructuredGrid>
<Piece  NumberOfPoints="242" NumberOfCells="432">
<Points>
<DataArray  type="Float64"  NumberOfComponents="3"  format="ascii">-1 1 0  -0.75 1 0  -1 0.75 0  -0.5 1 0  -0.75 0.75 0  -1 0.5 0  -0.25 1 0  -0.5 0.75 0  -0.75 0.5 0  -1 0.25 0  1 1 0  1 1.110223024625157e-16 0  1 0.2500000000000001 0  1 0.5 0  1 0.75 0  0.75 1 0  0.5 1 0  0.25 1 0  0 1 0  -0.25 0.75 0  -0.5 0.5 0  -0.75 0.25 0  -1 0 0  0.75 0.75 0  0.75 0 0  0.75 0.25 0  0.75 0.5 0  0.5 0.75 0  0.25 0.75 0  0 0.75 0  -0.25 0.5 0  -0.5 0.25 0  -0.75 0 0  -1 -0.2500000000000001 0  0.5 0.5 0  0.5 0 0  0.5 0.25 0  0.25 0.5 0  0 0.5 0  -0.25 0.25 0  -0.5 0 0  -0.75 -0.2500000000000001 0  -1 -0.5 0  0.25 0.25 0  0.25 0 0  0 0.25 0  -1 -0.75 0  -0.25 0 0  -0.5 -0.25 0  -0.75 -0.5 0  -0.9999999999999999 -1 0  0 0 0  -0.75 -0.75 0  -0.25 -0.25 0  -0.5 -0.5 0  -0.7499999999999999 -1 0  0 -0.25 0  -0.5 -0.75 0  -0.25 -0.5 0  -0.4999999999999999 -0.9999999999999999 0  0 -0.5 0  -0.25 -0.75 0  -0.2499999999999999 -0.9999999999999999 0  0 -0.75 0  0 -0.9999999999999999 0  0.375 0.125 0  0.125 0.375 0  -0.125 0.375 0  -0.375 0.125 0  -0.125 0.25 0  -0.25 0.125 0  0.25 0.125 0  0.125 0.25 0  0.125 0.125 0  0.125 0 0  -0.125 0.125 0  0 0.125 0  -0.375 -0.125 0  -0.125 0 0  -0.25 -0.125 0  -0.125 -0.125 0  -0.125 -0.375 0  -0.375 -0.625 0  -0.125 -0.5 0  -0.25 -0.625 0  -0.3749999999999999 -0.875 0  -0.125 -0.625 0  0 -0.625 0  -0.2499999999999999 -0.875 0  -0.125 -0.75 0  -0.1249999999999999 -0.875 0  -0.1249999999999999 -0.9999999999999999 0  0 -0.875 0  -0.375 0.625 0  -0.625 0.375 0  -0.375 0.5 0  -0.5 0.375 0  -0.375 0.375 0  -0.25 0.375 0  -0.375 0.25 0  0.1875 0.0625 0  0.1875 0 0  0.0625 0.1875 0  -0.0625 0.1875 0  0 0.1875 0  -0.1875 0.0625 0  -0.1875 0 0  -0.1875 -0.0625 0  0 -0.125 0  0.0625 0.0625 0  0.0625 0 0  -0.0625 0.0625 0  0 0.0625 0  -0.0625 0 0  -0.0625 -0.0625 0  -0.125 -0.25 0  -0.1875 -0.1875 0  -0.0625 -0.1875 0  0.125 0.0625 0  0.0625 0.125 0  -0.0625 0.125 0  -0.125 0.0625 0  -0.125 -0.0625 0  0.875 0.375 0  0.125 0.875 0  0.625 0.625 0  0.75 0.375 0  0.625 0.125 0  0.625 0.25 0  0.625 0.5 0  0.625 0.375 0  0.375 0.625 0  0.125 0.75 0  0.25 0.625 0  0.125 0.625 0  -0.125 0.625 0  0 0.625 0  -0.125 0.5 0  -0.625 0.125 0  -0.5 0.125 0  -0.625 0 0  0.5 0.375 0  0.375 0.5 0  0.375 0.375 0  0.5 0.125 0  0.125 0.5 0  0.25 0.375 0  -0.625 -0.125 0  -0.5 -0.125 0  -0.625 -0.25 0  -0.625 -0.375 0  -0.375 -0.25 0  -0.5 -0.375 0  0 -0.0625 0  0.03125 0.03125 0  0.03125 0 0  -0.03125 0.03125 0  0 0.03125 0  -0.03125 0 0  -0.03125 -0.03125 0  -0.375 -0.375 0  0.09375 0.03125 0  0.03125 0.09375 0  -0.03125 0.09375 0  0 0.09375 0  -0.09375 0.03125 0  -0.09375 0 0  -0.09375 -0.03125 0  -0.03125 -0.09375 0  0.0625 0.03125 0  0.03125 0.0625 0  -0.03125 0.0625 0  -0.0625 0.03125 0  -0.0625 -0.03125 0  -0.0625 -0.125 0  -0.875 0.875 0  -0.625 1 0  -0.75 0.875 0  -0.875 0.75 0  -1 0.625 0  -0.625 0.875 0  -0.375 1 0  -0.5 0.875 0  -0.875 0.625 0  -0.625 0.75 0  -0.75 0.625 0  -0.875 0.5 0  -1 0.375 0  -0.375 0.875 0  -0.125 1 0  -0.25 0.875 0  -0.625 0.625 0  -0.375 0.75 0  -0.5 0.625 0  -0.875 0.375 0  -0.625 0.5 0  -0.75 0.375 0  -0.875 0.25 0  -1 0.125 0  0.875 0.1250000000000001 0  0.875 0.2500000000000001 0  -0.125 0.875 0  -0.875 0.125 0  -0.75 0.125 0  -0.875 0 0  -1 -0.125 0  0.75 0.125 0  -0.875 -0.125 0  -0.75 -0.125 0  -0.875 -0.2500000000000001 0  0 0.375 0  -0.0625 0.4375 0  -0.375 0 0  -0.4375 0.0625 0  -0.875 -0.375 0  -0.0625 0.3125 0  -0.875 -0.625 0  -0.3125 0.0625 0  -0.75 -0.625 0  -0.625 -0.5 0  0 -0.03125 0  0.015625 0.015625 0  0.015625 0 0  -0.015625 0.015625 0  0 0.015625 0  -0.015625 0 0  -0.015625 -0.015625 0  -0.625 -0.625 0  0.046875 0.015625 0  0.015625 0.046875 0  -0.015625 0.046875 0  0 0.046875 0  -0.046875 0.015625 0  -0.046875 0 0  -0.046875 -0.015625 0  -0.015625 -0.046875 0  0.03125 0.015625 0  0.015625 0.03125 0  -0.015625 0.03125 0  -0.03125 0.015625 0  -0.03125 -0.015625 0  -0.03125 -0.0625 0  </DataArray>
</Points>
<Cells>
<DataArray  type="UInt32"  Name="connectivity"  format="ascii">0 2 175  0 1 175  2 179 183  5 179 183  2 178 183  4 178 183  1 177 180  4 177 180  1 176 180  3 176 180  4 175 178  2 175 178  4 175 177  1 175 177  9 198 202  22 198 202  9 197 202  21 197 202  21 94 196  8 94 196  20 94 195  8 94 195  5 187 194  9 187 194  5 186 194  8 186 194  21 194 197  9 194 197  21 194 196  8 194 196  6 190 201  19 190 201  6 189 201  18 189 201  3 182 188  7 182 188  3 181 188  6 181 188  20 93 193  7 93 193  19 93 192  7 93 192  19 188 192  7 188 192  19 188 190  6 188 190  8 183 186  5 183 186  8 183 185  4 183 185  20 191 195  8 191 195  20 191 193  7 191 193  7 180 184  4 180 184  7 180 182  3 180 182  4 185 191  8 185 191  4 184 191  7 184 191  111 121 165  78 121 165  75 111 121  113 165 172  111 165 172  113 165 166  78 165 166  156 172 232  113 172 232  111 156 172  158 232 239  156 232 239  158 232 233  113 232 233  158 223 239  156 223 239  158 223 225  51 223 225  78 105 121  75 105 121  78 105 106  47 105 106  111 120 163  76 120 163  75 111 120  112 163 171  111 163 171  112 163 164  76 163 164  156 171 230  112 171 230  111 156 171  157 230 238  156 230 238  157 230 231  112 230 231  157 223 238  156 223 238  157 223 224  51 223 224  76 103 120  75 103 120  76 103 104  45 103 104  67 69 215  45 69 215  39 67 69  67 211 215  38 210 211  45 210 215  210 211 215  68 213 217  40 212 213  47 212 217  212 213 217  68 70 217  47 70 217  39 68 70  39 70 75  47 70 105  70 75 105  39 69 75  45 69 103  69 75 103  19 29 201  18 29 201  30 93 95  20 93 95  19 30 93  38 135 137  30 135 137  38 135 136  29 135 136  19 30 135  19 29 135  32 202 204  22 202 204  32 202 203  21 202 203  40 138 140  32 138 140  40 138 139  31 138 139  21 31 94  31 94 96  20 94 96  32 138 203  21 138 203  21 31 138  39 67 98  30 67 98  67 137 211  38 137 211  30 67 137  20 96 97  31 96 97  20 95 97  30 95 97  68 139 213  40 139 213  31 68 139  39 68 99  31 68 99  39 97 99  31 97 99  39 97 98  30 97 98  22 205 207  33 205 207  22 204 207  32 204 207  33 42 214  33 209 214  41 209 214  41 147 208  32 147 208  32 140 147  40 140 147  41 207 209  33 207 209  41 207 208  32 207 208  46 50 52  49 219 227  54 219 227  49 218 227  52 218 227  42 49 216  42 46 216  52 216 218  49 216 218  46 52 216  47 79 107  79 80 107  53 79 116  79 80 116  78 106 107  47 106 107  78 107 122  80 107 122  113 166 167  78 166 167  113 167 173  114 167 173  158 233 234  113 233 234  158 234 240  159 234 240  158 225 226  51 225 226  158 226 240  159 226 240  159 173 234  113 173 234  114 159 173  114 122 167  78 122 167  80 114 122  48 77 148  40 77 148  47 77 212  40 77 212  48 152 160  54 152 160  48 151 160  53 151 160  53 77 151  48 77 151  53 77 79  47 77 79  42 49 214  41 49 214  54 150 219  49 150 219  54 150 152  48 150 152  48 147 149  41 147 149  48 147 148  40 147 148  41 49 150  41 149 150  48 149 150  64 90 92  63 90 92  64 90 91  62 90 91  63 86 89  61 86 89  63 86 87  60 86 87  62 85 88  61 85 88  59 62 85  61 89 90  63 89 90  61 88 90  62 88 90  80 116 117  53 115 116  56 115 117  115 116 117  80 117 174  80 114 174  114 168 241  114 159 241  159 226 235  51 220 226  153 220 235  220 226 235  108 153 168  153 168 241  153 235 241  159 235 241  56 108 117  108 117 174  108 168 174  114 168 174  54 58 160  53 58 160  60 81 83  58 81 83  56 60 81  53 58 81  56 81 115  53 81 115  50 52 55  55 57 59  54 57 227  52 57 227  52 55 57  58 84 86  61 84 86  58 83 86  60 83 86  54 58 82  54 57 82  57 61 85  57 59 85  61 82 84  58 82 84  57 61 82  17 18 124  18 29 124  29 132 134  28 132 134  29 134 136  38 134 136  16 17 28  17 28 124  28 124 132  29 124 132  45 72 102  72 73 102  43 72 73  76 102 119  73 102 119  76 102 104  45 102 104  109 119 162  76 119 162  73 109 119  112 162 170  109 162 170  112 162 164  76 162 164  154 170 229  112 170 229  109 154 170  157 229 237  154 229 237  157 229 231  112 229 231  157 221 237  154 221 237  157 221 224  51 221 224  37 142 143  34 142 143  37 143 146  43 143 146  38 66 145  37 66 145  45 66 210  38 66 210  43 66 146  37 66 146  43 66 72  45 66 72  10 15 23  15 16 27  23 27 125  27 34 125  15 23 27  37 133 134  28 133 134  37 134 145  38 134 145  27 34 131  34 131 142  37 131 142  16 27 28  27 28 131  28 131 133  37 131 133  11 24 199  11 12 199  25 123 200  12 123 200  12 13 123  24 35 127  25 127 206  24 127 206  25 199 206  24 199 206  25 199 200  12 199 200  10 14 23  23 26 125  26 125 129  34 125 129  13 14 26  14 23 26  44 71 100  71 73 100  43 71 73  74 100 118  73 100 118  74 100 101  44 100 101  109 118 161  74 118 161  73 109 118  110 161 169  109 161 169  74 110 161  154 169 228  110 169 228  109 154 169  155 228 236  154 228 236  110 155 228  155 221 236  154 221 236  155 221 222  51 221 222  35 44 65  36 65 144  35 65 144  36 141 143  34 141 143  36 43 143  36 43 65  43 65 71  44 65 71  26 123 126  25 123 126  13 26 123  34 129 130  26 129 130  34 130 141  36 130 141  36 127 144  35 127 144  36 127 128  25 127 128  25 128 130  36 128 130  25 126 130  26 126 130  </DataArray>
<DataArray  type="UInt32"  Name="offsets"  format="ascii">3 6 9 12 15 18 21 24 27 30 33 36 39 42 45 48 51 54 57 60 63 66 69 72 75 78 81 84 87 90 93 96 99 102 105 108 111 114 117 120 123 126 129 132 135 138 141 144 147 150 153 156 159 162 165 168 171 174 177 180 183 186 189 192 195 198 201 204 207 210 213 216 219 222 225 228 231 234 237 240 243 246 249 252 255 258 261 264 267 270 273 276 279 282 285 288 291 294 297 300 303 306 309 312 315 318 321 324 327 330 333 336 339 342 345 348 351 354 357 360 363 366 369 372 375 378 381 384 387 390 393 396 399 402 405 408 411 414 417 420 423 426 429 432 435 438 441 444 447 450 453 456 459 462 465 468 471 474 477 480 483 486 489 492 495 498 501 504 507 510 513 516 519 522 525 528 531 534 537 540 543 546 549 552 555 558 561 564 567 570 573 576 579 582 585 588 591 594 597 600 603 606 609 612 615 618 621 624 627 630 633 636 639 642 645 648 651 654 657 660 663 666 669 672 675 678 681 684 687 690 693 696 699 702 705 708 711 714 717 720 723 726 729 732 735 738 741 744 747 750 753 756 759 762 765 768 771 774 777 780 783 786 789 792 795 798 801 804 807 810 813 816 819 822 825 828 831 834 837 840 843 846 849 852 855 858 861 864 867 870 873 876 879 882 885 888 891 894 897 900 903 906 909 912 915 918 921 924 927 930 933 936 939 942 945 948 951 954 957 960 963 966 969 972 975 978 981 984 987 990 993 996 999 1002 1005 1008 1011 1014 1017 1020 1023 1026 1029 1032 1035 1038 1041 1044 1047 1050 1053 1056 1059 1062 1065 1068 1071 1074 1077 1080 1083 1086 1089 1092 1095 1098 1101 1104 1107 1110 1113 1116 1119 1122 1125 1128 1131 1134 1137 1140 1143 1146 1149 1152 1155 1158 1161 1164 1167 1170 1173 1176 1179 1182 1185 1188 1191 1194 1197 1200 1203 1206 1209 1212 1215 1218 1221 1224 1227 1230 1233 1236 1239 1242 1245 1248 1251 1254 1257 1260 1263 1266 1269 1272 1275 1278 1281 1284 1287 1290 1293 1296 </DataArray>
<DataArray  type="UInt8"  Name="types"  format="ascii">5 5 5 5 5 5 5 5 5 5 5 5 5 5 5 5 5 5 5 5 5 5 5 5 5 5 5 5 5 5 5 5 5 5 5 5 5 5 5 5 5 5 5 5 5 5 5 5 5 5 5 5 5 5 5 5 5 5 5 5 5 5 5 5 5 5 5 5 5 5 5 5 5 5 5 5 5 5 5 5 5 5 5 5 5 5 5 5 5 5 5 5 5 5 5 5 5 5 5 5 5 5 5 5 5 5 5 5 5 5 5 5 5 5 5 5 5 5 5 5 5 5 5 5 5 5 5 5 5 5 5 5 5 5 5 5 5 5 5 5 5 5 5 5 5 5 5 5 5 5 5 5 5 5 5 5 5 5 5 5 5 5 5 5 5 5 5 5 5 5 5 5 5 5 5 5 5 5 5 5 5 5 5 5 5 5 5 5 5 5 5 5 5 5 5 5 5 5 5 5 5 5 5 5 5 5 5 5 5 5 5 5 5 5 5 5 5 5 5 5 5 5 5 5 5 5 5 5 5 5 5 5 5 5 5 5 5 5 5 5 5 5 5 5 5 5 5 5 5 5 5 5 5 5 5 5 5 5 5 5 5 5 5 5 5 5 5 5 5 5 5 5 5 5 5 5 5 5 5 5 5 5 5 5 5 5 5 5 5 5 5 5 5 5 5 5 5 5 5 5 5 5 5 5 5 5 5 5 5 5 5 5 5 5 5 5 5 5 5 5 5 5 5 5 5 5 5 5 5 5 5 5 5 5 5 5 5 5 5 5 5 5 5 5 5 5 5 5 5 5 5 5 5 5 5 5 5 5 5 5 5 5 5 5 5 5 5 5 5 5 5 5 5 5 5 5 5 5 5 5 5 5 5 5 5 5 5 5 5 5 5 5 5 5 5 5 5 5 5 5 5 5 5 5 5 5 5 5 5 5 5 5 5 5 5 5 5 5 5 5 5 5 5 5 5 5 5 5 5 5 5 5 </DataArray>
</Cells>
<CellData  Scalars="w"> 
<DataArray  type="Float64"  Name="w"  format="ascii">1.5394288670992772e-06   1.5411659239251824e-06   3.5423135992770365e-07   3.7754360529817913e-07   3.4605918354043541e-07   4.5363223955989613e-07   3.4855000172873853e-07   4.5525534208811324e-07   3.5686835831764187e-07   3.8358188870268198e-07   3.6801579304655819e-07   5.6308249435808263e-07   3.6782065637894069e-07   5.6462648657584201e-07   4.5637826832843658e-07   3.4950605115964827e-07   5.1674032203125256e-07   7.2838887339388923e-07   3.1609066811493095e-06   1.0388537202154940e-06   1.1768281670016057e-06   9.1302996028034867e-07   4.3718412989916729e-07   4.0909694909001597e-07   4.3067478776848470e-07   6.0871492533342131e-07   7.4310074661467432e-07   5.5296954025410298e-07   6.8775663206221915e-07   6.9664978350981631e-07   5.3072609544509110e-07   4.9990989681535802e-07   4.3267660874792470e-07   1.4155032737850066e-06   4.4020137142907283e-07   6.1736199437099365e-07   4.4844609521959715e-07   4.2099306571766853e-07   1.1611293821466706e-06   8.9981806801149715e-07   3.0093935333421307e-06   1.0132033819748496e-06   7.1772054416204409e-07   6.9184120321441067e-07   8.3033620869819980e-07   5.8766835834943708e-07   5.8103939726152164e-07   4.1718959681233235e-07   5.3780883717704994e-07   4.5750286038565771e-07   9.6955043446582046e-07   7.4662970263389949e-07   9.6903803200322641e-07   7.4456009776465129e-07   5.4158018485513189e-07   4.5864908262783263e-07   5.8355712969776640e-07   4.2148352947592889e-07   5.8742709384943831e-07   7.4000055429434650e-07   5.8679945894775849e-07   7.3800860752546944e-07   3.8209874675425893e-07   5.2290203079366146e-07   1.2653314814835647e-06   9.7714704570655821e-08   2.4815777091126709e-07   9.7345881729421783e-08   7.1709113617016449e-08   3.7542859395781484e-08   5.2481844859965621e-08   1.2652904649532696e-07   8.7704088226358948e-09   2.4054534817366710e-08   1.1751899606239128e-08   7.8933236426651096e-09   3.2430820547347975e-08   1.9755941291065802e-08   2.3873138179241507e-05   4.9032685500109436e-04   9.8162029216138198e-07   2.4571523806660322e-06   9.8112432581781736e-07   7.0791731435027772e-07   3.8186705471826962e-07   5.2412637985414799e-07   1.2657342667692482e-06   9.7692883839363540e-08   2.4825141293206680e-07   9.7639041827595587e-08   7.1900957565193910e-08   3.7275372273831770e-08   5.2235284458238189e-08   1.2654359372634391e-07   8.6760423015817113e-09   2.3988706222782694e-08   1.1477978646779868e-08   7.7605313360619979e-09   3.1728448426097484e-08   1.9825003924659809e-08   2.5313076069300432e-05   4.9350410633035161e-04   9.7999496071793059e-07   2.4537827026477674e-06   9.7795344846207077e-07   7.0141705430310079e-07   2.6812272187136686e-06   1.5637007900505336e-06   9.4354601000973751e-06   1.0845144140197599e-06   7.9757709554575023e-07   4.2381626758156120e-06   1.2866905153106634e-06   1.0860824749864093e-06   7.9066777665379604e-07   4.2053970602648709e-06   1.2810772361021714e-06   2.6893264710591540e-06   1.5687528837088014e-06   9.4369802106522251e-06   1.4721587691340671e-05   2.5151168062742888e-06   3.8558377429725754e-06   1.4717351398709171e-05   2.4922591554568870e-06   3.8417761518278356e-06   5.7619006039825129e-06   5.8468248683071075e-06   2.2262391359516417e-06   1.2304482425160618e-06   7.4762141504528047e-06   2.3550459353731491e-06   6.4588234779382934e-06   1.9517024489926831e-06   1.5038578335624247e-06   1.0894510323719793e-05   7.8219321697304403e-06   7.9352394086397522e-07   6.6220152632452015e-07   9.1233558648833615e-07   1.1297091351142179e-06   1.9088796649362678e-06   1.5112862379504241e-06   2.5014353494596116e-06   6.0339793845856961e-06   7.2434102438040121e-06   2.3065560074354319e-06   1.2396845798324632e-06   1.0665965803218479e-06   1.6053894301028593e-06   7.6740328538118067e-06   6.8535835423424179e-06   3.1329037921206818e-06   8.5584727102832328e-07   1.1543541392109653e-06   3.4751071585845564e-06   1.9347457696826457e-06   2.8422912907358978e-06   1.9398986723773812e-06   2.8652506859029596e-06   8.6616447250224516e-07   1.1844857137145921e-06   3.4543593063381096e-06   6.8400279254542199e-06   3.0928733776431525e-06   4.8444446430826467e-06   2.9607912028064636e-06   4.8450928910053602e-06   2.9778201709997524e-06   3.1798518075251147e-07   2.3166350078717285e-07   5.7779229611757326e-07   6.2877208948729582e-07   2.3232246223247962e-07   8.9100246001415577e-07   1.0053479681884583e-06   8.7192968773125993e-07   1.0526986418382223e-06   1.3299778905833995e-06   1.5530551983559545e-06   7.1257308078750975e-07   6.5477798050189817e-07   8.6597352885168142e-07   9.6307856771721245e-07   6.5251597510911374e-06   9.0887944896647040e-07   2.3273849783069083e-06   5.8909611492403935e-07   4.9810045761207925e-07   3.6625182199097170e-06   4.2818692711642287e-07   1.0098443542133399e-06   5.1224619956889605e-07   3.5236719645053612e-06   4.4829628027942836e-06   3.1285408516692592e-06   2.9378403964480945e-06   3.0081584357993932e-06   6.4934899242114661e-07   1.1383748842561950e-06   1.0782882315847713e-06   1.6711899681059770e-06   6.3456419528978793e-08   1.0649796120422160e-07   1.1092916945747676e-07   1.8137402387064624e-07   6.8006704462617218e-09   1.1066222033800738e-08   1.5664067384490650e-08   2.0666797010969117e-08   4.1440670096949049e-05   3.2170620073553182e-04   1.6517037297444391e-08   3.3852432810868826e-08   4.3976348330897677e-08   4.6359072002935388e-08   1.3012036125671143e-07   4.4864819473084506e-07   4.4083045973874665e-07   1.3806964432430810e-06   2.7933620106787379e-06   3.2380266215701591e-06   6.1946578527978527e-06   3.8472050515112903e-06   1.7628581736515793e-06   1.5503840859912238e-06   3.9388591342524148e-06   1.0660852326422390e-05   4.2585798007601873e-06   3.8291814879105494e-06   7.8695013562932937e-06   9.6574804061823092e-06   3.6792589246632731e-06   5.1085255127165370e-06   1.0695864711781182e-06   1.4800348478887782e-06   1.6008233100049133e-06   1.4367116229962545e-06   1.5441069115726200e-06   1.5267509665086570e-06   2.6449155830954290e-06   2.9822556638188441e-06   5.5696713314032424e-06   1.6808681235603472e-06   1.5610782143252813e-06   5.7382466036743654e-07   8.5964811572170038e-07   5.8141756602239792e-07   5.4731967009462240e-07   1.3271312993069441e-06   1.1267964982511287e-06   1.2846645250532694e-06   2.2594645105763821e-06   1.4229986546499281e-06   7.2204465664168445e-07   2.8771853980948117e-06   8.4799111411965444e-07   8.9443324610687922e-07   8.9958516938095796e-07   6.1879022027879147e-07   3.3493788745960222e-06   5.9432378613093247e-06   2.3765831638659966e-06   3.4235004648739821e-06   2.2948122802480774e-06   1.2276896764426420e-06   1.1354007310696054e-07   1.2549748164021903e-07   5.6263824222780998e-08   1.9592098818579074e-04   8.5444622629752347e-08   1.1529985476122460e-05   3.8848412259106247e-07   1.8560839521101330e-07   3.9620534507489373e-08   7.7301574276232310e-08   3.9330650006667240e-06   1.9357988418039995e-06   3.6849812688627591e-07   7.3896912992183122e-07   1.1461472554216499e-05   2.2478058811190182e-05   9.6487757353103804e-06   1.0391551470319113e-05   2.6741307053192571e-05   2.6468036854564720e-05   1.9252705423401453e-05   1.0204492432954903e-05   2.0865867488039858e-05   1.6582335035842688e-05   7.4336483100823312e-06   3.9381533994227989e-06   2.9057488370205600e-05   2.0547275651351135e-06   1.4101631823847742e-06   2.0192979293416947e-06   2.5963739320995405e-06   1.0449718450312329e-05   9.6362916598246966e-06   3.8027519646007489e-06   1.0538212759387229e-05   2.8139999704212352e-06   1.2457850484989407e-06   6.7126047531710453e-06   6.7679449114030238e-07   4.8137134316492561e-06   1.1735242035409814e-06   1.0065966723603331e-06   1.4762570466505933e-06   1.6350087708054875e-06   9.8090190293165531e-06   9.7380523615660165e-06   1.0064547847353907e-06   1.7643266086377639e-06   4.1197040555682428e-06   4.3728707838471952e-06   1.3334966151536699e-05   1.1135081814751071e-06   1.8414335301170199e-06   6.4470983240691636e-07   1.0946688933495675e-06   4.5710610311912067e-07   4.5404201187463923e-07   1.4010974623803899e-06   1.1171920744508252e-07   1.8395504170331350e-07   6.4007338830400443e-08   1.0778869100439266e-07   4.5278932090638193e-08   4.6084548143678222e-08   1.3744016652047240e-07   1.4757325803963835e-08   1.9291476439261605e-08   6.6555262036263893e-09   1.1015981274965571e-08   1.5349417777883134e-08   1.8873562424837289e-08   4.6070762851881386e-05   2.1968809893697805e-04   1.7757051095809232e-06   1.7048350157588270e-06   4.1043764496222072e-06   9.7640343564265274e-06   3.2801416643778983e-06   2.8448096485130094e-06   6.3278700554159647e-06   3.8836862447266647e-06   4.3546028498678880e-06   3.9022283588817404e-06   1.2077452777666219e-05   9.9336595656585809e-06   8.9470011699427955e-06   1.2747922354189616e-05   1.1539019779304379e-05   5.6686267223857045e-06   1.6539377860891609e-05   1.4519679147543187e-06   1.4339719140682572e-06   2.6824902365788529e-06   3.0143194480344602e-06   6.8885996945405819e-06   2.8580686023442249e-06   1.4843456319399168e-06   2.3774797193141361e-05   1.4010056347907746e-05   1.7005454470302811e-06   1.4921577817025267e-06   4.1765193019841271e-06   3.3487779493032526e-06   6.3239276886509804e-07   1.5864725767597479e-06   2.8733480109865028e-06   7.6039886932300431e-06   1.1330938023885962e-06   2.8249635779179664e-06   7.7076802258825171e-07   1.8458637044206940e-06   8.0523042057289037e-07   1.0536659356566334e-06   2.0919554368718720e-05   5.1239858891457324e-06   2.1039437468201222e-06   7.7721847492701238e-07   1.5088051969682921e-05   2.6499339212297243e-05   3.0424044129608278e-06   7.6240402824628074e-06   1.3178531492172135e-05   9.0720410196176665e-07   1.1323754777232749e-06   7.8394263777514865e-07   1.4121802345715542e-06   7.2837407620746025e-07   3.6521070792269691e-07   1.2222137789686755e-06   1.8683526623725565e-07   1.0948455012177450e-07   3.8717878136527118e-07   6.8515620336237763e-08   3.6101920566563943e-08   1.1767719775416328e-07   2.2497006931835340e-08   8.9506839799611745e-09   4.0609402551911196e-08   3.2680428026782437e-08   9.2181154509698012e-09   8.9121237234163171e-06   8.4989824117455345e-05   2.6480086303367814e-05   1.0872910327616314e-05   9.6374225279796685e-06   1.9728847521684333e-06   1.4438308966347774e-06   1.7514595203520492e-05   2.7149409753884767e-05   1.1320681800097316e-05   1.8536145675687269e-05   7.6730050644335343e-07   8.0602673547359951e-07   8.9184963652209592e-06   1.2720079710865247e-06   1.1021256361666599e-06   1.5802546897903287e-06   2.2815758329200920e-06   1.9052661485678380e-06   5.1471166954126324e-06   1.8357188461802328e-06   1.3295536272276072e-06   1.0601689682960765e-06   1.4807260909336703e-06   1.0479259538808255e-06   7.2160384751451416e-07   </DataArray> 
</CellData> 
</Piece>
</UnstructuredGrid>
</VTKFile>