<?xml version="1.0"?>
<VTKFile type="UnstructuredGrid"  version="0.1"  >
<UnstructuredGrid>
<Piece  NumberOfPoints="89" NumberOfCells="142">
<Points>
<DataArray  type="Float64"  NumberOfComponents="3"  format="ascii">-1 1 0  -0.75 1 0  -1 0.75 0  -0.5 1 0  -0.75 0.75 0  -1 0.5 0  -0.25 1 0  -0.5 0.75 0  -0.75 0.5 0  -1 0.25 0  1 1 0  1 1.110223024625157e-16 0  1 0.2500000000000001 0  1 0.5 0  1 0.75 0  0.75 1 0  0.5 1 0  0.25 1 0  0 1 0  -0.25 0.75 0  -0.5 0.5 0  -0.75 0.25 0  -1 0 0  0.75 0.75 0  0.75 0 0  0.75 0.25 0  0.75 0.5 0  0.5 0.75 0  0.25 0.75 0  0 0.75 0  -0.25 0.5 0  -0.5 0.25 0  -0.75 0 0  -1 -0.2500000000000001 0  0.5 0.5 0  0.5 0 0  0.5 0.25 0  0.25 0.5 0  0 0.5 0  -0.25 0.25 0  -0.5 0 0  -0.75 -0.2500000000000001 0  -1 -0.5 0  0.25 0.25 0  0.25 0 0  0 0.25 0  -1 -0.75 0  -0.25 0 0  -0.5 -0.25 0  -0.75 -0.5 0  -0.9999999999999999 -1 0  0 0 0  -0.75 -0.75 0  -0.25 -0.25 0  -0.5 -0.5 0  -0.7499999999999999 -1 0  0 -0.25 0  -0.5 -0.75 0  -0.25 -0.5 0  -0.4999999999999999 -0.9999999999999999 0  0 -0.5 0  -0.25 -0.75 0  -0.2499999999999999 -0.9999999999999999 0  0 -0.75 0  0 -0.9999999999999999 0  0.375 0.375 0  0.375 0.25 0  0.375 0.125 0  0.25 0.375 0  0.125 0.375 0  -0.125 0.375 0  -0.375 0.125 0  -0.125 0.25 0  -0.25 0.125 0  0.25 0.125 0  0.125 0.25 0  0.125 0.125 0  0.125 0 0  -0.125 0.125 0  0 0.125 0  -0.375 -0.125 0  -0.125 0 0  -0.25 -0.125 0  -0.375 -0.25 0  -0.125 -0.125 0  0 -0.125 0  -0.375 -0.375 0  -0.125 -0.25 0  -0.125 -0.375 0  </DataArray>
</Points>
<Cells>
<DataArray  type="UInt32"  Name="connectivity"  format="ascii">0 1 2  2 4 5  1 3 4  1 2 4  9 21 22  8 20 21  5 8 9  8 9 21  6 18 19  3 6 7  7 19 20  6 7 19  4 5 8  7 8 20  3 4 7  4 7 8  51 78 81  47 78 81  51 78 79  45 78 79  45 70 72  39 70 72  38 45 70  40 47 71  47 71 73  39 71 73  39 73 78  47 73 78  39 72 78  45 72 78  18 19 29  19 20 30  29 30 38  19 29 30  21 22 32  31 32 40  20 21 31  21 31 32  30 39 70  30 38 70  20 30 31  31 40 71  31 39 71  30 31 39  22 32 33  33 41 42  32 40 41  32 33 41  46 50 52  49 52 54  42 46 49  46 49 52  47 82 84  53 82 84  47 81 84  51 81 84  40 48 80  40 47 80  48 54 86  48 83 86  53 83 86  53 80 83  48 80 83  53 80 82  47 80 82  41 42 49  48 49 54  40 41 48  41 48 49  62 63 64  60 61 63  59 61 62  61 62 63  56 84 87  53 84 87  56 84 85  51 84 85  54 58 86  53 58 86  58 60 88  56 60 88  53 58 88  53 87 88  56 87 88  50 52 55  55 57 59  52 54 57  52 55 57  58 60 61  54 57 58  57 59 61  57 58 61  17 18 29  28 29 38  16 17 28  17 28 29  45 75 76  43 75 76  45 76 79  51 76 79  34 37 65  37 65 68  43 65 68  37 38 69  38 45 69  43 68 69  37 68 69  43 69 75  45 69 75  10 15 23  15 16 27  23 27 34  15 23 27  28 37 38  27 34 37  16 27 28  27 28 37  11 12 24  12 13 25  24 25 35  12 24 25  10 14 23  23 26 34  13 14 26  14 23 26  44 74 76  43 74 76  44 76 77  51 76 77  35 44 67  35 36 67  34 36 65  36 65 66  43 65 66  43 66 67  36 66 67  43 67 74  44 67 74  13 25 26  26 34 36  25 35 36  25 26 36  </DataArray>
<DataArray  type="UInt32"  Name="offsets"  format="ascii">3 6 9 12 15 18 21 24 27 30 33 36 39 42 45 48 51 54 57 60 63 66 69 72 75 78 81 84 87 90 93 96 99 102 105 108 111 114 117 120 123 126 129 132 135 138 141 144 147 150 153 156 159 162 165 168 171 174 177 180 183 186 189 192 195 198 201 204 207 210 213 216 219 222 225 228 231 234 237 240 243 246 249 252 255 258 261 264 267 270 273 276 279 282 285 288 291 294 297 300 303 306 309 312 315 318 321 324 327 330 333 336 339 342 345 348 351 354 357 360 363 366 369 372 375 378 381 384 387 390 393 396 399 402 405 408 411 414 417 420 423 426 </DataArray>
<DataArray  type="UInt8"  Name="types"  format="ascii">5 5 5 5 5 5 5 5 5 5 5 5 5 5 5 5 5 5 5 5 5 5 5 5 5 5 5 5 5 5 5 5 5 5 5 5 5 5 5 5 5 5 5 5 5 5 5 5 5 5 5 5 5 5 5 5 5 5 5 5 5 5 5 5 5 5 5 5 5 5 5 5 5 5 5 5 5 5 5 5 5 5 5 5 5 5 5 5 5 5 5 5 5 5 5 5 5 5 5 5 5 5 5 5 5 5 5 5 5 5 5 5 5 5 5 5 5 5 5 5 5 5 5 5 5 5 5 5 5 5 5 5 5 5 5 5 5 5 5 5 5 5 </DataArray>
</Cells>
<CellData  Scalars="w"> 
<DataArray  type="Float64"  Name="w"  format="ascii">1.6734288502164422e-05   3.3876583642768899e-05   3.4600431669616238e-05   3.4202815081647212e-05   4.6870293671941288e-05   1.0049096585723254e-04   4.6252298719583754e-05   6.2232966750239279e-05   5.2193360648146540e-05   4.9038745520387781e-05   1.0295884871040473e-04   6.7059416835348013e-05   5.2412569828232193e-05   1.0010106400869088e-04   5.4063626986389952e-05   6.3543052918350784e-05   4.5217762848655963e-03   3.0770053083027790e-04   4.5254983591438902e-03   3.0773731788754570e-04   9.5350570478373329e-06   2.3235774206715746e-05   5.5660426824944880e-05   5.9212935851570136e-05   9.6404363103157585e-06   2.3786398944700048e-05   2.1585256730513253e-05   3.7158774422103781e-05   2.1353498712750608e-05   3.6359108530212793e-05   5.6143991804008802e-05   1.6910385062544057e-04   1.3444992010334762e-04   1.1514663265259792e-04   4.9980173550053905e-05   1.3255451637335239e-04   1.6462326586232578e-04   1.1214290071588350e-04   6.0259859015698356e-05   4.6843316341841169e-05   1.8150288126009842e-04   4.9987306036232117e-05   6.2795318583614917e-05   1.7149860936283329e-04   3.5343829790153477e-05   2.2489581902204557e-05   1.0146528801232664e-04   4.1616731498236186e-05   2.2813308049201184e-06   5.7642044282699118e-05   1.0791575357560876e-05   2.7159290551163033e-05   1.7290269412275192e-05   2.0194527301062904e-05   4.6411702288768995e-04   1.9310896663774254e-03   6.0382662863379196e-05   5.0105063809922890e-05   4.2996139387982154e-05   6.3245479190772240e-06   1.5973250093384191e-05   6.4849848988782713e-06   8.4860315224093468e-06   1.4788176117285921e-05   2.4678454254483638e-05   4.3797649623255817e-05   5.2991174836706122e-05   1.0309850865259046e-04   9.2202293149133653e-05   2.7705876785146438e-02   5.6612093404531166e-03   2.3369805582814204e-03   3.3588212712878839e-02   3.2338710347600898e-05   1.0349621370222776e-05   1.0962613809701447e-04   7.2666108439077678e-04   2.2766397618501338e-05   5.9071792926415056e-05   2.0504981450643252e-04   1.8666278156493533e-05   3.9372968223751081e-05   5.2012010784933977e-06   1.6308013861059131e-05   1.0701534074552946e-06   4.3601203908145778e-05   8.3645278506247500e-05   1.3775891284652784e-05   3.2431121557490749e-03   4.8902073768372981e-04   4.2825317768511382e-04   1.7628600295913649e-03   4.1226203980903960e-05   1.0000383159748977e-04   2.5608781217096343e-05   4.3370399737058490e-05   1.6159330460664257e-05   1.9909258084078118e-05   4.6360083226042843e-04   1.9767695526067240e-03   3.1355410373238152e-05   3.7054594669247724e-06   4.8779755000064012e-06   4.6769239782973695e-05   4.5215448829059700e-05   4.3134829585819638e-06   5.6467395501177310e-06   1.3954157311357306e-05   2.2598580385040848e-05   8.2451484957659612e-06   1.4145150983992159e-05   5.2276268671179318e-05   3.4180370405261918e-05   1.0044413644915181e-04   4.3936608276507486e-05   3.9278014684535176e-05   8.1131356026334112e-05   3.7557297231075039e-05   5.0319847860698171e-05   9.7952031452676970e-05   7.2826659316865708e-05   2.3554835296376133e-05   5.9217863740204881e-05   3.6531295362564870e-05   3.1034197439644632e-05   3.4799926171882924e-05   9.8454227790466397e-06   1.1198275078998961e-04   7.6875185500482174e-04   3.9907737759695914e-05   2.3869075937888445e-05   1.6565515548536731e-05   8.1872866740927045e-06   3.1975591735033389e-06   5.8988112763059373e-06   6.6866755845452091e-06   7.5325497081482500e-06   2.4284153801064600e-05   5.1289588808526679e-05   9.0146136570939711e-05   1.4809290639591503e-04   9.8255744036043253e-05   </DataArray> 
</CellData> 
</Piece>
</UnstructuredGrid>
</VTKFile>