<?xml version="1.0"?>
<VTKFile type="UnstructuredGrid"  version="0.1"  >
<UnstructuredGrid>
<Piece  NumberOfPoints="125" NumberOfCells="208">
<Points>
<DataArray  type="Float64"  NumberOfComponents="3"  format="ascii">-1 1 0  -0.75 1 0  -1 0.75 0  -0.5 1 0  -0.75 0.75 0  -1 0.5 0  -0.25 1 0  -0.5 0.75 0  -0.75 0.5 0  -1 0.25 0  1 1 0  1 1.110223024625157e-16 0  1 0.2500000000000001 0  1 0.5 0  1 0.75 0  0.75 1 0  0.5 1 0  0.25 1 0  0 1 0  -0.25 0.75 0  -0.5 0.5 0  -0.75 0.25 0  -1 0 0  0.75 0.75 0  0.75 0 0  0.75 0.25 0  0.75 0.5 0  0.5 0.75 0  0.25 0.75 0  0 0.75 0  -0.25 0.5 0  -0.5 0.25 0  -0.75 0 0  -1 -0.2500000000000001 0  0.5 0.5 0  0.5 0 0  0.5 0.25 0  0.25 0.5 0  0 0.5 0  -0.25 0.25 0  -0.5 0 0  -0.75 -0.2500000000000001 0  -1 -0.5 0  0.25 0.25 0  0.25 0 0  0 0.25 0  -1 -0.75 0  -0.25 0 0  -0.5 -0.25 0  -0.75 -0.5 0  -0.9999999999999999 -1 0  0 0 0  -0.75 -0.75 0  -0.25 -0.25 0  -0.5 -0.5 0  -0.7499999999999999 -1 0  0 -0.25 0  -0.5 -0.75 0  -0.25 -0.5 0  -0.4999999999999999 -0.9999999999999999 0  0 -0.5 0  -0.25 -0.75 0  -0.2499999999999999 -0.9999999999999999 0  0 -0.75 0  0 -0.9999999999999999 0  0.375 0.375 0  0.375 0.25 0  0.375 0.125 0  0.25 0.375 0  0.125 0.375 0  -0.125 0.375 0  -0.375 0.125 0  -0.125 0.25 0  -0.25 0.125 0  0.25 0.125 0  0.125 0.25 0  0.125 0.125 0  0.125 0 0  -0.125 0.125 0  0 0.125 0  -0.375 -0.125 0  -0.125 0 0  -0.25 -0.125 0  -0.375 -0.25 0  -0.125 -0.125 0  0 -0.125 0  -0.375 -0.375 0  -0.125 -0.25 0  -0.125 -0.375 0  0.1875 0.0625 0  0.0625 0.1875 0  -0.0625 0.1875 0  -0.1875 0.0625 0  -0.1875 0 0  -0.1875 -0.0625 0  0.0625 0.0625 0  0.0625 0 0  -0.0625 0.0625 0  0 0.0625 0  -0.0625 0 0  -0.0625 -0.0625 0  0 -0.0625 0  -0.625 -0.625 0  -0.5 -0.625 0  -0.375 -0.5 0  -0.0625 -0.1875 0  -0.375 -0.625 0  -0.375 -0.75 0  -0.125 -0.5 0  -0.25 -0.625 0  -0.3749999999999999 -0.875 0  -0.3749999999999999 -0.9999999999999999 0  -0.125 -0.625 0  0 -0.625 0  -0.2499999999999999 -0.875 0  -0.125 -0.75 0  -0.1249999999999999 -0.875 0  -0.1249999999999999 -0.9999999999999999 0  0 -0.875 0  0.125 0.0625 0  0.0625 0.125 0  -0.0625 0.125 0  -0.125 0.0625 0  -0.125 -0.0625 0  -0.0625 -0.125 0  </DataArray>
</Points>
<Cells>
<DataArray  type="UInt32"  Name="connectivity"  format="ascii">0 1 2  2 4 5  1 3 4  1 2 4  9 21 22  8 20 21  5 8 9  8 9 21  6 18 19  3 6 7  7 19 20  6 7 19  4 5 8  7 8 20  3 4 7  4 7 8  81 97 122  78 97 122  81 97 99  51 97 99  81 92 122  78 92 122  81 92 93  47 92 93  79 97 121  78 97 121  79 97 98  51 97 98  79 91 121  78 91 121  45 79 91  45 70 72  39 70 72  38 45 70  40 47 71  47 71 73  39 71 73  39 73 78  47 73 92  73 78 92  39 72 78  45 72 91  72 78 91  18 19 29  19 20 30  29 30 38  19 29 30  21 22 32  31 32 40  20 21 31  21 31 32  30 39 70  30 38 70  20 30 31  31 40 71  31 39 71  30 31 39  22 32 33  33 41 42  32 40 41  32 33 41  46 50 52  49 54 102  49 52 102  42 46 49  46 49 52  47 82 94  82 84 94  53 82 84  81 93 94  47 93 94  81 94 123  84 94 123  81 99 100  51 99 100  81 100 123  84 100 123  40 48 80  40 47 80  48 54 86  48 83 86  53 83 86  53 80 83  48 80 83  53 80 82  47 80 82  41 42 49  48 49 54  40 41 48  41 48 49  64 116 118  63 116 118  64 116 117  62 116 117  63 112 115  61 112 115  63 112 113  60 112 113  62 110 114  61 110 114  62 110 111  59 110 111  61 115 116  63 115 116  61 114 116  62 114 116  84 87 105  56 87 105  53 84 87  85 105 124  84 105 124  56 85 105  85 100 124  84 100 124  85 100 101  51 100 101  58 86 104  54 86 104  53 58 86  60 88 108  58 88 108  56 60 88  53 58 88  53 87 88  56 87 88  50 52 55  55 57 59  57 102 103  54 102 103  52 57 102  52 55 57  58 109 112  61 109 112  58 108 112  60 108 112  54 104 106  58 104 106  54 103 106  57 103 106  57 107 110  61 107 110  57 59 110  61 106 109  58 106 109  61 106 107  57 106 107  17 18 29  28 29 38  16 17 28  17 28 29  45 75 90  75 76 90  43 75 76  79 90 120  76 90 120  45 79 90  79 95 120  76 95 120  79 95 98  51 95 98  34 37 65  37 65 68  43 65 68  37 38 69  38 45 69  43 68 69  37 68 69  43 69 75  45 69 75  10 15 23  15 16 27  23 27 34  15 23 27  28 37 38  27 34 37  16 27 28  27 28 37  11 12 24  12 13 25  24 25 35  12 24 25  10 14 23  23 26 34  13 14 26  14 23 26  44 74 89  74 76 89  43 74 76  77 89 119  76 89 119  44 77 89  77 95 119  76 95 119  77 95 96  51 95 96  35 44 67  35 36 67  34 36 65  36 65 66  43 65 66  43 66 67  36 66 67  43 67 74  44 67 74  13 25 26  26 34 36  25 35 36  25 26 36  </DataArray>
<DataArray  type="UInt32"  Name="offsets"  format="ascii">3 6 9 12 15 18 21 24 27 30 33 36 39 42 45 48 51 54 57 60 63 66 69 72 75 78 81 84 87 90 93 96 99 102 105 108 111 114 117 120 123 126 129 132 135 138 141 144 147 150 153 156 159 162 165 168 171 174 177 180 183 186 189 192 195 198 201 204 207 210 213 216 219 222 225 228 231 234 237 240 243 246 249 252 255 258 261 264 267 270 273 276 279 282 285 288 291 294 297 300 303 306 309 312 315 318 321 324 327 330 333 336 339 342 345 348 351 354 357 360 363 366 369 372 375 378 381 384 387 390 393 396 399 402 405 408 411 414 417 420 423 426 429 432 435 438 441 444 447 450 453 456 459 462 465 468 471 474 477 480 483 486 489 492 495 498 501 504 507 510 513 516 519 522 525 528 531 534 537 540 543 546 549 552 555 558 561 564 567 570 573 576 579 582 585 588 591 594 597 600 603 606 609 612 615 618 621 624 </DataArray>
<DataArray  type="UInt8"  Name="types"  format="ascii">5 5 5 5 5 5 5 5 5 5 5 5 5 5 5 5 5 5 5 5 5 5 5 5 5 5 5 5 5 5 5 5 5 5 5 5 5 5 5 5 5 5 5 5 5 5 5 5 5 5 5 5 5 5 5 5 5 5 5 5 5 5 5 5 5 5 5 5 5 5 5 5 5 5 5 5 5 5 5 5 5 5 5 5 5 5 5 5 5 5 5 5 5 5 5 5 5 5 5 5 5 5 5 5 5 5 5 5 5 5 5 5 5 5 5 5 5 5 5 5 5 5 5 5 5 5 5 5 5 5 5 5 5 5 5 5 5 5 5 5 5 5 5 5 5 5 5 5 5 5 5 5 5 5 5 5 5 5 5 5 5 5 5 5 5 5 5 5 5 5 5 5 5 5 5 5 5 5 5 5 5 5 5 5 5 5 5 5 5 5 5 5 5 5 5 5 5 5 5 5 5 5 5 5 5 5 5 5 </DataArray>
</Cells>
<PointData  Scalars="u"> 
<DataArray  type="Float64"  Name="u"  format="ascii">1.2602454881625333e+00  1.1543710341161320e+00  1.1543710829643998e+00  1.0515123372054191e+00  1.0401357284764621e+00  1.0515134455889483e+00  9.5382096493182378e-01  9.2326213680968627e-01  9.2327355986130022e-01  9.5382425502903734e-01  6.3080206320476517e-01  -4.8306336520399383e-04  1.6710397151466913e-01  3.2862679467584455e-01  4.8333645182334267e-01  6.7278869370976391e-01  7.2483692244072429e-01  7.8854664425516741e-01  8.6577425427473975e-01  8.1351501039982521e-01  7.9298019038248890e-01  8.1356414932773036e-01  8.6576852772300195e-01  5.1935597355922458e-01  1.2149843080041267e-03  1.8129573985416469e-01  3.5735300492884692e-01  5.6716054256796911e-01  6.3103469803984269e-01  7.1264461536472301e-01  6.5848811762355597e-01  6.5853873940727647e-01  7.1279631310423230e-01  7.8856686698015810e-01  3.9496110347282648e-01  2.5108601822280718e-03  2.0655766244273685e-01  4.5567191141945829e-01  5.4250022940626785e-01  5.0102852258651898e-01  5.4268199120933358e-01  6.3135675128968738e-01  7.2482249771704987e-01  2.4867886094283501e-01  1.6624266581134774e-03  3.4194871827306911e-01  6.7274975034201656e-01  3.4175198221257491e-01  4.5627980977314242e-01  5.6783847884576533e-01  6.3082114542890566e-01  1.1748088288365372e-02  5.1914385135975660e-01  2.4857291708624124e-01  3.9589810499977079e-01  4.8325246050487997e-01  1.6236460453936683e-03  3.5699851852282627e-01  2.0613733679858448e-01  3.2776188765185688e-01  4.0895682184489360e-04  1.8190121554856439e-01  1.6613328410871978e-01  3.0607490442755627e-04  -3.4552870810842482e-04  3.2724454643034551e-01  2.2365791375439495e-01  1.1429985252306366e-01  3.5672021582771690e-01  3.9708521808401770e-01  5.1078250501493505e-01  5.1004435672118087e-01  4.1604762711459770e-01  4.1613044710730712e-01  1.2822807443026649e-01  2.8620520043615305e-01  1.5740930186895818e-01  -1.3377044393715668e-03  3.1408656120960093e-01  2.1531341131530063e-01  3.9734196240144370e-01  2.1371024141878822e-01  2.8640065054106034e-01  3.5723629414914526e-01  1.5756866394890398e-01  -1.3310196118410586e-03  3.2863133511935461e-01  1.2860122166653254e-01  1.1518771616576530e-01  7.2375901246914343e-02  2.4847161426033049e-01  3.2123977259390801e-01  3.2171151490353495e-01  2.8203619301299193e-01  2.4981433024156019e-01  1.0003951727105005e-01  -2.5705608074868018e-03  1.9807455331263243e-01  1.3279911306760098e-01  1.3269428082298593e-01  1.0001341803339660e-01  -2.5682528154011308e-03  4.5956814150930331e-01  3.7448629418541468e-01  3.0375290097711127e-01  7.2484138049218452e-02  2.8549635800637113e-01  2.7058344023689324e-01  1.0416522331763552e-01  1.9249913216539710e-01  2.5862420434044209e-01  2.4749762621245625e-01  9.7479855654076006e-02  -1.9963524510557679e-04  1.7326927656145408e-01  9.1415846326397432e-02  8.7305058804621624e-02  8.3162973816322663e-02  -1.2641303653609188e-04  8.1328635813997227e-02  1.7935650990862351e-01  2.6183711580065638e-01  2.6189684216064846e-01  1.7937880891634281e-01  8.1393418605303330e-02  </DataArray> 
</PointData> 
</Piece>
</UnstructuredGrid>
</VTKFile>