<?xml version="1.0"?>
<VTKFile type="UnstructuredGrid"  version="0.1"  >
<UnstructuredGrid>
<Piece  NumberOfPoints="175" NumberOfCells="307">
<Points>
<DataArray  type="Float64"  NumberOfComponents="3"  format="ascii">-1 1 0  -0.75 1 0  -1 0.75 0  -0.5 1 0  -0.75 0.75 0  -1 0.5 0  -0.25 1 0  -0.5 0.75 0  -0.75 0.5 0  -1 0.25 0  1 1 0  1 1.110223024625157e-16 0  1 0.2500000000000001 0  1 0.5 0  1 0.75 0  0.75 1 0  0.5 1 0  0.25 1 0  0 1 0  -0.25 0.75 0  -0.5 0.5 0  -0.75 0.25 0  -1 0 0  0.75 0.75 0  0.75 0 0  0.75 0.25 0  0.75 0.5 0  0.5 0.75 0  0.25 0.75 0  0 0.75 0  -0.25 0.5 0  -0.5 0.25 0  -0.75 0 0  -1 -0.2500000000000001 0  0.5 0.5 0  0.5 0 0  0.5 0.25 0  0.25 0.5 0  0 0.5 0  -0.25 0.25 0  -0.5 0 0  -0.75 -0.2500000000000001 0  -1 -0.5 0  0.25 0.25 0  0.25 0 0  0 0.25 0  -1 -0.75 0  -0.25 0 0  -0.5 -0.25 0  -0.75 -0.5 0  -0.9999999999999999 -1 0  0 0 0  -0.75 -0.75 0  -0.25 -0.25 0  -0.5 -0.5 0  -0.7499999999999999 -1 0  0 -0.25 0  -0.5 -0.75 0  -0.25 -0.5 0  -0.4999999999999999 -0.9999999999999999 0  0 -0.5 0  -0.25 -0.75 0  -0.2499999999999999 -0.9999999999999999 0  0 -0.75 0  0 -0.9999999999999999 0  0.375 0.125 0  0.125 0.375 0  -0.125 0.375 0  -0.375 0.125 0  -0.125 0.25 0  -0.25 0.125 0  0.25 0.125 0  0.125 0.25 0  0.125 0.125 0  0.125 0 0  -0.125 0.125 0  0 0.125 0  -0.375 -0.125 0  -0.125 0 0  -0.25 -0.125 0  -0.125 -0.125 0  -0.125 -0.375 0  -0.375 -0.625 0  -0.125 -0.5 0  -0.25 -0.625 0  -0.3749999999999999 -0.875 0  -0.125 -0.625 0  0 -0.625 0  -0.2499999999999999 -0.875 0  -0.125 -0.75 0  -0.1249999999999999 -0.875 0  -0.1249999999999999 -0.9999999999999999 0  0 -0.875 0  -0.375 0.625 0  -0.625 0.375 0  -0.375 0.5 0  -0.5 0.375 0  -0.375 0.375 0  -0.25 0.375 0  -0.375 0.25 0  0.1875 0.0625 0  0.1875 0 0  0.0625 0.1875 0  -0.0625 0.1875 0  0 0.1875 0  -0.1875 0.0625 0  -0.1875 0 0  -0.1875 -0.0625 0  0 -0.125 0  0.0625 0.0625 0  0.0625 0 0  -0.0625 0.0625 0  0 0.0625 0  -0.0625 0 0  -0.0625 -0.0625 0  -0.125 -0.25 0  -0.1875 -0.1875 0  -0.0625 -0.1875 0  0.125 0.0625 0  0.0625 0.125 0  -0.0625 0.125 0  -0.125 0.0625 0  -0.125 -0.0625 0  0.875 0.375 0  0.125 0.875 0  0.625 0.625 0  0.75 0.375 0  0.625 0.125 0  0.625 0.25 0  0.625 0.5 0  0.625 0.375 0  0.375 0.625 0  0.125 0.75 0  0.25 0.625 0  0.125 0.625 0  -0.125 0.625 0  0 0.625 0  -0.125 0.5 0  -0.625 0.125 0  -0.5 0.125 0  -0.625 0 0  0.5 0.375 0  0.375 0.5 0  0.375 0.375 0  0.5 0.125 0  0.125 0.5 0  0.25 0.375 0  -0.625 -0.125 0  -0.5 -0.125 0  -0.625 -0.25 0  -0.625 -0.375 0  -0.375 -0.25 0  -0.5 -0.375 0  0 -0.0625 0  0.03125 0.03125 0  0.03125 0 0  -0.03125 0.03125 0  0 0.03125 0  -0.03125 0 0  -0.03125 -0.03125 0  -0.375 -0.375 0  0.09375 0.03125 0  0.03125 0.09375 0  -0.03125 0.09375 0  0 0.09375 0  -0.09375 0.03125 0  -0.09375 0 0  -0.09375 -0.03125 0  -0.03125 -0.09375 0  0.0625 0.03125 0  0.03125 0.0625 0  -0.03125 0.0625 0  -0.0625 0.03125 0  -0.0625 -0.03125 0  -0.0625 -0.125 0  </DataArray>
</Points>
<Cells>
<DataArray  type="UInt32"  Name="connectivity"  format="ascii">0 1 2  2 4 5  1 3 4  1 2 4  9 21 22  8 21 94  8 20 94  5 8 9  8 9 21  6 18 19  3 6 7  7 20 93  7 19 93  6 7 19  4 5 8  7 8 20  3 4 7  4 7 8  111 121 165  78 121 165  75 111 121  113 165 172  111 165 172  113 165 166  78 165 166  113 156 172  111 156 172  113 156 158  51 156 158  78 105 121  75 105 121  78 105 106  47 105 106  111 120 163  76 120 163  75 111 120  112 163 171  111 163 171  112 163 164  76 163 164  112 156 171  111 156 171  112 156 157  51 156 157  76 103 120  75 103 120  76 103 104  45 103 104  45 67 69  39 67 69  38 45 67  40 47 68  47 68 70  39 68 70  39 70 75  47 70 105  70 75 105  39 69 75  45 69 103  69 75 103  18 19 29  30 93 95  20 93 95  19 30 93  38 135 137  30 135 137  38 135 136  29 135 136  19 30 135  19 29 135  21 22 32  40 138 140  32 138 140  40 138 139  31 138 139  21 31 94  31 94 96  20 94 96  21 32 138  21 31 138  39 67 98  30 67 98  38 67 137  30 67 137  20 96 97  31 96 97  20 95 97  30 95 97  40 68 139  31 68 139  39 68 99  31 68 99  39 97 99  31 97 99  39 97 98  30 97 98  22 32 33  33 41 42  32 41 147  32 140 147  40 140 147  32 33 41  46 50 52  49 52 54  42 46 49  46 49 52  47 79 107  79 80 107  53 79 116  79 80 116  78 106 107  47 106 107  78 107 122  80 107 122  113 166 167  78 166 167  113 167 173  114 167 173  113 158 159  51 158 159  113 159 173  114 159 173  114 122 167  78 122 167  80 114 122  48 77 148  40 77 148  40 47 77  48 152 160  54 152 160  48 151 160  53 151 160  53 77 151  48 77 151  53 77 79  47 77 79  41 42 49  49 54 150  54 150 152  48 150 152  48 147 149  41 147 149  48 147 148  40 147 148  41 49 150  41 149 150  48 149 150  64 90 92  63 90 92  64 90 91  62 90 91  63 86 89  61 86 89  63 86 87  60 86 87  62 85 88  61 85 88  59 62 85  61 89 90  63 89 90  61 88 90  62 88 90  80 116 117  53 115 116  56 115 117  115 116 117  80 117 174  80 114 174  114 159 168  51 153 159  108 153 168  153 159 168  56 108 117  108 117 174  108 168 174  114 168 174  54 58 160  53 58 160  60 81 83  58 81 83  56 60 81  53 58 81  56 81 115  53 81 115  50 52 55  55 57 59  52 54 57  52 55 57  58 84 86  61 84 86  58 83 86  60 83 86  54 58 82  54 57 82  57 61 85  57 59 85  61 82 84  58 82 84  57 61 82  17 18 124  18 29 124  29 132 134  28 132 134  29 134 136  38 134 136  16 17 28  17 28 124  28 124 132  29 124 132  45 72 102  72 73 102  43 72 73  76 102 119  73 102 119  76 102 104  45 102 104  109 119 162  76 119 162  73 109 119  112 162 170  109 162 170  112 162 164  76 162 164  112 154 170  109 154 170  112 154 157  51 154 157  37 142 143  34 142 143  37 143 146  43 143 146  38 66 145  37 66 145  38 45 66  43 66 146  37 66 146  43 66 72  45 66 72  10 15 23  15 16 27  23 27 125  27 34 125  15 23 27  37 133 134  28 133 134  37 134 145  38 134 145  27 34 131  34 131 142  37 131 142  16 27 28  27 28 131  28 131 133  37 131 133  11 12 24  12 25 123  12 13 123  24 35 127  24 25 127  12 24 25  10 14 23  23 26 125  26 125 129  34 125 129  13 14 26  14 23 26  44 71 100  71 73 100  43 71 73  74 100 118  73 100 118  74 100 101  44 100 101  109 118 161  74 118 161  73 109 118  110 161 169  109 161 169  74 110 161  110 154 169  109 154 169  110 154 155  51 154 155  35 44 65  36 65 144  35 65 144  36 141 143  34 141 143  36 43 143  36 43 65  43 65 71  44 65 71  26 123 126  25 123 126  13 26 123  34 129 130  26 129 130  34 130 141  36 130 141  36 127 144  35 127 144  36 127 128  25 127 128  25 128 130  36 128 130  25 126 130  26 126 130  </DataArray>
<DataArray  type="UInt32"  Name="offsets"  format="ascii">3 6 9 12 15 18 21 24 27 30 33 36 39 42 45 48 51 54 57 60 63 66 69 72 75 78 81 84 87 90 93 96 99 102 105 108 111 114 117 120 123 126 129 132 135 138 141 144 147 150 153 156 159 162 165 168 171 174 177 180 183 186 189 192 195 198 201 204 207 210 213 216 219 222 225 228 231 234 237 240 243 246 249 252 255 258 261 264 267 270 273 276 279 282 285 288 291 294 297 300 303 306 309 312 315 318 321 324 327 330 333 336 339 342 345 348 351 354 357 360 363 366 369 372 375 378 381 384 387 390 393 396 399 402 405 408 411 414 417 420 423 426 429 432 435 438 441 444 447 450 453 456 459 462 465 468 471 474 477 480 483 486 489 492 495 498 501 504 507 510 513 516 519 522 525 528 531 534 537 540 543 546 549 552 555 558 561 564 567 570 573 576 579 582 585 588 591 594 597 600 603 606 609 612 615 618 621 624 627 630 633 636 639 642 645 648 651 654 657 660 663 666 669 672 675 678 681 684 687 690 693 696 699 702 705 708 711 714 717 720 723 726 729 732 735 738 741 744 747 750 753 756 759 762 765 768 771 774 777 780 783 786 789 792 795 798 801 804 807 810 813 816 819 822 825 828 831 834 837 840 843 846 849 852 855 858 861 864 867 870 873 876 879 882 885 888 891 894 897 900 903 906 909 912 915 918 921 </DataArray>
<DataArray  type="UInt8"  Name="types"  format="ascii">5 5 5 5 5 5 5 5 5 5 5 5 5 5 5 5 5 5 5 5 5 5 5 5 5 5 5 5 5 5 5 5 5 5 5 5 5 5 5 5 5 5 5 5 5 5 5 5 5 5 5 5 5 5 5 5 5 5 5 5 5 5 5 5 5 5 5 5 5 5 5 5 5 5 5 5 5 5 5 5 5 5 5 5 5 5 5 5 5 5 5 5 5 5 5 5 5 5 5 5 5 5 5 5 5 5 5 5 5 5 5 5 5 5 5 5 5 5 5 5 5 5 5 5 5 5 5 5 5 5 5 5 5 5 5 5 5 5 5 5 5 5 5 5 5 5 5 5 5 5 5 5 5 5 5 5 5 5 5 5 5 5 5 5 5 5 5 5 5 5 5 5 5 5 5 5 5 5 5 5 5 5 5 5 5 5 5 5 5 5 5 5 5 5 5 5 5 5 5 5 5 5 5 5 5 5 5 5 5 5 5 5 5 5 5 5 5 5 5 5 5 5 5 5 5 5 5 5 5 5 5 5 5 5 5 5 5 5 5 5 5 5 5 5 5 5 5 5 5 5 5 5 5 5 5 5 5 5 5 5 5 5 5 5 5 5 5 5 5 5 5 5 5 5 5 5 5 5 5 5 5 5 5 5 5 5 5 5 5 5 5 5 5 5 5 5 5 5 5 5 5 5 5 5 5 5 5 </DataArray>
</Cells>
<PointData  Scalars="u"> 
<DataArray  type="Float64"  Name="u"  format="ascii">1.2602510137631482e+00  1.1543604210638561e+00  1.1543602828888562e+00  1.0514759975990353e+00  1.0399533557879510e+00  1.0514735301271667e+00  9.5391683662821469e-01  9.2302161054914578e-01  9.2299377908748492e-01  9.5390985493028624e-01  6.3081454998190567e-01  -5.0851095490638866e-04  1.6713669727937447e-01  3.2789861510025953e-01  4.8324399675971835e-01  6.7274511255519553e-01  7.2485130723492397e-01  7.8872006702861708e-01  8.6596378994703171e-01  8.1358237418941648e-01  7.9392958789128909e-01  8.1441494573095985e-01  8.6583496643626423e-01  5.1922493383745294e-01  1.5039218569124512e-03  1.8121708269519229e-01  3.5705887418186411e-01  5.6792023749768972e-01  6.3176383738470498e-01  7.1434093109300112e-01  6.6204457343482226e-01  6.6200118259441310e-01  7.1293997762958317e-01  7.8856830635025732e-01  3.9692170738738253e-01  4.4597904833550535e-04  2.0590666148745135e-01  4.5611219072706732e-01  5.4477806792005845e-01  4.9888016553849857e-01  5.4478025430093258e-01  6.3172986657240182e-01  7.2485966363934162e-01  2.4830920729901279e-01  1.6426714860351345e-03  3.4173339840346861e-01  6.7276110842784564e-01  3.4187938784233224e-01  4.5621440653275924e-01  5.6762190489593867e-01  6.3077930950023975e-01  7.4481570994522845e-03  5.1959678525707675e-01  2.4809545543457337e-01  3.9676522709313328e-01  4.8332648739585049e-01  1.5784597869063716e-03  3.5722336329929194e-01  2.0669936735523720e-01  3.2785389823592215e-01  4.1287782634779414e-04  1.8229469633520110e-01  1.6620082159072322e-01  3.1041188237028710e-04  -3.4972559842418342e-04  1.1504785860667842e-01  3.9662613500709520e-01  5.1166199964219050e-01  5.1127278033816181e-01  4.1577764732446726e-01  4.1580488867591070e-01  1.2848100005118987e-01  2.8618489421841353e-01  1.5769837511766233e-01  -3.8539493787295134e-04  3.1413079048239295e-01  2.1515935656744239e-01  3.9671286770980257e-01  2.1465190072584464e-01  2.8656669186165390e-01  1.5740511188994719e-01  1.1432651222767340e-01  2.8525859913280666e-01  1.0433303229214699e-01  1.9278458145115726e-01  2.5833981135712719e-01  9.7630624152795539e-02  -2.0073889556411712e-04  1.7332367766505397e-01  9.1520322946415864e-02  8.7343216106681262e-02  8.3156483387434837e-02  -1.2802394578604633e-04  7.9823153511528666e-01  7.9799562825054926e-01  7.2738317111617234e-01  7.2735810590061478e-01  6.5377615193786587e-01  5.8163660247338611e-01  5.8162841610907789e-01  7.1992896497168155e-02  1.5810398028594030e-04  2.4968891571712107e-01  3.2166840186798146e-01  2.8229955968902515e-01  3.2169754017966395e-01  2.8233926367989753e-01  2.5000483741171314e-01  8.8810085305915623e-05  9.9143335309619926e-02  -8.3490004178266247e-04  1.9811843674282428e-01  1.3511885900602047e-01  1.3422403195145752e-01  9.8565216603181613e-02  1.2970102798670013e-01  2.0550113128387729e-01  7.2267242205768314e-02  8.0930470651600292e-02  1.8029650040517234e-01  2.6184700640203867e-01  2.6184619179069157e-01  1.8019186857485830e-01  2.5855118669037874e-01  7.4944831542232559e-01  4.6020144364006554e-01  2.7036034643910001e-01  9.7028247129979137e-02  1.9213432778273504e-01  3.7476069774765736e-01  2.8542075692517471e-01  5.1310854509776993e-01  6.7067127408937277e-01  5.4677724365800628e-01  5.8664762285256500e-01  6.8412589102404142e-01  6.3269706742520493e-01  6.0051646609083875e-01  6.8339743222797189e-01  6.0047368534999723e-01  6.3259155775798981e-01  3.0373363488300142e-01  4.2337574491994595e-01  3.2812516373426803e-01  1.0396811080589630e-01  4.9613490444094172e-01  3.5700776593730810e-01  5.8700802224044957e-01  4.9629802560343256e-01  5.4691532149580890e-01  5.1315054988125497e-01  3.5696188798480072e-01  4.2350164729323470e-01  -6.1817686233051593e-04  6.2910177921625954e-02  -1.6264298026062525e-03  1.2447501763480336e-01  8.3482798945986772e-02  8.3153329913717780e-02  6.0279954179261436e-02  3.2792315628579549e-01  4.5631207505762099e-02  1.5683039649468583e-01  2.0229203058334194e-01  1.7722902917585270e-01  2.0226298503423484e-01  1.7717707006498912e-01  1.5710796787009906e-01  4.5254510869332770e-02  5.1217125646660012e-02  1.1279603030396027e-01  1.6432087076135440e-01  1.6427811028968839e-01  1.1264964849065948e-01  8.1077293516484114e-02  </DataArray> 
</PointData> 
</Piece>
</UnstructuredGrid>
</VTKFile>