<?xml version="1.0"?>
<VTKFile type="UnstructuredGrid"  version="0.1"  >
<UnstructuredGrid>
<Piece  NumberOfPoints="2052" NumberOfCells="3947">
<Points>
<DataArray  type="Float64"  NumberOfComponents="3"  format="ascii">-1 1 0  -0.75 1 0  -1 0.75 0  -0.5 1 0  -0.75 0.75 0  -1 0.5 0  -0.25 1 0  -0.5 0.75 0  -0.75 0.5 0  -1 0.25 0  1 1 0  1 1.110223024625157e-16 0  1 0.2500000000000001 0  1 0.5 0  1 0.75 0  0.75 1 0  0.5 1 0  0.25 1 0  0 1 0  -0.25 0.75 0  -0.5 0.5 0  -0.75 0.25 0  -1 0 0  0.75 0.75 0  0.75 0 0  0.75 0.25 0  0.75 0.5 0  0.5 0.75 0  0.25 0.75 0  0 0.75 0  -0.25 0.5 0  -0.5 0.25 0  -0.75 0 0  -1 -0.2500000000000001 0  0.5 0.5 0  0.5 0 0  0.5 0.25 0  0.25 0.5 0  0 0.5 0  -0.25 0.25 0  -0.5 0 0  -0.75 -0.2500000000000001 0  -1 -0.5 0  0.25 0.25 0  0.25 0 0  0 0.25 0  -1 -0.75 0  -0.25 0 0  -0.5 -0.25 0  -0.75 -0.5 0  -0.9999999999999999 -1 0  0 0 0  -0.75 -0.75 0  -0.25 -0.25 0  -0.5 -0.5 0  -0.7499999999999999 -1 0  0 -0.25 0  -0.5 -0.75 0  -0.25 -0.5 0  -0.4999999999999999 -0.9999999999999999 0  0 -0.5 0  -0.25 -0.75 0  -0.2499999999999999 -0.9999999999999999 0  0 -0.75 0  0 -0.9999999999999999 0  0.375 0.125 0  0.125 0.375 0  -0.125 0.375 0  -0.375 0.125 0  -0.125 0.25 0  -0.25 0.125 0  0.25 0.125 0  0.125 0.25 0  0.125 0.125 0  0.125 0 0  -0.125 0.125 0  0 0.125 0  -0.375 -0.125 0  -0.125 0 0  -0.25 -0.125 0  -0.125 -0.125 0  -0.125 -0.375 0  -0.375 -0.625 0  -0.125 -0.5 0  -0.25 -0.625 0  -0.3749999999999999 -0.875 0  -0.125 -0.625 0  0 -0.625 0  -0.2499999999999999 -0.875 0  -0.125 -0.75 0  -0.1249999999999999 -0.875 0  -0.1249999999999999 -0.9999999999999999 0  0 -0.875 0  -0.375 0.625 0  -0.625 0.375 0  -0.375 0.5 0  -0.5 0.375 0  -0.375 0.375 0  -0.25 0.375 0  -0.375 0.25 0  0.1875 0.0625 0  0.1875 0 0  0.0625 0.1875 0  -0.0625 0.1875 0  0 0.1875 0  -0.1875 0.0625 0  -0.1875 0 0  -0.1875 -0.0625 0  0 -0.125 0  0.0625 0.0625 0  0.0625 0 0  -0.0625 0.0625 0  0 0.0625 0  -0.0625 0 0  -0.0625 -0.0625 0  -0.125 -0.25 0  -0.1875 -0.1875 0  -0.0625 -0.1875 0  0.125 0.0625 0  0.0625 0.125 0  -0.0625 0.125 0  -0.125 0.0625 0  -0.125 -0.0625 0  0.875 0.375 0  0.125 0.875 0  0.625 0.625 0  0.75 0.375 0  0.625 0.125 0  0.625 0.25 0  0.625 0.5 0  0.625 0.375 0  0.375 0.625 0  0.125 0.75 0  0.25 0.625 0  0.125 0.625 0  -0.125 0.625 0  0 0.625 0  -0.125 0.5 0  -0.625 0.125 0  -0.5 0.125 0  -0.625 0 0  0.5 0.375 0  0.375 0.5 0  0.375 0.375 0  0.5 0.125 0  0.125 0.5 0  0.25 0.375 0  -0.625 -0.125 0  -0.5 -0.125 0  -0.625 -0.25 0  -0.625 -0.375 0  -0.375 -0.25 0  -0.5 -0.375 0  0 -0.0625 0  0.03125 0.03125 0  0.03125 0 0  -0.03125 0.03125 0  0 0.03125 0  -0.03125 0 0  -0.03125 -0.03125 0  -0.375 -0.375 0  0.09375 0.03125 0  0.03125 0.09375 0  -0.03125 0.09375 0  0 0.09375 0  -0.09375 0.03125 0  -0.09375 0 0  -0.09375 -0.03125 0  -0.03125 -0.09375 0  0.0625 0.03125 0  0.03125 0.0625 0  -0.03125 0.0625 0  -0.0625 0.03125 0  -0.0625 -0.03125 0  -0.0625 -0.125 0  -0.875 0.875 0  -0.625 1 0  -0.75 0.875 0  -0.875 0.75 0  -1 0.625 0  -0.625 0.875 0  -0.375 1 0  -0.5 0.875 0  -0.875 0.625 0  -0.625 0.75 0  -0.75 0.625 0  -0.875 0.5 0  -1 0.375 0  -0.375 0.875 0  -0.125 1 0  -0.25 0.875 0  -0.625 0.625 0  -0.375 0.75 0  -0.5 0.625 0  -0.875 0.375 0  -0.625 0.5 0  -0.75 0.375 0  -0.875 0.25 0  -1 0.125 0  0.875 0.1250000000000001 0  0.875 0.2500000000000001 0  -0.125 0.875 0  -0.875 0.125 0  -0.75 0.125 0  -0.875 0 0  -1 -0.125 0  0.75 0.125 0  -0.875 -0.125 0  -0.75 -0.125 0  -0.875 -0.2500000000000001 0  0 0.375 0  -0.0625 0.4375 0  -0.375 0 0  -0.4375 0.0625 0  -0.875 -0.375 0  -0.0625 0.3125 0  -0.875 -0.625 0  -0.3125 0.0625 0  -0.75 -0.625 0  -0.625 -0.5 0  0 -0.03125 0  0.015625 0.015625 0  0.015625 0 0  -0.015625 0.015625 0  0 0.015625 0  -0.015625 0 0  -0.015625 -0.015625 0  -0.625 -0.625 0  0.046875 0.015625 0  0.015625 0.046875 0  -0.015625 0.046875 0  0 0.046875 0  -0.046875 0.015625 0  -0.046875 0 0  -0.046875 -0.015625 0  -0.015625 -0.046875 0  0.03125 0.015625 0  0.015625 0.03125 0  -0.015625 0.03125 0  -0.03125 0.015625 0  -0.03125 -0.015625 0  -0.03125 -0.0625 0  1 0.875 0  0.875 0.875 0  1 0.625 0  0.875 0.5 0  0.875 0.75 0  0.875 0.625 0  0.625 1 0  0.75 0.875 0  0.625 0.875 0  0.5 0.875 0  0.375 0.875 0  -0.125 0.75 0  -0.25 0.625 0  -0.1875 0.6875 0  0.75 0.625 0  0.625 0.75 0  0.6875 0.6875 0  0.375 0.75 0  0.5 0.625 0  0.5625 0.6875 0  0.4375 0.6875 0  0.3125 0.6875 0  -0.1875 0.5625 0  0.375 0 0  0.4375 0.0625 0  0.375 0.25 0  0.4375 0.1875 0  0.5625 0.1875 0  0.4375 0.3125 0  0.5 0.1875 0  -0.1875 0.3125 0  -0.3125 0.1875 0  -0.1875 0.25 0  -0.25 0.1875 0  -0.1875 0.1875 0  0.3125 0.1875 0  0.1875 0.3125 0  0.25 0.1875 0  0.1875 0.25 0  0.1875 0.1875 0  0.3125 0.3125 0  0.3125 0.0625 0  0.25 0.0625 0  0.0625 0.3125 0  -0.4375 -0.3125 0  -0.875 -0.875 0  -0.8749999999999999 -1 0  0 -0.015625 0  0.0078125 0.0078125 0  0.0078125 0 0  -0.0078125 0.0078125 0  0 0.0078125 0  -0.0078125 0 0  -0.0078125 -0.0078125 0  -0.75 -0.875 0  -0.625 -0.75 0  -0.25 -0.375 0  -0.3125 -0.1875 0  -0.1875 -0.3125 0  -0.3125 -0.25 0  -0.3125 -0.3125 0  -0.5 -0.625 0  -0.375 -0.5 0  -0.4375 -0.5625 0  -0.4375 -0.4375 0  -0.625 -0.875 0  -0.6249999999999999 -1 0  0 -0.375 0  -0.0625 -0.3125 0  -0.0625 -0.25 0  -0.4999999999999999 -0.875 0  -0.375 -0.75 0  -0.4375 -0.8125 0  -0.1875 -0.4375 0  -0.3125 -0.5625 0  -0.1875 -0.5 0  -0.1875 -0.5625 0  -0.3125 -0.4375 0  -0.3749999999999999 -0.9999999999999999 0  -0.4374999999999999 -0.9375 0  -0.0625 -0.4375 0  0.3125 0.125 0  0.4375 0.125 0  0.125 0.3125 0  -0.125 0.1875 0  -0.1875 0.125 0  0.1875 0.125 0  0.125 0.1875 0  -0.125 -0.4375 0  -0.125 -0.3125 0  -0.375 -0.3125 0  0 -0.046875 0  0.0234375 0.0078125 0  0.0078125 0.0234375 0  -0.0078125 0.0234375 0  0 0.0234375 0  -0.0234375 0.0078125 0  -0.0234375 0 0  -0.0234375 -0.0078125 0  -0.0078125 -0.0234375 0  -0.0078125 -0.0390625 0  0.015625 0.0078125 0  0.0078125 0.015625 0  -0.0078125 0.015625 0  -0.015625 0.0078125 0  -0.015625 -0.0078125 0  -0.015625 -0.03125 0  -0.6875 0.4375 0  1 0.1250000000000001 0  0.875 5.551115123125783e-17 0  0.9375 0.06250000000000008 0  0.9375 0.1875000000000001 0  0.375 1 0  0.125 1 0  0.25 0.875 0  0.1875 0.9375 0  0.3125 0.9375 0  0 0.875 0  0.0625 0.9375 0  -0.0625 0.9375 0  -0.4375 0.4375 0  -0.625 0.25 0  -0.6875 0.3125 0  -0.6875 0.1875 0  -0.8125 0.3125 0  -0.75 0.3125 0  0.625 0 0  0.6875 0.0625 0  0.8125 0.06250000000000003 0  0.75 0.0625 0  0.6875 0.1875 0  0.1875 0.8125 0  0.3125 0.8125 0  0.0625 0.8125 0  -0.0625 0.8125 0  -0.1875 0.4375 0  -0.3125 0.5625 0  -0.3125 0.5 0  -0.3125 0.4375 0  -0.25 0.4375 0  -0.1875 0.5 0  -0.4375 0.1875 0  -0.5625 0.3125 0  -0.5 0.3125 0  -0.4375 0.3125 0  -0.4375 0.25 0  -0.5625 0.1875 0  -0.5 0.1875 0  -1 -0.375 0  0.5625 0.0625 0  0.5 0.0625 0  0.1875 0.4375 0  0.1875 0.5625 0  0.3125 0.4375 0  0.1875 0.5 0  0.25 0.4375 0  0.0625 0.4375 0  0.0625 0.5625 0  0.0625 0.5 0  0 0.4375 0  -0.3125 0.3125 0  -0.25 0.3125 0  -0.3125 0.25 0  -0.4375 -0.0625 0  -0.5625 0.0625 0  -0.5625 -0.06250000000000001 0  -0.5 -0.0625 0  -0.4375 0 0  -0.75 -0.375 0  -0.6875 -0.3125 0  -0.8125 -0.3125 0  -1 -0.625 0  -0.875 -0.5 0  -0.9375 -0.4375 0  -0.9375 -0.5625 0  -0.875 -0.75 0  -0.9375 -0.6875 0  -0.25 0.0625 0  -0.3125 -0.0625 0  -0.25 -0.0625 0  -0.21875 -0.03125 0  -0.3125 0 0  -0.28125 0.03125 0  -0.4375 -0.1875 0  -0.5625 -0.1875 0  -0.5 -0.1875 0  -0.6875 -0.4375 0  -0.8125 -0.4375 0  -0.8125 -0.5625 0  0 -0.0078125 0  0.00390625 0.00390625 0  0.00390625 0 0  -0.00390625 0.00390625 0  0 0.00390625 0  -0.00390625 0 0  -0.00390625 -0.00390625 0  -0.8125 -0.6875 0  -0.25 -0.1875 0  -0.1875 -0.25 0  -0.21875 -0.21875 0  0 -0.1875 0  -0.03125 -0.21875 0  0.125 0.4375 0  0.1875 0.375 0  0.0625 0.375 0  -0.1875 0.375 0  -0.125 0.4375 0  -0.375 0.1875 0  -0.4375 0.125 0  -0.3125 -0.125 0  -0.4375 -0.125 0  -0.375 -0.1875 0  -0.375 -0.0625 0  -0.34375 -0.15625 0  -0.1875 -0.125 0  -0.21875 -0.09375 0  -0.21875 -0.15625 0  -0.28125 -0.15625 0  -0.15625 -0.09375 0  -0.15625 -0.15625 0  -0.09375 -0.15625 0  -0.6875 0.375 0  -0.375 0.4375 0  -0.4375 0.375 0  -0.3125 0.375 0  -0.375 0.3125 0  -0.03125 -0.15625 0  -0.15625 -0.21875 0  -0.09375 -0.21875 0  -0.125 -0.1875 0  0.5625 0.125 0  0.6875 0.125 0  0.125 0.5625 0  -0.5625 0.125 0  0.3125 0.375 0  -0.5625 -0.125 0  -0.34375 0.03125 0  -0.375 0.0625 0  0 -0.0234375 0  0.01171875 0.00390625 0  0.01171875 0 0  0.00390625 0.01171875 0  -0.00390625 0.01171875 0  0 0.01171875 0  -0.01171875 0.00390625 0  -0.01171875 0 0  -0.01171875 -0.00390625 0  -0.00390625 -0.01171875 0  -0.00390625 -0.01953125 0  0.0078125 0.00390625 0  0.00390625 0.0078125 0  -0.00390625 0.0078125 0  -0.0078125 0.00390625 0  -0.0078125 -0.00390625 0  -0.0078125 -0.015625 0  -0.875 1 0  -1 0.875 0  -0.9375 0.9375 0  -0.8125 0.9375 0  -0.9375 0.8125 0  -0.4375 0.6875 0  -0.4375 0.8125 0  -0.5625 0.6875 0  -0.4375 0.75 0  -0.5 0.6875 0  -0.6875 0.5625 0  1 0.3750000000000001 0  0.9375 0.3125000000000001 0  0.9375 0.2500000000000001 0  0.9375 0.4375 0  -0.3125 0.6875 0  -0.25 0.6875 0  -0.4375 0.5625 0  -0.5625 0.4375 0  -0.4375 0.5 0  -0.5 0.4375 0  -0.5625 0.5625 0  -0.5 0.5625 0  -0.5625 0.5 0  -0.8125 0.1875 0  0.8125 0.3125 0  0.75 0.3125 0  0.6875 0.25 0  0.6875 0.3125 0  0.8125 0.4375 0  0.6875 0.5625 0  0.6875 0.5 0  0.6875 0.4375 0  0.1875 0.6875 0  0.0625 0.75 0  0.0625 0.6875 0  -0.0625 0.6875 0  0 0.6875 0  -0.6875 0.0625 0  -0.6875 0 0  -0.6875 -0.06250000000000001 0  -0.8125 0.0625 0  -0.75 0.0625 0  -0.8125 -0.06250000000000001 0  -0.75 -0.06250000000000001 0  0.5625 0.5625 0  0.5625 0.5 0  0.5625 0.4375 0  0.4375 0.5625 0  0.5 0.4375 0  0.4375 0.5 0  0.4375 0.4375 0  0.5 0.5625 0  0.5625 0.25 0  0.5625 0.3125 0  0.5 0.3125 0  0.3125 0.5625 0  0.25 0.5625 0  0.3125 0.5 0  -0.0625 0.5625 0  0 0.5625 0  -0.0625 0.5 0  -0.6875 -0.1875000000000001 0  -0.8125 -0.1875000000000001 0  -0.75 -0.1875000000000001 0  0.3125 0.25 0  0.28125 0.21875 0  0.3125 0 0  0.28125 0.03125 0  -0.0625 0.25 0  0.0625 0.25 0  0.03125 0.21875 0  -0.03125 0.21875 
[...]
<PointData  Scalars="u"> 
<DataArray  type="Float64"  Name="u"  format="ascii">1.2599735870254274e+00  1.1551672385268723e+00  1.1551672089447769e+00  1.0524876476994918e+00  1.0400428592890372e+00  1.0524876156103722e+00  9.5486316873739852e-01  9.2492679415306323e-01  9.2490013108724589e-01  9.5486343593687251e-01  6.3000712954570592e-01  -2.5539051627626047e-05  1.6593173300502179e-01  3.2768538993742097e-01  4.8273485796660281e-01  6.7254715850841951e-01  7.2477858106058834e-01  7.8897751860747545e-01  8.6598019614129762e-01  8.1439309758572254e-01  7.9356991922028131e-01  8.1445827830914552e-01  8.6605984561299165e-01  5.1999757236979560e-01  2.3082387715604949e-05  1.8193373202454957e-01  3.5651368208163403e-01  5.6849493705149712e-01  6.3244068856454094e-01  7.1479058014860886e-01  6.6299729479955227e-01  6.6297048432227101e-01  7.1478609422279504e-01  7.8885827435978106e-01  3.9679798594277405e-01  3.5611656192660262e-05  2.0644039512352166e-01  4.5658976492277986e-01  5.4543150378022465e-01  4.9989662441970301e-01  5.4538899659376427e-01  6.3246064470037966e-01  7.2478093322713866e-01  2.4991366420693595e-01  8.5408241172410445e-05  3.4343223640309828e-01  6.7252859028648748e-01  3.4337890981980324e-01  4.5662553513434262e-01  5.6849406163809402e-01  6.3000838988082586e-01  2.9333881126577480e-04  5.1995192418676761e-01  2.4984785719793520e-01  3.9676473577138066e-01  4.8276409381945040e-01  1.1759470915425897e-04  3.5649978212892602e-01  2.0645468831850558e-01  3.2776949768745017e-01  3.2716364828855070e-05  1.8198102956469378e-01  1.6596047975216785e-01  2.2557420135520416e-05  -8.3839575887236764e-05  1.1467746118937933e-01  3.9832282171189476e-01  5.1304999977569909e-01  5.1300673511924100e-01  4.1760320222611880e-01  4.1761937446105690e-01  1.2997657842924287e-01  2.8744723442071429e-01  1.5746701765523191e-01  -9.3597735997218593e-05  3.1453755799093641e-01  2.1636733846937020e-01  3.9830550335577847e-01  2.1617233302031069e-01  2.8749049637541257e-01  1.5747613800760873e-01  1.1460437945549036e-01  2.8545448852772404e-01  1.0448715985088818e-01  1.9273980899238508e-01  2.5804388139568868e-01  9.7196992056850173e-02  -3.2417718079208445e-05  1.7324117553235815e-01  9.1559425018724425e-02  8.7052435940803335e-02  8.3175576247372873e-02  -2.6340710713900229e-05  7.9893648400130679e-01  7.9891280880279347e-01  7.2770935352128729e-01  7.2771054925927969e-01  6.5507718973945173e-01  5.8267695932340346e-01  5.8268494820084971e-01  7.2080599332814382e-02  1.4055001500082369e-04  2.5069452661497199e-01  3.2296574656090254e-01  2.8342449975008316e-01  3.2297432947402294e-01  2.8338087553977809e-01  2.5086912686223506e-01  -6.3543750126130602e-05  9.9134645115067394e-02  -4.2540281671533939e-05  1.9823806324562174e-01  1.3617613025049105e-01  1.3602584218103086e-01  9.9014006371741375e-02  1.3006367089061005e-01  2.0628014634070860e-01  7.2183132812210504e-02  8.1879076980900745e-02  1.8090389251999303e-01  2.6282434854992570e-01  2.6282405759132266e-01  1.8084673799384693e-01  2.5812540614154422e-01  7.5050834679581069e-01  4.6055509752968821e-01  2.7045158740344999e-01  9.7247298463265353e-02  1.9279128236318191e-01  3.7480396042402159e-01  2.8542542519606473e-01  5.1351467365414782e-01  6.7117930322151065e-01  5.4745668586535412e-01  5.8715197959597343e-01  6.8438867924559388e-01  6.3302122642333625e-01  6.0142844533827544e-01  6.8433390020780738e-01  6.0141041025010467e-01  6.3300985123636611e-01  3.0407375677442888e-01  4.2361880762756127e-01  3.2757046811804186e-01  1.0450052276772738e-01  4.9693935185363863e-01  3.5818369567464947e-01  5.8714693145248997e-01  4.9691192491130332e-01  5.4740699569125673e-01  5.1351428005394206e-01  3.5819054341492762e-01  4.2352586500718026e-01  -1.2308694454295251e-04  6.2583119124703823e-02  -2.0017940823749764e-04  1.2479652888541549e-01  8.5521817724467944e-02  8.5336593894636589e-02  6.2083295323405979e-02  3.2757417504316039e-01  4.5543878303255819e-02  1.5785051329004560e-01  2.0334313226204975e-01  1.7847904321153640e-01  2.0333681280027238e-01  1.7839986069900163e-01  1.5802332311981887e-01  4.5479760256236887e-02  5.1436522649730892e-02  1.1381455910271554e-01  1.6532952651468624e-01  1.6532942064550363e-01  1.1385294095967517e-01  8.1952483960606740e-02  1.1525538577039698e+00  1.1034986164199312e+00  1.0977781038591476e+00  1.0977769798923958e+00  1.1034986717466670e+00  1.0431438182444239e+00  1.0029076138644286e+00  9.8939671616637148e-01  1.0431501808446049e+00  9.8232592479368441e-01  9.8231858182994991e-01  9.8938922907415272e-01  1.0029075731751240e+00  9.3663313989343189e-01  9.0912089733032531e-01  8.8591185980018228e-01  9.2087449179241831e-01  8.6879952760494761e-01  8.5967704681912671e-01  9.3665415013779263e-01  8.5971844019546906e-01  8.6878688223885991e-01  8.8590839183915615e-01  9.0918439536034690e-01  8.6955666480792337e-02  1.7318649123575489e-01  8.3741107335723797e-01  8.3746679071149632e-01  7.6274869760515374e-01  7.9217521460093554e-01  8.2585780023967303e-01  9.1598425933254832e-02  7.5051533607953236e-01  6.7119556048429962e-01  7.1267151496523062e-01  4.5029258427238039e-01  5.2747899111592322e-01  4.5020532053030121e-01  5.2757042799169440e-01  6.7867952449960778e-01  4.3098522159012836e-01  6.2143461900857178e-01  4.3100425997383190e-01  5.4256124661961691e-01  4.8484989548360879e-01  1.1513613910046694e-05  3.9494998070498666e-02  -5.1978902484957313e-05  7.8742738563924289e-02  5.3859423601394479e-02  5.3745474276243023e-02  3.9089896464465507e-02  4.6047074349188266e-01  2.8535387855016813e-02  9.9220365739723579e-02  1.2766804118420647e-01  1.1215739879354909e-01  1.2766984362715997e-01  1.1216125770394601e-01  9.9409704354969541e-02  2.8473967627786059e-02  3.2259371485195566e-02  7.1627612497242157e-02  1.0369323995791054e-01  1.0369431609465075e-01  7.1622405254576249e-02  5.1578499002636939e-02  5.5729529795571608e-01  5.7635191348098436e-01  4.0611748826414268e-01  3.4098130246767244e-01  5.0017963324322823e-01  4.2176077152152713e-01  6.9732054384906295e-01  5.9752363704778033e-01  6.2148921319410366e-01  6.4831339847983604e-01  6.7866439692565439e-01  7.6276674782377507e-01  7.4021627631078712e-01  7.5054888569110834e-01  4.3967069897959965e-01  5.4257178391896554e-01  4.9070315532182784e-01  5.9830490464743868e-01  4.8486385622462236e-01  5.1406702631222556e-01  5.4126607601042320e-01  5.7288587011618641e-01  6.7230824950388168e-01  5.0775546393549499e-05  5.4789256117903189e-02  2.2452735161316542e-01  1.6250825929777701e-01  1.5019632765570168e-01  2.6568542466053158e-01  1.5595318367378000e-01  5.0321708835100920e-01  5.0316474562398639e-01  4.5822656489902885e-01  4.5821432552910540e-01  4.1263187322534428e-01  1.7987813573278058e-01  3.2340375824886830e-01  1.9156881466174186e-01  2.6676633853415677e-01  2.0634975832890912e-01  2.8999105446958268e-01  6.1217021554692636e-02  6.5725143067735484e-02  3.6980832232494093e-01  3.9148270648972816e-01  5.7626985365688643e-01  5.5732373347478970e-01  8.2164528240677431e-06  2.4875853193123763e-02  -3.5439743760702275e-05  4.9626883624032975e-02  3.3931656462190818e-02  3.3866154860277782e-02  2.4648883318751647e-02  5.0022994290720790e-01  4.3967609171162497e-01  2.2457836836944470e-01  3.2337129014369043e-01  1.7985324661916505e-01  3.0536737716629192e-01  2.8997912573522472e-01  3.7481486250150170e-01  3.0405089654512174e-01  3.4030780491459112e-01  3.6302982790163740e-01  4.2173364470598884e-01  4.0619264596583327e-01  1.4146002799149981e-06  6.1209584120891725e-02  6.5715971280148347e-02  3.4097121183382495e-01  2.7051362804826506e-01  3.0649112305482340e-01  1.6252579073695675e-01  2.4721207015107780e-01  1.5594956579095526e-01  1.5025625570660142e-01  2.6558612901037831e-01  2.4755389708742873e-01  2.9359380761087961e-01  5.4802981941532838e-02  1.2137226038444845e-01  1.0914733435864268e-01  3.4478321187002731e-01  3.6683479624438253e-01  3.6683660413127889e-01  1.4128812576015484e-01  2.2547972909974684e-01  1.0909129176638156e-01  1.2142943967418461e-01  3.4170032552432528e-01  1.1898370445553115e-04  1.8141917823987580e-02  6.2432291718938007e-02  8.0414632082176737e-02  7.0548361461133066e-02  8.0416355034818102e-02  7.0550658355961166e-02  6.2552048244204017e-02  1.7999198333647059e-02  1.5078887066874953e-02  2.0264465869013301e-02  4.5145777509117038e-02  6.5366058287275028e-02  6.5368343021098466e-02  4.5152442928960215e-02  3.2421824550440174e-02  8.6314104934379698e-01  8.3267006908745556e-02  2.6235985772607547e-05  4.2531925112218739e-02  1.2732807931552617e-01  7.5513906658890906e-01  8.2589084940192170e-01  7.1260335334913716e-01  7.6949660868916214e-01  7.3388504126041565e-01  7.9218964356501054e-01  8.0865117067414993e-01  8.5121977190369136e-01  7.2607045758290256e-01  7.4016684975917058e-01  8.0565535971617908e-01  7.5043874909691144e-01  8.7647459022102847e-01  8.4121856400672768e-01  6.7167485004992994e-07  4.7236597776723073e-02  4.4641389834567009e-02  4.5783424982667895e-02  1.4096352659920236e-01  6.9169208094116807e-01  6.5550001342543696e-01  7.3219726054993861e-01  7.7686924086679421e-01  5.9005318095435511e-01  7.3250465864811065e-01  6.9510798182460809e-01  6.5708689909414941e-01  6.2321076412695176e-01  6.3166130507413920e-01  5.9003123436154070e-01  7.3246628691190663e-01  6.9508958959620459e-01  6.5708354330542085e-01  6.2322003994216590e-01  6.7225827222498458e-01  6.3164019079829747e-01  7.5511154147792192e-01  5.0445935824843025e-02  5.2416299071940793e-02  4.2746859450078217e-01  5.2201796762929131e-01  3.9145215082705276e-01  4.7575533817057314e-01  4.0843805287288687e-01  4.7268817001943053e-01  5.6563388961768957e-01  5.2018239362852214e-01  4.9900542283821453e-01  5.8011993495068093e-01  5.4141577421533338e-01  5.4141417351812493e-01  4.7266524585234942e-01  6.1605328276591209e-01  5.6560483296981168e-01  5.2014937212528489e-01  4.9896037685782213e-01  5.9826298312105686e-01  5.7295400745772185e-01  6.5552116297474372e-01  6.9731438679022817e-01  6.4833506864142343e-01  7.0181273987613768e-01  6.7293906661153424e-01  5.9754136064771268e-01  6.4721112874847297e-01  3.7874024566994485e-01  3.6979094932646639e-01  3.1290265514093418e-01  2.9768429325259405e-01  3.9869471802256029e-01  3.8797449203667367e-01  4.2736156719268709e-01  5.2206350057768747e-01  4.7581176385734314e-01  5.4131212627987169e-01  6.2346282053982349e-01  5.9524690148778658e-01  5.1891068331546764e-06  1.5670613368364002e-02  -2.2309888488087217e-05  3.1269398593106297e-02  2.1375416088155120e-02  2.1337560685270200e-02  1.5534703298048461e-02  5.7041894051127229e-01  2.6680081798289479e-01  1.9153766426180008e-01  2.2864777794397109e-01  4.2263867001575248e-05  3.4538832163350186e-02  4.4889205755545064e-01  3.7686098816314850e-01  4.2272308516554979e-01  5.4718781175904363e-01  5.5800300856437934e-01  5.4716714446579284e-01  5.5796139776763887e-01  3.4473072644051589e-01  4.4896067308995707e-01  3.7673114445478956e-01  4.2269495822664704e-01  3.6096953510071667e-01  2.2549314584629854e-01  2.6923264533220753e-01  2.4660045321384277e-01  3.0572830070476392e-01  2.0363903966373273e-01  1.8265716706004542e-01  1.1304549258172841e-01  8.3411630339524845e-01  6.9151446086366664e-01  6.9151349483666325e-01  6.1876061887933920e-01  6.1876102181156545e-01  3.8582894108650997e-02  1.6731664084659828e-01  1.0232335954880610e-01  1.4138794719998923e-01  1.0054959498962192e-01  9.4230568124116426e-02  5.4293952184546523e-01  6.4356935735240117e-01  3.4177722600955229e-01  5.4291581632476560e-01  4.4000788216879133e-01  4.8033991593203018e-01  7.1292943437474920e-05  1.1365535351333476e-02  2.4606377067991588e-05  3.9329601160453996e-02  5.0670763715805145e-02  4.4441585155547823e-02  5.0675222637792831e-02  4.4450156000757128e-02  3.9419386196596275e-02  1.1359917734798788e-02  9.5466284088293451e-03  1.2769524953302740e-02  2.8438432918620079e-02  4.1189140397924325e-02  4.1193054375795769e-02  2.8457066867862257e-02  2.0494145845246191e-02  1.2074561334843676e+00  1.2074561330816684e+00  1.2068972074526729e+00  1.1531832699585187e+00  1.1531829712717756e+00  8.6316508122193325e-01  9.2990827684796673e-01  9.2200347122201043e-01  8.9672260084297051e-01  8.9243766223824272e-01  9.2198911946707096e-01  2.4753469228425659e-01  2.1125425777005663e-01  1.6940783995550965e-01  2.9361054850219653e-01  8.0548885053341579e-01  7.7756238706262371e-01  7.9484839390533712e-01  7.9486352242257463e-01  7.6061349616571505e-01  7.6061998852369062e-01  8.5850626345912084e-01  8.2659992933551396e-01  8.2661236778201030e-01  8.2515343662677587e-01  2.2098764920050898e-01  2.2656917480018049e-01  1.8702795412085571e-01  2.3257265601884794e-01  3.0649738855849112e-01  4.0787161003693845e-01  3.6528793584272007e-01  3.2179343681747874e-01  6.0957856553455769e-01  6.9241890267590567e-01  6.5150812524106327e-01  6.9872723637867140e-01  6.7444706551260014e-01  6.9870894635421044e-01  6.7447503677600529e-01  6.5148619691282894e-01  7.7681240059977963e-01  7.3831355935683241e-01  7.3214349023544234e-01  6.9243906163144253e-01  4.2931223138659319e-01  3.8530493545839162e-01  3.4020083575512799e-01  4.5469726349630246e-01  3.5102976976539862e-01  4.0952577444311372e-01  3.6306943455985691e-01  4.4141526227076827e-01  1.9912435002719542e-01  2.4725316555545193e-01  2.5586135444640407e-01  4.8526125287651323e-01  5.0282751794290947e-01  4.3921555741655466e-01  6.1607168651772204e-01  5.9006603591429085e-01  5.7262719045422794e-01  6.0954169106415268e-01  6.9174825865046519e-01  6.5120774328675735e-01  2.3610152683342756e-01  2.1434143023106961e-01  3.0745755134889957e-06  3.1812894293153648e-02  3.7876718016359640e-01  3.1293655421339217e-01  2.9755192861048957e-01  3.3217178998171182e-01  3.1420282914883946e-01  3.9861925031882062e-01  3.8802224727105061e-01  3.5616761458309759e-01  3.3214483219631563e-01  4.8529361932424281e-01  4.3918016473238458e-01  5.1406661010313082e-01  3.2651058646417240e-06  9.8699296263155632e-03  -1.4009307715300668e-05  1.9697663187869859e-02  1.3460701190414655e-02  1.3438401101734502e-02  9.7872526380355807e-03  2.3616559495459966e-01  2.1432502915541529e-01  4.5470992634811080e-01  4.0951966694809988e-01  4.4146474708197392e-01  4.2926330969944554e-01  3.2179866679352936e-01  5.2406152986757285e-02  5.0459687690485665e-02  -3.9085522342550590e-05  2.3262269810821584e-01  1.8695113714496436e-01  2.2096330887420099e-01  1.4084578141642476e-01  1.3691505661840467e-01  1.3348521043531433e-01  2.2653646830600715e-01  4.7213803603799835e-02  3.8801415882177671e-05  4.5796246681831514e-02  4.4612451496061419e-02  4.6621640500278694e-01  3.7157853654955519e-01  4.2331671399134702e-01  4.1372208688667300e-01  3.9240790356944000e-01  2.6911418156756195e-01  3.2869801119111203e-01  1.1306127396978641e-01  2.0363732099781090e-01  1.2992068183303945e-01  1.2041848260286106e-01  1.6790882358430800e-01  3.8473559368200135e-02  4.1608341952123450e-02  3.1669063926304392e-01  3.1669432541344783e-01  2.5981269681677932e-01  2.8871156858004615e-01  2.8871256099693066e-01  2.3266006912155918e-01  2.7137961850302672e-01  2.5097382965739179e-01  1.9696357881386858e-01  2.3839438806652541e-01  2.7140532280900198e-01  2.5088765861454154e-01  2.3287070241961003e-01  2.3838372207265968e-01  1.2994045387609607e-01  1.6791944850154653e-01  1.2050180320863915e-01  2.3940992704536557e-01  2.7764616022632904e-01  1.0055969792631676e-01  1.4521917336900925e-01  4.8687062449135947e-02  9.4166365412647376e-02  8.9123768083985297e-02  7.6357325477192395e-01  8.3408011942996652e-01  8.2913137956133653e-01  7.6930455969305078e-01  7.6363563006433033e-01  7.6448882499186771e-02  2.6609745285680347e-01  2.1707675359616499e-01  3.0240882864020990e-01  2.9364686039423205e-01  3.4459341836891144e-01  3.0241586668050685e-01  2.9365148172746047e-01  8.8981134223845001e-02  1.4198009057790853e-01  2.3094960353847954e-01  2.3094786549744148e-01  1.4192772249959651e-01  8.9052377950673792e-02  2.6397481147859592e-01  2.1586610103345147e-01  4.7218108384949109e-01  2.7761263720931850e-01  2.3941241699462346e-01  3.3064453987103981e-01  2.9417925126133332e-01  5.2975694287312725e-01  4.6923364730125200e-01  6.2994337965841940e-01  6.0927067840933646e-01  6.5801549492562150e-01  6.4357668726361483e-01  6.5802522667464458e-01  7.2404678520743393e-01  6.0926563584517934e-01  3.1506320624543938e-01  3.7643264966301898e-01  6.2993146019899482e-01  4.6932775450495651e-01  8.9025924354589125e-01  8.9026376618111602e-01  8.0065369325288505e-01  7.1142220115351806e-01  4.8919476990640870e-01  4.4011170193153570e-01  4.1037428237882495e-01  4.8034789817786727e-01  4.7216484247216861e-01  2.9766143275982378e-02  5.7621069701155631e-02  2.0267698661258388e-01  1.7050436549155143e-01  4.4445892743063433e-05  7.1587300900479052e-03  1.5983345340594726e-05  2.4776196303412976e-02  3.1925417267801078e-02  2.7998241063222129e-02  3.1931351354177795e-02  2.8008847041518424e-02  2.4840789383159364e-02  2.0270133919982436e-01  1.7039865801747928e-01  7.1612362818196012e-03  6.0230557473222304e-03  8.0436568895774063e-03  1.7914321205578520e-02  2.5949966524418101e-02  2.5954078462792823e-02  1.7931496151592702e-02  1.2923777360583991e-02  1.1292246911546386e+00  1.1265327442278927e+00  1.0999254075657960e+00  1.1265320734648481e+00  1.1292246725636874e+00  1.0999352609626982e+00  1.0778724821884775e+00  1.0470682859845193e+00  1.0274766069577366e+00  1.0211026806127925e+00  9.9537099424166819e-01  1.0970552133001144e+00  1.0688666267034062e+00  1.0688655810217722e+00  1.0407581980809872e+00  1.0407550633427356e+00  1.0110862104014817e+00  1.0110836588618426e+00  9.8141916358944647e-01  1.0778724995600704e+00  1.0470652631849717e+00  1.0210991488621322e+00  1.0274766037863421e+00  9.9539580798814042e-01  9.7863568450600069e-01  9.4499571041824992e-01  9.3167766690006515e-01  9.2067059739214263e-01  8.9682515654170403e-01  9.8499227390598976e-01  9.5728356066850151e-01  9.5356684004248127e-01  9.8499843756352923e-01  9.5355306582434052e-01  9.5727050861981100e-01  9.2989668667827119e-01  8.9670662232915566e-01  9.7863560776752279e-01  9.4499309023557421e-01  9.2067066434686884e-01  9.3167691036860967e-01  8.9687951920477049e-01  6.5015688887406575e-01  5.9387624124330551e-01  6.0344708075796927e-01  3.3409862638572252e-01  3.7416203415008153e-01  5.2911546206752924e-01  4.9119873981143553e-01  4.5269671508094494e-01  6.2408258625076918e-01  6.3533944252328223e-01  6.4721183421763895e-01  6.7293164657458548e-01  6.8696166110847645e-01  7.0181754622018411e-01  8.7644754972057770e-01  8.5040945627839570e-01  8.4125338272906780e-01  8.2507790704026140e-01  7.8811610827582268e-01  8.8721440928031392e-01  8.5109850687775490e-01  8.2950689179912385e-01  8.4553329508239106e-01  8.0867960469005573e-01  5.4855440171118774e-01  5.0978666496010183e-01  4.7035675375053171e-01  5.5913025248934634e-01  5.7041616184970867e-01  4.8018550092237539e-01  5.3094196974681485e-01  1.3349597190816431e-01  1.7736572144553789e-01  1.3690004809679976e-01  3.4846237806231678e-01  3.8968901726875466e-01  3.9849952335946814e-01  5.9527604457061067e-01  6.0889130635196065e-01  6.2346879900614594e-01  5.5511448111135830e-01  5.8288162138726929e-01  7.6947365372853804e-01  7.5121155836676323e-01  7.3392155229524048e-01  2.1472352911142617e-01  2.3560796869154974e-01  4.5723095634902838e-01  5.7265754413411019e-01  5.9005416970900748e-01  5.3609845115403654e-01  5.8113635913432582e-01  3.0529766097940575e-01  2.8636861334407843e-01  2.7037196267147984e-01  3.4413442220648328e-02  4.2750320864237187e-05  3.2977160514380988e-02  6.5013864852747660e-01  6.2412492277506759e-01  6.0341010315615540e-01  5.9389203424085191e-01  2.0541813439666809e-06  6.2125463134349796e-03  -8.8483152524090546e-06  1.2401438474355495e-02  8.4675505967167497e-03  8.4530539045045584e-03  6.1627425006346897e-03  5.3091202168277896e-01  4.9068754760635935e-01  5.4851809075992486e-01  5.09779973