<?xml version="1.0"?>
<VTKFile type="UnstructuredGrid"  version="0.1"  >
<UnstructuredGrid>
<Piece  NumberOfPoints="1646" NumberOfCells="3160">
<Points>
<DataArray  type="Float64"  NumberOfComponents="3"  format="ascii">-1 1 0  -0.75 1 0  -1 0.75 0  -0.5 1 0  -0.75 0.75 0  -1 0.5 0  -0.25 1 0  -0.5 0.75 0  -0.75 0.5 0  -1 0.25 0  1 1 0  1 1.110223024625157e-16 0  1 0.2500000000000001 0  1 0.5 0  1 0.75 0  0.75 1 0  0.5 1 0  0.25 1 0  0 1 0  -0.25 0.75 0  -0.5 0.5 0  -0.75 0.25 0  -1 0 0  0.75 0.75 0  0.75 0 0  0.75 0.25 0  0.75 0.5 0  0.5 0.75 0  0.25 0.75 0  0 0.75 0  -0.25 0.5 0  -0.5 0.25 0  -0.75 0 0  -1 -0.2500000000000001 0  0.5 0.5 0  0.5 0 0  0.5 0.25 0  0.25 0.5 0  0 0.5 0  -0.25 0.25 0  -0.5 0 0  -0.75 -0.2500000000000001 0  -1 -0.5 0  0.25 0.25 0  0.25 0 0  0 0.25 0  -1 -0.75 0  -0.25 0 0  -0.5 -0.25 0  -0.75 -0.5 0  -0.9999999999999999 -1 0  0 0 0  -0.75 -0.75 0  -0.25 -0.25 0  -0.5 -0.5 0  -0.7499999999999999 -1 0  0 -0.25 0  -0.5 -0.75 0  -0.25 -0.5 0  -0.4999999999999999 -0.9999999999999999 0  0 -0.5 0  -0.25 -0.75 0  -0.2499999999999999 -0.9999999999999999 0  0 -0.75 0  0 -0.9999999999999999 0  0.375 0.375 0  0.375 0.25 0  0.375 0.125 0  0.25 0.375 0  0.125 0.375 0  -0.125 0.375 0  -0.375 0.125 0  -0.125 0.25 0  -0.25 0.125 0  0.25 0.125 0  0.125 0.25 0  0.125 0.125 0  0.125 0 0  -0.125 0.125 0  0 0.125 0  -0.375 -0.125 0  -0.125 0 0  -0.25 -0.125 0  -0.375 -0.25 0  -0.125 -0.125 0  0 -0.125 0  -0.375 -0.375 0  -0.125 -0.25 0  -0.125 -0.375 0  0.1875 0.0625 0  0.0625 0.1875 0  -0.0625 0.1875 0  -0.1875 0.0625 0  -0.1875 0 0  -0.1875 -0.0625 0  0.0625 0.0625 0  0.0625 0 0  -0.0625 0.0625 0  0 0.0625 0  -0.0625 0 0  -0.0625 -0.0625 0  0 -0.0625 0  -0.625 -0.625 0  -0.5 -0.625 0  -0.375 -0.5 0  -0.0625 -0.1875 0  -0.375 -0.625 0  -0.375 -0.75 0  -0.125 -0.5 0  -0.25 -0.625 0  -0.3749999999999999 -0.875 0  -0.3749999999999999 -0.9999999999999999 0  -0.125 -0.625 0  0 -0.625 0  -0.2499999999999999 -0.875 0  -0.125 -0.75 0  -0.1249999999999999 -0.875 0  -0.1249999999999999 -0.9999999999999999 0  0 -0.875 0  0.125 0.0625 0  0.0625 0.125 0  -0.0625 0.125 0  -0.125 0.0625 0  -0.125 -0.0625 0  -0.0625 -0.125 0  -0.375 0.875 0  -0.625 0.625 0  -0.375 0.75 0  -0.5 0.625 0  -0.875 0.375 0  -0.625 0.5 0  -0.75 0.375 0  -0.125 0.875 0  -0.375 0.625 0  -0.125 0.75 0  -0.25 0.625 0  -0.625 0.375 0  -0.375 0.5 0  -0.5 0.375 0  -0.875 0.125 0  -0.625 0.25 0  -0.75 0.125 0  0.625 0.125 0  0.625 0.25 0  0.625 0.375 0  0.125 0.625 0  -0.125 0.625 0  0 0.625 0  -0.375 0.375 0  -0.125 0.5 0  -0.25 0.375 0  -0.625 0.125 0  -0.375 0.25 0  -0.5 0.125 0  -0.625 0 0  0.5 0.125 0  -0.625 -0.125 0  0.03125 0.03125 0  0.03125 0 0  -0.03125 0.03125 0  0 0.03125 0  -0.03125 0 0  -0.03125 -0.03125 0  0 -0.03125 0  0.09375 0.03125 0  0.03125 0.09375 0  -0.03125 0.09375 0  0 0.09375 0  -0.09375 0.03125 0  -0.09375 0 0  -0.09375 -0.03125 0  -0.03125 -0.09375 0  0.0625 0.03125 0  0.03125 0.0625 0  -0.03125 0.0625 0  -0.0625 0.03125 0  -0.0625 -0.03125 0  -0.03125 -0.0625 0  -0.875 0.875 0  -0.625 1 0  -0.75 0.875 0  -0.875 0.75 0  -0.625 0.875 0  -0.875 0.625 0  0.875 0.875 0  1 0.1250000000000001 0  0.875 5.551115123125783e-17 0  1 0.3750000000000001 0  0.875 0.1250000000000001 0  0.875 0.2500000000000001 0  1 0.625 0  0.875 0.375 0  0.875 0.5 0  0.875 0.75 0  0.875 0.625 0  0.75 0.875 0  0.625 0.875 0  0.5 0.875 0  0.375 0.875 0  0.25 0.875 0  0.125 0.875 0  0.75 0.625 0  0.625 0.75 0  0.625 0.625 0  0.75 0.125 0  0.75 0.375 0  0.375 0.75 0  0.5 0.625 0  0.375 0.625 0  0.125 0.75 0  0.25 0.625 0  -0.875 -0.125 0  -0.75 -0.125 0  -0.875 -0.2500000000000001 0  0.5 0.375 0  0.375 0.5 0  0.4375 0.4375 0  0.125 0.5 0  0.3125 0.4375 0  0 0.375 0  0.0625 0.4375 0  -0.0625 0.4375 0  -0.375 0 0  -0.5 -0.125 0  -0.4375 0.0625 0  -0.4375 -0.0625 0  -0.875 -0.375 0  -0.625 -0.25 0  -0.75 -0.375 0  -0.875 -0.5 0  0.0625 0.3125 0  -0.0625 0.3125 0  -0.875 -0.625 0  -0.3125 0.0625 0  -0.3125 -0.0625 0  -0.625 -0.375 0  -0.5 -0.375 0  -0.625 -0.5 0  0.015625 0.015625 0  0.015625 0 0  -0.015625 0.015625 0  0 0.015625 0  -0.015625 0 0  -0.015625 -0.015625 0  0 -0.015625 0  0.046875 0.015625 0  0.015625 0.046875 0  -0.015625 0.046875 0  0 0.046875 0  -0.046875 0.015625 0  -0.046875 0 0  -0.046875 -0.015625 0  -0.015625 -0.046875 0  0.03125 0.015625 0  0.015625 0.03125 0  -0.015625 0.03125 0  -0.03125 0.015625 0  -0.03125 -0.015625 0  -0.015625 -0.03125 0  0.625 0 0  0.6875 0.0625 0  0.625 0.5 0  0.6875 0.4375 0  -0.1875 0.4375 0  -0.4375 0.1875 0  0.5625 0.4375 0  0.375 0 0  0.4375 0.0625 0  0.5625 0.0625 0  0.5 0.0625 0  0.4375 0.1875 0  0.5625 0.1875 0  -0.1875 0.3125 0  -0.3125 0.1875 0  -0.1875 0.25 0  -0.25 0.1875 0  -0.1875 0.1875 0  -0.3125 0.3125 0  -0.25 0.3125 0  -0.3125 0.25 0  0.3125 0.3125 0  0.3125 0.25 0  0.3125 0.1875 0  0.1875 0.3125 0  0.25 0.1875 0  0.1875 0.25 0  0.1875 0.1875 0  0.3125 0.0625 0  0.25 0.0625 0  -1 -0.875 0  -0.875 -0.75 0  -0.4375 -0.3125 0  -0.75 -0.625 0  -0.875 -0.875 0  -0.8749999999999999 -1 0  0.0078125 0.0078125 0  0.0078125 0 0  -0.0078125 0.0078125 0  0 0.0078125 0  -0.0078125 0 0  -0.0078125 -0.0078125 0  0 -0.0078125 0  -0.75 -0.875 0  -0.625 -0.75 0  -0.6875 -0.6875 0  -0.25 -0.375 0  -0.3125 -0.1875 0  -0.25 -0.1875 0  -0.3125 -0.25 0  -0.1875 -0.1875 0  -0.3125 -0.3125 0  -0.1875 -0.25 0  -0.1875 -0.3125 0  -0.625 -0.875 0  -0.6249999999999999 -1 0  0 -0.375 0  -0.0625 -0.25 0  -0.0625 -0.3125 0  -0.4999999999999999 -0.875 0  -0.5625 -0.6875 0  -0.4375 -0.8125 0  -0.3125 -0.4375 0  -0.1875 -0.4375 0  -0.1875 -0.5 0  -0.1875 -0.5625 0  -0.4374999999999999 -0.9375 0  -0.0625 -0.4375 0  -0.0625 -0.5 0  -0.0625 -0.5625 0  0.375 0.1875 0  0.3125 0.125 0  0.4375 0.125 0  0.125 0.3125 0  -0.125 0.3125 0  -0.1875 0.375 0  -0.3125 0.125 0  -0.375 0.1875 0  -0.125 0.1875 0  -0.1875 0.125 0  0.1875 0.125 0  0.21875 0.09375 0  0.125 0.1875 0  0.15625 0.09375 0  -0.3125 -0.125 0  -0.1875 -0.125 0  -0.375 -0.3125 0  -0.125 -0.1875 0  -0.09375 -0.15625 0  -0.125 -0.3125 0  -0.09375 -0.21875 0  -0.125 -0.4375 0  0.5625 0.125 0  0.0234375 0.0078125 0  0.0078125 0.0234375 0  -0.0078125 0.0234375 0  0 0.0234375 0  -0.0234375 0.0078125 0  -0.0234375 0 0  -0.0234375 -0.0078125 0  -0.0078125 -0.0234375 0  0.015625 0.0078125 0  0.0078125 0.015625 0  -0.0078125 0.015625 0  -0.015625 0.0078125 0  -0.015625 -0.0078125 0  -0.0078125 -0.015625 0  -1 0.625 0  -0.9375 0.6875 0  -0.375 1 0  -0.5 0.875 0  -0.4375 0.9375 0  -0.5625 0.9375 0  -0.625 0.75 0  -0.75 0.625 0  -0.6875 0.6875 0  -0.6875 0.8125 0  -0.8125 0.6875 0  -0.875 0.5 0  -1 0.375 0  -0.9375 0.4375 0  -0.9375 0.5625 0  -0.125 1 0  -0.25 0.875 0  -0.3125 0.9375 0  -0.1875 0.9375 0  -0.4375 0.8125 0  -0.5625 0.6875 0  -0.5625 0.8125 0  -0.6875 0.5625 0  -0.8125 0.4375 0  -0.8125 0.5625 0  -0.875 0.25 0  -1 0.125 0  -0.9375 0.3125 0  -0.9375 0.1875 0  0.125 1 0  0 0.875 0  -0.0625 0.9375 0  0.0625 0.9375 0  -0.3125 0.8125 0  -0.1875 0.8125 0  -0.3125 0.6875 0  -0.1875 0.75 0  -0.1875 0.6875 0  -0.4375 0.5625 0  -0.5625 0.4375 0  -0.4375 0.5 0  -0.5 0.4375 0  -0.4375 0.4375 0  -0.8125 0.3125 0  -0.6875 0.3125 0  -0.8125 0.1875 0  -0.75 0.1875 0  -0.6875 0.1875 0  -0.875 0 0  -1 -0.125 0  -0.9375 0.0625 0  -0.9375 -0.06250000000000001 0  0.1875 0.8125 0  -0.0625 0.8125 0  0.0625 0.6875 0  -0.0625 0.6875 0  0.0625 0.8125 0  0.0625 0.75 0  -0.3125 0.5625 0  -0.25 0.5625 0  -0.3125 0.5 0  -0.1875 0.5625 0  -0.3125 0.4375 0  -0.25 0.4375 0  -0.5625 0.3125 0  -0.5 0.3125 0  -0.5625 0.25 0  -0.4375 0.3125 0  -0.5625 0.1875 0  -0.4375 0.25 0  -0.8125 0.0625 0  -0.6875 0.0625 0  -0.6875 -0.06250000000000001 0  -0.8125 -0.06250000000000001 0  -0.75 -0.06250000000000001 0  0.4375 0.3125 0  0.4375 0.25 0  0.25 0.4375 0  0.1875 0.4375 0  0.1875 0.5625 0  0.1875 0.5 0  0.0625 0.5625 0  -0.0625 0.5625 0  0 0.5625 0  -0.0625 0.5 0  0.0625 0.5 0  -0.5625 0.0625 0  -0.5 0.0625 0  -0.5625 0 0  -0.5625 -0.06250000000000001 0  -0.5 -0.0625 0  -0.8125 -0.1875000000000001 0  0.1875 0 0  0.21875 0.03125 0  -0.0625 0.25 0  0.0625 0.25 0  0 0.1875 0  0.03125 0.21875 0  -0.03125 0.21875 0  0 0.3125 0  0.03125 0.28125 0  -0.03125 0.28125 0  -0.25 0.0625 0  -0.25 -0.0625 0  -0.21875 0.03125 0  -0.21875 -0.03125 0  -0.3125 0 0  -0.28125 0.03125 0  -0.4375 -0.1875 0  -0.4375 -0.25 0  -0.5625 -0.1875 0  -0.5 -0.1875 0  0.00390625 0.00390625 0  0.00390625 0 0  -0.00390625 0.00390625 0  0 0.00390625 0  -0.00390625 0 0  -0.00390625 -0.00390625 0  0 -0.00390625 0  0 -0.1875 0  -0.03125 -0.21875 0  0.375 0.3125 0  0.1875 0.375 0  0.125 0.4375 0  -0.09375 0.21875 0  -0.21875 0.09375 0  0.09375 0.21875 0  0.09375 0.28125 0  0.09375 0.15625 0  0.15625 0.03125 0  0.03125 0.15625 0  -0.03125 0.15625 0  0.03125 0.125 0  -0.375 -0.1875 0  -0.4375 -0.125 0  -0.21875 -0.09375 0  -0.03125 -0.15625 0  0.0625 0.15625 0  -0.125 0.8125 0  -0.3125 0.625 0  -0.625 0.3125 0  -0.375 0.4375 0  -0.4375 0.375 0  -0.8125 0.125 0  0.125 0.5625 0  -0.0625 0.625 0  -0.125 0.5625 0  -0.3125 0.375 0  -0.375 0.3125 0  -0.5625 0.125 0  -0.625 0.0625 0  -0.5625 -0.125 0  0.125 0.8125 0  -0.8125 -0.125 0  -0.03125 0.34375 0  -0.0625 0.375 0  -0.34375 0.03125 0  -0.375 0.0625 0  0.01171875 0.00390625 0  0.00390625 0.01171875 0  -0.00390625 0.01171875 0  0 0.01171875 0  -0.01171875 0.00390625 0  -0.01171875 0 0  -0.01171875 -0.00390625 0  -0.00390625 -0.01171875 0  0.0078125 0.00390625 0  0.00390625 0.0078125 0  -0.00390625 0.0078125 0  -0.0078125 0.00390625 0  -0.0078125 -0.00390625 0  -0.00390625 -0.0078125 0  -0.875 1 0  -1 0.875 0  -0.9375 0.9375 0  -0.8125 0.9375 0  -0.9375 0.8125 0  1 0.875 0  0.875 1 0  0.9375 0.9375 0  0.9375 0.06250000000000008 0  0.9375 0.1875000000000001 0  0.9375 0.3125000000000001 0  0.9375 0.8125 0  0.9375 0.75 0  0.9375 0.6875 0  0.625 1 0  0.8125 0.9375 0  0.75 0.9375 0  0.6875 0.9375 0  0.375 1 0  0.5625 0.9375 0  0.5 0.9375 0  0.4375 0.9375 0  0.3125 0.9375 0  0.25 0.9375 0  0.1875 0.9375 0  0.8125 0.8125 0  0.6875 0.8125 0  0.8125 2.775557561562891e-17 0  0.8125 0.06250000000000003 0  0.75 0.0625 0  0.
[...]
<PointData  Scalars="u"> 
<DataArray  type="Float64"  Name="u"  format="ascii">1.2599822390667728e+00  1.1551570690774409e+00  1.1551534007155253e+00  1.0524405649526849e+00  1.0399834120724494e+00  1.0524430313076591e+00  9.5488728455960881e-01  9.2508375838805978e-01  9.2508586141469173e-01  9.5488728247951804e-01  6.3007058545535077e-01  -2.5641476968161826e-05  1.6593030423402064e-01  3.2772591932867179e-01  4.8278615302796818e-01  6.7251336239455206e-01  7.2485149179321240e-01  7.8898405647475067e-01  8.6603066332018352e-01  8.1435966640886437e-01  7.9377065998293228e-01  8.1440177909807587e-01  8.6603192488153435e-01  5.2001747572102630e-01  7.6816311975607909e-05  1.8194437968625876e-01  3.5653350126190164e-01  5.6849930227415801e-01  6.3242644019297811e-01  7.1471515393808382e-01  6.6292657101703223e-01  6.6292864565674259e-01  7.1471222703004778e-01  7.8893779563277122e-01  3.9675893053326716e-01  -1.2212915745878273e-05  2.0644396256042938e-01  4.5659137993664817e-01  5.4528965961570963e-01  4.9986250848128677e-01  5.4529096282051126e-01  6.3242146714129766e-01  7.2473567145555995e-01  2.5002995560331470e-01  1.1769640884184030e-04  3.4349348733850232e-01  6.7245624611188537e-01  3.4353285789369392e-01  4.5656347117938967e-01  5.6850666495270763e-01  6.2998134153168639e-01  4.6060830176512151e-04  5.1993959434210135e-01  2.5000956465253249e-01  3.9668043282476351e-01  4.8271876517883161e-01  1.1755275465768284e-04  3.5659127557687287e-01  2.0638555558815952e-01  3.2777120787402853e-01  3.7167129547896870e-05  1.8193304651699294e-01  1.6596653531721511e-01  8.0512716568676700e-05  -2.5743013661971959e-05  3.2755175457797409e-01  2.2449934782215747e-01  1.1463724570214122e-01  3.5812873031334835e-01  3.9830079843715127e-01  5.1301950763388249e-01  5.1293126732440852e-01  4.1753191535991691e-01  4.1756868186992385e-01  1.2993093733375299e-01  2.8753271700463984e-01  1.5756901068478954e-01  -9.9805520673241675e-05  3.1477122404089497e-01  2.1626518885262322e-01  3.9830817061251028e-01  2.1609493217448714e-01  2.8753309954300910e-01  3.5818209251081806e-01  1.5757874850964723e-01  -9.9837061029704266e-05  3.2755695928162415e-01  1.2989172183253059e-01  1.1467645798902074e-01  7.2209630563061206e-02  2.5076633494043427e-01  3.2300138326744421e-01  3.2302399217193523e-01  2.8338648653347509e-01  2.5088332273909769e-01  9.9256919080452241e-02  -3.1242236950057871e-04  1.9827598390848605e-01  1.3617258332646814e-01  1.3602022788104295e-01  9.9270649449270124e-02  -3.1241333900356837e-04  4.6043920635059948e-01  3.7476643545421973e-01  3.0384248739016689e-01  7.2213243917352635e-02  2.8548904314188683e-01  2.7044531002685934e-01  1.0448919444472163e-01  1.9260077176193197e-01  2.5805252482974067e-01  2.4755435293815584e-01  9.7094513625184092e-02  -4.0826328566861319e-05  1.7321279621126778e-01  9.1454159953098607e-02  8.6987556754700782e-02  8.3226033630638352e-02  -8.6008716949941954e-05  8.1678904028756730e-02  1.8083566990660899e-01  2.6279739373556871e-01  2.6284398166949363e-01  1.8086044870553328e-01  8.1685559045681214e-02  9.3670812750255306e-01  9.2099108952171505e-01  8.6872703518886185e-01  8.5964551581762649e-01  9.3673586855855473e-01  8.5964646638659903e-01  8.6872776368737292e-01  8.3741384437953614e-01  7.9899637559599557e-01  7.6278749150272762e-01  7.4011439907411092e-01  7.9910170400827163e-01  7.2764202733115702e-01  7.2764284179849670e-01  8.3750324496045969e-01  7.4011546452081900e-01  7.6278704312109114e-01  9.7276446140300246e-02  1.9266176514307967e-01  2.8537325225718824e-01  5.8721347318602346e-01  6.8427750165315870e-01  6.3297476624706850e-01  6.5507115889640366e-01  6.0128292029208608e-01  5.8263643346858918e-01  6.8419371253286121e-01  5.8263953148226366e-01  6.0128612484015276e-01  6.3290193696034014e-01  1.0438722651534257e-01  5.8717405032263681e-01  6.2652640564149362e-02  -1.6017795914303860e-04  1.2479463324879492e-01  8.5512577763070544e-02  8.5328465157596789e-02  6.2658250519377290e-02  -1.6016626869344515e-04  4.5545638305519977e-02  1.5783393398865639e-01  2.0335046203031876e-01  1.7854249039617998e-01  2.0333203526282717e-01  1.7837078400458126e-01  1.5801966289781746e-01  4.5550536991690364e-02  5.1460111542400051e-02  1.1384070620829315e-01  1.6533232016372673e-01  1.6533838288779379e-01  1.1385474099603765e-01  5.1466132581835994e-02  1.1525689649345878e+00  1.1034814067275798e+00  1.0977772557841277e+00  1.0977895538445284e+00  1.0431772040968443e+00  1.0431340175443000e+00  5.7629731616466939e-01  8.3220811368198255e-02  -6.7606953349631324e-05  2.4747991918253892e-01  8.6971850366619391e-02  1.7317856592736258e-01  4.0612821101165231e-01  2.5815523828686454e-01  3.4092693732093937e-01  5.0020306031528494e-01  4.2175977604665349e-01  5.9746128326310410e-01  6.2147722076810108e-01  6.4831155479602653e-01  6.7866604045106416e-01  7.1258714942150569e-01  7.5049479056166157e-01  4.3963112974812296e-01  5.4253308116159982e-01  4.6051823912342310e-01  9.1468199972636305e-02  2.7058554372414939e-01  5.9829748231392199e-01  4.8474826691089251e-01  5.1348245174905127e-01  6.7119724445479545e-01  5.4744812535100140e-01  7.5049038287664727e-01  6.7119256955601259e-01  7.1262760526932989e-01  3.0407423414398088e-01  4.2349366820902068e-01  3.6297735629146149e-01  4.9674428556820788e-01  3.9132810795558681e-01  4.5018160693223175e-01  4.7267393412946929e-01  5.2736298403953497e-01  4.5019854807028559e-01  4.9678147328641353e-01  5.2736923223218746e-01  4.7267569134626736e-01  6.7871193038410793e-01  5.4735696194251315e-01  5.9830396054439183e-01  6.4835201231444306e-01  3.6971484681996203e-01  4.3095332002920944e-01  6.2148172110020172e-01  4.3092313320622233e-01  3.6969595578419567e-01  5.1348449765942961e-01  4.2348431435451322e-01  4.8483356942727973e-01  3.9437494489292173e-02  -9.8943042179444498e-05  7.8727016176424594e-02  5.3835930428666370e-02  5.3717366200525189e-02  3.9439641112618044e-02  -9.8938937772068041e-05  2.8651987495515379e-02  9.9232319556101137e-02  1.2766487945808044e-01  1.1215672063706282e-01  1.2766884416299321e-01  1.1216190917974787e-01  9.9423471091434470e-02  2.8654914009140033e-02  3.2001876207591838e-02  7.1634156192962567e-02  1.0368536067161303e-01  1.0368714616327687e-01  7.1638791786557798e-02  3.2004616992710844e-02  1.4945348741157722e-06  4.7031889085152434e-02  3.7477246681678333e-01  3.2176202808456444e-01  5.8995849161509506e-01  5.8993102857985436e-01  3.4015956052447566e-01  4.4423404406176810e-06  5.4561772776762711e-02  5.0452635173408047e-02  5.2600743569149538e-02  1.6253440947734565e-01  1.5022404369183057e-01  5.0316377866100592e-01  5.0317215669600512e-01  4.5818196076804291e-01  4.5819624281477606e-01  4.1260181713829769e-01  5.8009280513534334e-01  5.4137508590523364e-01  5.4137822681004832e-01  2.8999690290489261e-01  2.3606008100789733e-01  1.7975426060367944e-01  3.2333576195327363e-01  1.9166481752279166e-01  2.6673396121677206e-01  2.0633190132412613e-01  6.1190707464934865e-02  6.5690066477110592e-02  6.5010607317538960e-01  5.9755009826434813e-01  3.9142775712926076e-01  5.4255513708709080e-01  5.7628137295950677e-01  5.5732234828274485e-01  2.4850349170732276e-02  -6.2174646011295366e-05  4.9601126066596030e-02  3.3905684144742237e-02  3.3830446416328271e-02  2.4851189926016776e-02  -6.2173068038745376e-05  5.0021598152958913e-01  4.3967056067499327e-01  4.9070137978921669e-01  2.2456925261737556e-01  3.2343853086280877e-01  2.6674016187873484e-01  3.0542502684151157e-01  2.0624968447346945e-01  2.9004805206925466e-01  1.9153855962042793e-01  1.7982130246448647e-01  4.2173881042651801e-01  4.0612515550253436e-01  4.7272617746086348e-06  6.5669044724231268e-02  6.1245176202802259e-02  3.4096039761706043e-01  4.0786814395597970e-01  3.0652147609013436e-01  2.6556465307262128e-01  1.6255202459637938e-01  1.5604823358155140e-01  1.5017694254843242e-01  2.9361148721070790e-01  5.4844380298076222e-02  5.2425972771050731e-02  5.0462160844969003e-02  1.7033610237542499e-01  1.2131456146876872e-01  1.0911659569954571e-01  3.4482439686688793e-01  4.6621801005498997e-01  5.4705369771667944e-01  4.6622632713144685e-01  5.4705910541378178e-01  3.6686297350852348e-01  3.6683132777635247e-01  1.4120779854056364e-01  1.0220689482322541e-01  2.2552514834185491e-01  1.1314774121569038e-01  3.4483768205067838e-01  2.2553260081830481e-01  3.4172644121482804e-01  1.4121064237690123e-01  1.1315354032265609e-01  1.2133358201932892e-01  1.0234557816051938e-01  1.0909573235508382e-01  1.0061714776017186e-01  1.8080615809137595e-02  6.2411317277206425e-02  8.0400305907187178e-02  7.0530820195822186e-02  8.0401902807676368e-02  7.0533070409941279e-02  6.2534005579730753e-02  1.8081826978549591e-02  2.0228315565236254e-02  4.5112358134250088e-02  6.5346443082018965e-02  6.5347167794171851e-02  4.5114158261298457e-02  2.0229384814006747e-02  1.1034378535168534e+00  1.0999030001510952e+00  1.0028507587287325e+00  9.8933094075971462e-01  9.9532986065696805e-01  1.0472387115772286e+00  9.8231039128234188e-01  9.8231658047373427e-01  9.8140168695490049e-01  1.0407806378637199e+00  1.0408067623788284e+00  9.8932908058460978e-01  1.0028507598416310e+00  9.9535055495887625e-01  1.0472287250066425e+00  9.0912935069176837e-01  8.8584287447107135e-01  9.4508705922811365e-01  8.9680332804123486e-01  9.2997912384837145e-01  9.2202408219431431e-01  9.8499379099593021e-01  9.2202633339554996e-01  9.2997972871495149e-01  9.8503286043052118e-01  8.8584282605876663e-01  9.0912935126947914e-01  9.4508701366548176e-01  8.9684328701355986e-01  8.2586510551887338e-01  7.9219001688671842e-01  8.5124318783603059e-01  8.0863700446635789e-01  8.7645642616500063e-01  8.2515242206114747e-01  8.0553442354713911e-01  7.8813611798443539e-01  7.5035465374453036e-01  7.9501303868356821e-01  7.9501370211997802e-01  7.6041979064939336e-01  7.6042016714821536e-01  7.2599157008818604e-01  8.7644604566215867e-01  8.0553519695043418e-01  8.2515221231364622e-01  7.8813614695254119e-01  7.5036214075941621e-01  7.9218807976969197e-01  8.2584897363464116e-01  8.5124235308176155e-01  8.0863193005531953e-01  6.9168917046683998e-01  7.7682377462578900e-01  6.5151274247447588e-01  6.9866519413395189e-01  7.3216416562009279e-01  6.9241509075379060e-01  7.3245780114759251e-01  7.0186715275237599e-01  6.9493091427401554e-01  6.7217735371152865e-01  6.5707721402027375e-01  6.2318549329423989e-01  7.3250080033391196e-01  6.9493232124763815e-01  7.0186869592369638e-01  6.5707866212303245e-01  6.7217914933403555e-01  6.2318811451866141e-01  7.7682214035243380e-01  6.9866469235853579e-01  6.5153450929051693e-01  7.3216047914279647e-01  6.9241059903158908e-01  2.6553507145223360e-01  2.1478944129174646e-01  4.0834968427243629e-01  4.2744918861201964e-01  5.2201663803896003e-01  4.7569494091754316e-01  5.6557567585745572e-01  6.1604819329711258e-01  5.9002781863864229e-01  5.7268086368290649e-01  5.2015381149423456e-01  6.1615711784140104e-01  5.7268368040559570e-01  5.9002912761167925e-01  5.6556622407607693e-01  5.2014722603255958e-01  6.9167787532760838e-01  1.0373261828320283e-06  3.4532155164825322e-02  3.7877350175395241e-01  3.1297765416363199e-01  2.8345213988537943e-01  2.9770407935977378e-01  3.3217822465241131e-01  3.9862652833883866e-01  3.5626545703473250e-01  3.8807564207268247e-01  3.7876222828183809e-01  3.1290060734166136e-01  3.3211920410019907e-01  2.9769870828345868e-01  3.9879768189133263e-01  3.8797645999446650e-01  4.2734192150632971e-01  4.0830916489518432e-01  5.2193779144629715e-01  4.7572566670828376e-01  1.5651303112285690e-02  -3.9068939190256625e-05  3.1238447152900882e-02  2.1347346549547702e-02  2.1299661713256594e-02  1.5651635055127313e-02  -3.9068321511997397e-05  1.0384426899774951e-06  3.4534284261975218e-02  2.7690451768177010e-01  3.7678148501027714e-01  4.4883951759165813e-01  3.7161401608805922e-01  3.7161853197100186e-01  2.6914548131453592e-01  3.2860761856559118e-01  2.0369097048199106e-01  3.8479111045772250e-02  2.3285402569341343e-01  2.7132804236313057e-01  1.9689054351957022e-01  3.7678547697797343e-01  4.4882809868835544e-01  2.6915263930331795e-01  3.8481671587288373e-02  2.1706720760744061e-01  8.0053351206915213e-01  7.6937868707027701e-01  7.6937967047268774e-01  6.9133568509280374e-01  6.9133626669241643e-01  8.0053283221625238e-01  5.4285612944077177e-01  6.5801596330180046e-01  6.4354827339731113e-01  6.1874049717042146e-01  6.1874165507720136e-01  6.4355010821087855e-01  6.5801660978964949e-01  5.4288023493913551e-01  7.1142134808303792e-01  7.1141602762504585e-01  4.3996360349040264e-01  4.8026008763008765e-01  4.3998412461515835e-01  4.8027116778834117e-01  1.1413946836645860e-02  3.9302541242525482e-02  5.0646908150051170e-02  4.4416603447980450e-02  5.0647556513813911e-02  4.4417510944760964e-02  3.9380451093487423e-02  1.1414419628021656e-02  1.2750466853321228e-02  2.8413248124937198e-02  4.1162655110710406e-02  4.1162947426792003e-02  2.8413959583136628e-02  1.2750885531513717e-02  1.2074506623407759e+00  1.2074521932866893e+00  1.2068086934968441e+00  1.1532264496554019e+00  1.1532399641222613e+00  5.5732409386673154e-01  6.5012582045888256e-01  6.0346124729968609e-01  4.2570913428869303e-02  1.2734925478388720e-01  2.1127956819132546e-01  5.2916494632520472e-01  4.9120421553999638e-01  4.5265313416059072e-01  6.9731497151243005e-01  6.2408840939711130e-01  6.3529811656249269e-01  6.4721841578840444e-01  7.5531802696725059e-01  6.7292061079637144e-01  6.8696878597916300e-01  7.0178477806199513e-01  7.3384272059080313e-01  7.5123097997672794e-01  7.6947143820051100e-01  5.4859946003974291e-01  5.7040422821664249e-01  -3.4260463054927546e-05  4.4685700439976633e-02  4.5778922372328439e-02  1.4093457020959857e-01  1.8708368841171111e-01  2.3259952337309106e-01  1.3349832377795487e-01  1.7737132414196857e-01  2.2100610497952564e-01  1.3688033470780256e-01  2.2656471699724881e-01  3.0654211917787766e-01  4.0786887514149367e-01  6.2346219849815510e-01  5.1407492742054917e-01  5.8286784519451451e-01  5.2716283200152070e-01  5.4124766220122988e-01  6.0946954073306203e-01  6.5549877117530309e-01  6.1473594096841078e-01  5.7284165185650870e-01  5.9054630869591385e-01  7.5512855252375299e-01  7.6940063193617325e-01  7.5118412350818176e-01  7.3382455307872829e-01  4.2929121849594098e-01  4.4138013429037953e-01  4.5466930206905470e-01  4.0947692509021083e-01  3.8531702392661360e-01  1.0366616747481172e-04  1.9898309781892926e-01  2.4715531836590943e-01  2.5577854917244275e-01  4.8520417675486077e-01  5.0277411383920878e-01  4.3920666477817644e-01  4.9897074315208995e-01  5.0935239095794238e-01  4.9897626367590747e-01  5.0935266750289110e-01  6.0946853698393477e-01  6.5551001545627019e-01  5.9050329552585867e-01  6.1473797089691795e-01  5.7288479423283767e-01  6.9717760064437184e-01  7.0168226071328188e-01  6.8689910689377542e-01  6.7293913671099548e-01  -4.3433344903625461e-06  3.1734617558097519e-02  5.0275835782358280e-01  4.8529446499586865e-01  4.3916762987551677e-01  5.1412904508912682e-01  6.2346996100017449e-01  5.8287448785435725e-01  5.4125267243460462e-01  5.2717145216087413e-01  9.8503633061410596e-03  -2.3418055420869308e-05  1.9663368134904463e-02  1.3426426394046139e-02  1.3395674583145386e-02  9.8504947187651997e-03  -2.3417818289796538e-05  2.3614700925004656e-01  2.1425370184277642e-01  3.6294164315040484e-01  4.2928793559900025e-01  3.8523996217423429e-01  3.5099282465263781e-01  3.4015382117131071e-01  4.5467955853899883e-01  4.0949969793476770e-01  4.4137881400484791e-01  -4.2768060252519953e-06  3.1639569314670352e-02  3.6524656617102197e-01  3.2182607673146246e-01  2.5576214374463163e-01  2.4725240866268927e-01  1.9904394294082012e-01  2.1479785992919390e-01  4.8619680880673921e-05  2.3258411858725284e-01  2.2654021831420074e-01  1.8706942093748299e-01  2.2091140204428400e-01  1.4088304342153318e-01  1.7743345583203193e-01  1.3696313171736990e-01  1.3337816880797734e-01  1.2736433509907752e-01  4.7039530421352727e-02  5.7669551372824235e-05  4.5866110159753212e-02  4.4574583398613067e-02  -3.4464891438029995e-05  4.2548538411436063e-02  1.2987144249568772e-01  1.2055595654909662e-01  1.6794922040498866e-01  4.1496159237652354e-02  3.1690036050786030e-01  3.1673499681692430e-01  2.5975486771718209e-01  2.8838876341384434e-01  2.8854649458589060e-01  3.6537846632126242e-01  3.4101167793745252e-01  2.7138119900962071e-01  2.5100215752300153e-01  2.3285093321323402e-01  2.3833663838125715e-01  1.9694156559912171e-01  2.0370350266917836e-01  1.2988544988868206e-01  1.6796441864713998e-01  1.2056501414984813e-01  4.1499750767596016e-02  3.1494913784415141e-01  3.7637520152265208e-01  2.9627220844249980e-01  2.9342733721490549e-01  3.0251521733733111e-01  2.9352377199516350e-01  3.4454088022919610e-01  2.1708032015598344e-01  8.8913122361985980e-02  1.4190370327688626e-01  7.1335706435396024e-02  2.3105856553463835e-01  2.3107086934236803e-01  1.4192568150959425e-01  8.8922787693764480e-02  7.1344298241081142e-02  4.7218048313087613e-01  3.3054976284582799e-01  2.9416752977724014e-01  2.8505707309950662e-01  2.7757717482554839e-01  2.3946320199410895e-01  2.6406890132854055e-01  1.4515643788821464e-01  4.8740762286375812e-02  9.4095743229106826e-02  1.3030589027528741e-01  8.9203451264482689e-02  4.3509724956284565e-02  6.4413546435242414e-02  6.4419771985766913e-02  1.4519893182969054e-01  9.4204947378719553e-02  2.3946505076382957e-01  2.7767271255633691e-01  2.9414152493908041e-01  5.6645975162706330e-01  5.6645247009249589e-01  5.3853848839303231e-01  4.3507589306568707e-02  1.3029857913570175e-01  8.9116285586676280e-02  2.1589963470884554e-01  2.6400499519431275e-01  6.0912238992853052e-01  6.6302406452139040e-01  6.9515222535555077e-01  6.3895134220014449e-01  4.7214218738270575e-01  4.1809983157663999e-01  5.5647858149225049e-01  4.9855805196484415e-01  5.2975571436492319e-01  4.6924504413383988e-01  6.9516469683288595e-01  4.6132233487034108e-01  4.1043316949031272e-01  4.2262600556495700e-01  4.6133037484082223e-01  4.1045148647546059e-01  4.2263304048753897e-01  6.3896966283058942e-01  6.6304436348074314e-01  5.2974873632277852e-01  5.5647831392243041e-01  4.6923771748659926e-01  4.9856219316918632e-01  2.7999430816843047e-02  2.9729151914748793e-02  5.7621949681904171e-02  7.1908572132064743e-03  2.4751667288117205e-02  3.1897461701112018e-02  2.7971702604430475e-02  3.1897721376833083e-02  2.7972064592598177e-02  2.4800649472784795e-02  7.1910430789239154e-03  2.0254927494320693e-01  1.9305734040846970e-01  2.7695287434937754e-01  1.7044841248960260e-01  2.9739128034542418e-02  2.8043506064134430e-02  5.7660418555254361e-02  8.0296430948887908e-03  1.7890790549536167e-02  2.5919639613154643e-02  2.5919756329988192e-02  1.7891072471502529e-02  8.0298082435078331e-03  1.1292251971774290e+00  1.1265404297998403e+00  1.0999253204841650e+00  1.0970528393743750e+00  1.0688571637643411e+00  1.0688526836635073e+00  8.9674225556971787e-01  8.9241544199093137e-01  8.6317859556846532e-01  9.5733842564991722e-01  9.2730061757153892e-01  8.9241716114672898e-01  8.9674345624013119e-01  8.6320341357005737e-01  9.5734009579926982e-01  9.2730199720272688e-01  2.8780753061605308e-01  3.6716905547191936e-01  2.9365638555272683e-01  3.3409289957798960e-01  3.7414752401550022e-01  8.5851449850239803e-01  8.2662057976685732e-01  8.2662098767546099e-01  7.9397235125400600e-01  7.9397271278145443e-01  5.0980846129710711e-01  4.7035914626445302e-01  5.5911828403965547e-01  4.8020108253572569e-01  5.3094261892104944e-01  4.9074337829977294e-01  5.4509740655969441e-01  5.7071819523806831e-05  3.4845523775375498e-01  3.8973979589781527e-01  3.9840985804980511e-01  3.1384564587992908e-01  3.3132814855302001e-01  5.9527004257926097e-01  6.0888893661281063e-01  5.5509390168977957e-01  5.4121864153222310e-01  6.5119575009560404e-01  7.3832346764413803e-01  6.7439177917187321e-01  7.5403791441822843e-01  7.4598004297572706e-01  7.0653306159254503e-01  6