<?xml version="1.0"?>
<VTKFile type="UnstructuredGrid"  version="0.1"  >
<UnstructuredGrid>
<Piece  NumberOfPoints="11379" NumberOfCells="22411">
<Points>
<DataArray  type="Float64"  NumberOfComponents="3"  format="ascii">-1 1 0  -0.75 1 0  -1 0.75 0  -0.5 1 0  -0.75 0.75 0  -1 0.5 0  -0.25 1 0  -0.5 0.75 0  -0.75 0.5 0  -1 0.25 0  1 1 0  1 1.110223024625157e-16 0  1 0.2500000000000001 0  1 0.5 0  1 0.75 0  0.75 1 0  0.5 1 0  0.25 1 0  0 1 0  -0.25 0.75 0  -0.5 0.5 0  -0.75 0.25 0  -1 0 0  0.75 0.75 0  0.75 0 0  0.75 0.25 0  0.75 0.5 0  0.5 0.75 0  0.25 0.75 0  0 0.75 0  -0.25 0.5 0  -0.5 0.25 0  -0.75 0 0  -1 -0.2500000000000001 0  0.5 0.5 0  0.5 0 0  0.5 0.25 0  0.25 0.5 0  0 0.5 0  -0.25 0.25 0  -0.5 0 0  -0.75 -0.2500000000000001 0  -1 -0.5 0  0.25 0.25 0  0.25 0 0  0 0.25 0  -1 -0.75 0  -0.25 0 0  -0.5 -0.25 0  -0.75 -0.5 0  -0.9999999999999999 -1 0  0 0 0  -0.75 -0.75 0  -0.25 -0.25 0  -0.5 -0.5 0  -0.7499999999999999 -1 0  0 -0.25 0  -0.5 -0.75 0  -0.25 -0.5 0  -0.4999999999999999 -0.9999999999999999 0  0 -0.5 0  -0.25 -0.75 0  -0.2499999999999999 -0.9999999999999999 0  0 -0.75 0  0 -0.9999999999999999 0  0.375 0.125 0  0.125 0.375 0  -0.125 0.375 0  -0.375 0.125 0  -0.125 0.25 0  -0.25 0.125 0  0.25 0.125 0  0.125 0.25 0  0.125 0.125 0  0.125 0 0  -0.125 0.125 0  0 0.125 0  -0.375 -0.125 0  -0.125 0 0  -0.25 -0.125 0  -0.125 -0.125 0  -0.125 -0.375 0  -0.375 -0.625 0  -0.125 -0.5 0  -0.25 -0.625 0  -0.3749999999999999 -0.875 0  -0.125 -0.625 0  0 -0.625 0  -0.2499999999999999 -0.875 0  -0.125 -0.75 0  -0.1249999999999999 -0.875 0  -0.1249999999999999 -0.9999999999999999 0  0 -0.875 0  -0.375 0.625 0  -0.625 0.375 0  -0.375 0.5 0  -0.5 0.375 0  -0.375 0.375 0  -0.25 0.375 0  -0.375 0.25 0  0.1875 0.0625 0  0.1875 0 0  0.0625 0.1875 0  -0.0625 0.1875 0  0 0.1875 0  -0.1875 0.0625 0  -0.1875 0 0  -0.1875 -0.0625 0  0 -0.125 0  0.0625 0.0625 0  0.0625 0 0  -0.0625 0.0625 0  0 0.0625 0  -0.0625 0 0  -0.0625 -0.0625 0  -0.125 -0.25 0  -0.1875 -0.1875 0  -0.0625 -0.1875 0  0.125 0.0625 0  0.0625 0.125 0  -0.0625 0.125 0  -0.125 0.0625 0  -0.125 -0.0625 0  0.875 0.375 0  0.125 0.875 0  0.625 0.625 0  0.75 0.375 0  0.625 0.125 0  0.625 0.25 0  0.625 0.5 0  0.625 0.375 0  0.375 0.625 0  0.125 0.75 0  0.25 0.625 0  0.125 0.625 0  -0.125 0.625 0  0 0.625 0  -0.125 0.5 0  -0.625 0.125 0  -0.5 0.125 0  -0.625 0 0  0.5 0.375 0  0.375 0.5 0  0.375 0.375 0  0.5 0.125 0  0.125 0.5 0  0.25 0.375 0  -0.625 -0.125 0  -0.5 -0.125 0  -0.625 -0.25 0  -0.625 -0.375 0  -0.375 -0.25 0  -0.5 -0.375 0  0 -0.0625 0  0.03125 0.03125 0  0.03125 0 0  -0.03125 0.03125 0  0 0.03125 0  -0.03125 0 0  -0.03125 -0.03125 0  -0.375 -0.375 0  0.09375 0.03125 0  0.03125 0.09375 0  -0.03125 0.09375 0  0 0.09375 0  -0.09375 0.03125 0  -0.09375 0 0  -0.09375 -0.03125 0  -0.03125 -0.09375 0  0.0625 0.03125 0  0.03125 0.0625 0  -0.03125 0.0625 0  -0.0625 0.03125 0  -0.0625 -0.03125 0  -0.0625 -0.125 0  -0.875 0.875 0  -0.625 1 0  -0.75 0.875 0  -0.875 0.75 0  -1 0.625 0  -0.625 0.875 0  -0.375 1 0  -0.5 0.875 0  -0.875 0.625 0  -0.625 0.75 0  -0.75 0.625 0  -0.875 0.5 0  -1 0.375 0  -0.375 0.875 0  -0.125 1 0  -0.25 0.875 0  -0.625 0.625 0  -0.375 0.75 0  -0.5 0.625 0  -0.875 0.375 0  -0.625 0.5 0  -0.75 0.375 0  -0.875 0.25 0  -1 0.125 0  0.875 0.1250000000000001 0  0.875 0.2500000000000001 0  -0.125 0.875 0  -0.875 0.125 0  -0.75 0.125 0  -0.875 0 0  -1 -0.125 0  0.75 0.125 0  -0.875 -0.125 0  -0.75 -0.125 0  -0.875 -0.2500000000000001 0  0 0.375 0  -0.0625 0.4375 0  -0.375 0 0  -0.4375 0.0625 0  -0.875 -0.375 0  -0.0625 0.3125 0  -0.875 -0.625 0  -0.3125 0.0625 0  -0.75 -0.625 0  -0.625 -0.5 0  0 -0.03125 0  0.015625 0.015625 0  0.015625 0 0  -0.015625 0.015625 0  0 0.015625 0  -0.015625 0 0  -0.015625 -0.015625 0  -0.625 -0.625 0  0.046875 0.015625 0  0.015625 0.046875 0  -0.015625 0.046875 0  0 0.046875 0  -0.046875 0.015625 0  -0.046875 0 0  -0.046875 -0.015625 0  -0.015625 -0.046875 0  0.03125 0.015625 0  0.015625 0.03125 0  -0.015625 0.03125 0  -0.03125 0.015625 0  -0.03125 -0.015625 0  -0.03125 -0.0625 0  1 0.875 0  0.875 0.875 0  1 0.625 0  0.875 0.5 0  0.875 0.75 0  0.875 0.625 0  0.625 1 0  0.75 0.875 0  0.625 0.875 0  0.5 0.875 0  0.375 0.875 0  -0.125 0.75 0  -0.25 0.625 0  -0.1875 0.6875 0  0.75 0.625 0  0.625 0.75 0  0.6875 0.6875 0  0.375 0.75 0  0.5 0.625 0  0.5625 0.6875 0  0.4375 0.6875 0  0.3125 0.6875 0  -0.1875 0.5625 0  0.375 0 0  0.4375 0.0625 0  0.375 0.25 0  0.4375 0.1875 0  0.5625 0.1875 0  0.4375 0.3125 0  0.5 0.1875 0  -0.1875 0.3125 0  -0.3125 0.1875 0  -0.1875 0.25 0  -0.25 0.1875 0  -0.1875 0.1875 0  0.3125 0.1875 0  0.1875 0.3125 0  0.25 0.1875 0  0.1875 0.25 0  0.1875 0.1875 0  0.3125 0.3125 0  0.3125 0.0625 0  0.25 0.0625 0  0.0625 0.3125 0  -0.4375 -0.3125 0  -0.875 -0.875 0  -0.8749999999999999 -1 0  0 -0.015625 0  0.0078125 0.0078125 0  0.0078125 0 0  -0.0078125 0.0078125 0  0 0.0078125 0  -0.0078125 0 0  -0.0078125 -0.0078125 0  -0.75 -0.875 0  -0.625 -0.75 0  -0.25 -0.375 0  -0.3125 -0.1875 0  -0.1875 -0.3125 0  -0.3125 -0.25 0  -0.3125 -0.3125 0  -0.5 -0.625 0  -0.375 -0.5 0  -0.4375 -0.5625 0  -0.4375 -0.4375 0  -0.625 -0.875 0  -0.6249999999999999 -1 0  0 -0.375 0  -0.0625 -0.3125 0  -0.0625 -0.25 0  -0.4999999999999999 -0.875 0  -0.375 -0.75 0  -0.4375 -0.8125 0  -0.1875 -0.4375 0  -0.3125 -0.5625 0  -0.1875 -0.5 0  -0.1875 -0.5625 0  -0.3125 -0.4375 0  -0.3749999999999999 -0.9999999999999999 0  -0.4374999999999999 -0.9375 0  -0.0625 -0.4375 0  0.3125 0.125 0  0.4375 0.125 0  0.125 0.3125 0  -0.125 0.1875 0  -0.1875 0.125 0  0.1875 0.125 0  0.125 0.1875 0  -0.125 -0.4375 0  -0.125 -0.3125 0  -0.375 -0.3125 0  0 -0.046875 0  0.0234375 0.0078125 0  0.0078125 0.0234375 0  -0.0078125 0.0234375 0  0 0.0234375 0  -0.0234375 0.0078125 0  -0.0234375 0 0  -0.0234375 -0.0078125 0  -0.0078125 -0.0234375 0  -0.0078125 -0.0390625 0  0.015625 0.0078125 0  0.0078125 0.015625 0  -0.0078125 0.015625 0  -0.015625 0.0078125 0  -0.015625 -0.0078125 0  -0.015625 -0.03125 0  -0.6875 0.4375 0  1 0.1250000000000001 0  0.875 5.551115123125783e-17 0  0.9375 0.06250000000000008 0  0.9375 0.1875000000000001 0  0.375 1 0  0.125 1 0  0.25 0.875 0  0.1875 0.9375 0  0.3125 0.9375 0  0 0.875 0  0.0625 0.9375 0  -0.0625 0.9375 0  -0.4375 0.4375 0  -0.625 0.25 0  -0.6875 0.3125 0  -0.6875 0.1875 0  -0.8125 0.3125 0  -0.75 0.3125 0  0.625 0 0  0.6875 0.0625 0  0.8125 0.06250000000000003 0  0.75 0.0625 0  0.6875 0.1875 0  0.1875 0.8125 0  0.3125 0.8125 0  0.0625 0.8125 0  -0.0625 0.8125 0  -0.1875 0.4375 0  -0.3125 0.5625 0  -0.3125 0.5 0  -0.3125 0.4375 0  -0.25 0.4375 0  -0.1875 0.5 0  -0.4375 0.1875 0  -0.5625 0.3125 0  -0.5 0.3125 0  -0.4375 0.3125 0  -0.4375 0.25 0  -0.5625 0.1875 0  -0.5 0.1875 0  -1 -0.375 0  0.5625 0.0625 0  0.5 0.0625 0  0.1875 0.4375 0  0.1875 0.5625 0  0.3125 0.4375 0  0.1875 0.5 0  0.25 0.4375 0  0.0625 0.4375 0  0.0625 0.5625 0  0.0625 0.5 0  0 0.4375 0  -0.3125 0.3125 0  -0.25 0.3125 0  -0.3125 0.25 0  -0.4375 -0.0625 0  -0.5625 0.0625 0  -0.5625 -0.06250000000000001 0  -0.5 -0.0625 0  -0.4375 0 0  -0.75 -0.375 0  -0.6875 -0.3125 0  -0.8125 -0.3125 0  -1 -0.625 0  -0.875 -0.5 0  -0.9375 -0.4375 0  -0.9375 -0.5625 0  -0.875 -0.75 0  -0.9375 -0.6875 0  -0.25 0.0625 0  -0.3125 -0.0625 0  -0.25 -0.0625 0  -0.21875 -0.03125 0  -0.3125 0 0  -0.28125 0.03125 0  -0.4375 -0.1875 0  -0.5625 -0.1875 0  -0.5 -0.1875 0  -0.6875 -0.4375 0  -0.8125 -0.4375 0  -0.8125 -0.5625 0  0 -0.0078125 0  0.00390625 0.00390625 0  0.00390625 0 0  -0.00390625 0.00390625 0  0 0.00390625 0  -0.00390625 0 0  -0.00390625 -0.00390625 0  -0.8125 -0.6875 0  -0.25 -0.1875 0  -0.1875 -0.25 0  -0.21875 -0.21875 0  0 -0.1875 0  -0.03125 -0.21875 0  0.125 0.4375 0  0.1875 0.375 0  0.0625 0.375 0  -0.1875 0.375 0  -0.125 0.4375 0  -0.375 0.1875 0  -0.4375 0.125 0  -0.3125 -0.125 0  -0.4375 -0.125 0  -0.375 -0.1875 0  -0.375 -0.0625 0  -0.34375 -0.15625 0  -0.1875 -0.125 0  -0.21875 -0.09375 0  -0.21875 -0.15625 0  -0.28125 -0.15625 0  -0.15625 -0.09375 0  -0.15625 -0.15625 0  -0.09375 -0.15625 0  -0.6875 0.375 0  -0.375 0.4375 0  -0.4375 0.375 0  -0.3125 0.375 0  -0.375 0.3125 0  -0.03125 -0.15625 0  -0.15625 -0.21875 0  -0.09375 -0.21875 0  -0.125 -0.1875 0  0.5625 0.125 0  0.6875 0.125 0  0.125 0.5625 0  -0.5625 0.125 0  0.3125 0.375 0  -0.5625 -0.125 0  -0.34375 0.03125 0  -0.375 0.0625 0  0 -0.0234375 0  0.01171875 0.00390625 0  0.01171875 0 0  0.00390625 0.01171875 0  -0.00390625 0.01171875 0  0 0.01171875 0  -0.01171875 0.00390625 0  -0.01171875 0 0  -0.01171875 -0.00390625 0  -0.00390625 -0.01171875 0  -0.00390625 -0.01953125 0  0.0078125 0.00390625 0  0.00390625 0.0078125 0  -0.00390625 0.0078125 0  -0.0078125 0.00390625 0  -0.0078125 -0.00390625 0  -0.0078125 -0.015625 0  -0.875 1 0  -1 0.875 0  -0.9375 0.9375 0  -0.8125 0.9375 0  -0.9375 0.8125 0  -0.4375 0.6875 0  -0.4375 0.8125 0  -0.5625 0.6875 0  -0.4375 0.75 0  -0.5 0.6875 0  -0.6875 0.5625 0  1 0.3750000000000001 0  0.9375 0.3125000000000001 0  0.9375 0.2500000000000001 0  0.9375 0.4375 0  -0.3125 0.6875 0  -0.25 0.6875 0  -0.4375 0.5625 0  -0.5625 0.4375 0  -0.4375 0.5 0  -0.5 0.4375 0  -0.5625 0.5625 0  -0.5 0.5625 0  -0.5625 0.5 0  -0.8125 0.1875 0  0.8125 0.3125 0  0.75 0.3125 0  0.6875 0.25 0  0.6875 0.3125 0  0.8125 0.4375 0  0.6875 0.5625 0  0.6875 0.5 0  0.6875 0.4375 0  0.1875 0.6875 0  0.0625 0.75 0  0.0625 0.6875 0  -0.0625 0.6875 0  0 0.6875 0  -0.6875 0.0625 0  -0.6875 0 0  -0.6875 -0.06250000000000001 0  -0.8125 0.0625 0  -0.75 0.0625 0  -0.8125 -0.06250000000000001 0  -0.75 -0.06250000000000001 0  0.5625 0.5625 0  0.5625 0.5 0  0.5625 0.4375 0  0.4375 0.5625 0  0.5 0.4375 0  0.4375 0.5 0  0.4375 0.4375 0  0.5 0.5625 0  0.5625 0.25 0  0.5625 0.3125 0  0.5 0.3125 0  0.3125 0.5625 0  0.25 0.5625 0  0.3125 0.5 0  -0.0625 0.5625 0  0 0.5625 0  -0.0625 0.5 0  -0.6875 -0.1875000000000001 0  -0.8125 -0.1875000000000001 0  -0.75 -0.1875000000000001 0  0.3125 0.25 0  0.28125 0.21875 0  0.3125 0 0  0.28125 0.03125 0  -0.0625 0.25 0  0.0625 0.25 0  0.03125 0.21875 0  -0.03125 0.2187
[...]
<PointData  Scalars="u"> 
<DataArray  type="Float64"  Name="u"  format="ascii">1.2599343223612285e+00  1.1551989781640157e+00  1.1551989782866527e+00  1.0525200381125592e+00  1.0400396420077289e+00  1.0525200421553398e+00  9.5489245423906455e-01  9.2505272526713378e-01  9.2505287740474140e-01  9.5489754601605503e-01  6.2997202252406359e-01  -6.5919863839104766e-06  1.6591743543653609e-01  3.2768861048278486e-01  4.8268761177604552e-01  6.7253230832729782e-01  7.2484386526069355e-01  7.8898642089231263e-01  8.6602652569182770e-01  8.1445973628323898e-01  7.9369133668101710e-01  8.1446560789098121e-01  8.6603506660569807e-01  5.2001522530273558e-01  6.8932988327308164e-06  1.8199328012421029e-01  3.5650160326666497e-01  5.6856006594861241e-01  6.3247414429173965e-01  7.1486415513498269e-01  6.6302966555323462e-01  6.6303035007905142e-01  7.1488152525907311e-01  7.8898711510687258e-01  3.9685454111670099e-01  1.0936415313649841e-05  2.0643866300433450e-01  4.5661696630165599e-01  5.4553038879795657e-01  4.9997239038441421e-01  5.4553650430111555e-01  6.3247993895311450e-01  7.2484381180759982e-01  2.4998052008917007e-01  -1.6865999768477533e-06  3.4363786478031288e-01  6.7252793115133280e-01  3.4361949404024345e-01  4.5662786033688024e-01  5.6855181580334668e-01  6.2997228954384310e-01  2.9105418985155296e-05  5.2000367401083047e-01  2.4998534657559424e-01  3.9684359474724340e-01  4.8268427432065597e-01  6.5136500163526121e-06  3.5650006728817696e-01  2.0643978593057566e-01  3.2769772544985543e-01  8.4039704417193869e-06  1.8198869401542589e-01  1.6591787862709467e-01  6.8170302537568168e-06  -6.7287636186503381e-06  1.1464775483759311e-01  3.9841686737577520e-01  5.1304830532134360e-01  5.1305735122746132e-01  4.1765804758190905e-01  4.1765697522430423e-01  1.3001928414212979e-01  2.8761370088889282e-01  1.5748115695612572e-01  -2.2550718787153576e-05  3.1492698387432866e-01  2.1646198061043093e-01  3.9841708390665148e-01  2.1642564764899744e-01  2.8761610272666122e-01  1.5747673144163304e-01  1.1462916401061414e-01  2.8552457077279109e-01  1.0450689781107471e-01  1.9274510808933493e-01  2.5805143355623145e-01  9.7185049272700233e-02  -8.2068860687303465e-06  1.7322942234141253e-01  9.1530472691888604e-02  8.7001461711016762e-02  8.3234634822583073e-02  -6.6356270659990024e-06  7.9910819670350952e-01  7.9911031039200342e-01  7.2772695092138084e-01  7.2772668866450552e-01  6.5515567900223415e-01  5.8274385350027236e-01  5.8272776616552824e-01  7.2214964898359546e-02  1.2040818710835605e-05  2.5095162640237323e-01  3.2319102308514747e-01  2.8367793089008497e-01  3.2318618236551422e-01  2.8363791932101634e-01  2.5097524382364667e-01  -1.5570285889868441e-05  9.9214715991834068e-02  -1.5212174580485118e-05  1.9837344620453903e-01  1.3633923132247430e-01  1.3630561429775981e-01  9.9159329288478981e-02  1.3005376038933572e-01  2.0635701111013952e-01  7.2209773528078863e-02  8.1887723902390491e-02  1.8114312970536273e-01  2.6308447771061033e-01  2.6308412628193611e-01  1.8113976629119863e-01  2.5806287756286350e-01  7.5054288670344960e-01  4.6051082555428424e-01  2.7050160543432433e-01  9.7194556551554165e-02  1.9274771043991357e-01  3.7482779443703673e-01  2.8552173738104747e-01  5.1358645801601988e-01  6.7130258582883606e-01  5.4751103896906206e-01  5.8723330773849669e-01  6.8443685447819713e-01  6.3305603641852060e-01  6.0151982613263200e-01  6.8441353672625616e-01  6.0151894851817311e-01  6.3304434982439928e-01  3.0406587886989334e-01  4.2365087678210650e-01  3.2758198874855060e-01  1.0451448092417071e-01  4.9701246230883234e-01  3.5816288942833885e-01  5.8722976571629271e-01  4.9700573222389177e-01  5.4748157401706210e-01  5.1357987965087726e-01  3.5815859427080243e-01  4.2364296627024139e-01  -4.4281831645354746e-05  6.2495801204467419e-02  -4.1545464760248607e-05  1.2492499774082447e-01  8.5848515788501029e-02  8.5824880790868072e-02  6.2454055493224449e-02  3.2758970414843691e-01  4.5492383057490100e-02  1.5805750833032833e-01  2.0353892164521531e-01  1.7869612368112855e-01  2.0353882881672833e-01  1.7866437690986303e-01  1.5807245301695372e-01  4.5497695823007181e-02  5.1562784969243554e-02  1.1407542385454005e-01  1.6565754758274062e-01  1.6565777709125828e-01  1.1407644668953482e-01  8.1925016865558295e-02  1.1525960173331862e+00  1.1034633449055260e+00  1.0977700945534798e+00  1.0977701047936599e+00  1.1034633438646420e+00  1.0432054519056504e+00  1.0028713475579396e+00  9.8940664340097528e-01  1.0432075703339678e+00  9.8232996236924264e-01  9.8232989274672122e-01  9.8940704568306959e-01  1.0028712414454515e+00  9.3674357145775977e-01  9.0913813417874345e-01  8.8592081342699791e-01  9.2099979265062970e-01  8.6884048943923131e-01  8.5970548065921959e-01  9.3674517057046969e-01  8.5970448417490164e-01  8.6884077704971197e-01  8.8591370883485177e-01  9.0913825012199623e-01  8.7001060157590154e-02  1.7323045464690476e-01  8.3753223281285716e-01  8.3754552337780330e-01  7.6282259918294126e-01  7.9225021511695504e-01  8.2589818761141176e-01  9.1529139147962096e-02  7.5054538292193873e-01  6.7129655655286680e-01  7.1268123763356672e-01  4.5032347279982149e-01  5.2760715599796582e-01  4.5032628744446979e-01  5.2759736651318712e-01  6.7869346751856896e-01  4.3113339290055791e-01  6.2147273329894692e-01  4.3115436054250872e-01  5.4262552145296039e-01  4.8487756281293504e-01  -5.8967722470886050e-07  3.9393359992238600e-02  -2.1589512555272906e-05  7.8670251254619031e-02  5.4098761579228723e-02  5.4027038565605506e-02  3.9249000351849868e-02  4.6049862431082439e-01  2.8642436879922809e-02  9.9512362403141069e-02  1.2814279163257533e-01  1.1251117067828420e-01  1.2814264067878162e-01  1.1246294656462544e-01  9.9561123424388179e-02  2.8678508248564140e-02  3.2494624700036875e-02  7.1846795137378988e-02  1.0432802930508496e-01  1.0432731867049695e-01  7.1846243817333427e-02  5.1555456146712628e-02  5.5728517353027252e-01  5.7631809601096673e-01  4.0612403580207745e-01  3.4097857166807738e-01  5.0018251678441250e-01  4.2174441842683252e-01  6.9732417114661027e-01  5.9756718547127952e-01  6.2148507453532698e-01  6.4837845797452809e-01  6.7869557875262165e-01  7.6282654370301350e-01  7.4023500700635747e-01  7.5049156209619539e-01  4.3968436758698953e-01  5.4263798497855464e-01  4.9071515432883156e-01  5.9833839254318333e-01  4.8488482990742510e-01  5.1413915318236603e-01  5.4132217138866534e-01  5.7295605311300435e-01  6.7231729858347355e-01  3.8592896219988212e-06  5.4780917793092451e-02  2.2455374355863289e-01  1.6255343711038103e-01  1.5022409636819059e-01  2.6567706715238248e-01  1.5593788958781024e-01  5.0336754151258489e-01  5.0337057179804912e-01  4.5838307851331822e-01  4.5840022531052854e-01  4.1270263265623253e-01  1.7984901170079950e-01  3.2353518768617212e-01  1.9154679462874730e-01  2.6686533731719281e-01  2.0636107425643532e-01  2.9008409581326189e-01  6.1212132778298782e-02  6.5858934730557428e-02  3.6992616681479673e-01  3.9149951170080827e-01  5.7629110656099902e-01  5.5729924728870950e-01  -8.3468302424821164e-07  2.4803639152704355e-02  -3.2187369435261634e-05  4.9528314111958315e-02  3.3977690651615010e-02  3.3900689213642220e-02  2.4662058208936060e-02  5.0019793650079925e-01  4.3968798154298372e-01  2.2456466333341463e-01  3.2353490719808747e-01  1.7984882828587601e-01  3.0544564576937294e-01  2.9008038979796202e-01  3.7481750996099561e-01  3.0406872199534118e-01  3.4031527658846106e-01  3.6304990729044706e-01  4.2173867509803309e-01  4.0612199487641554e-01  2.1615737332885251e-08  6.1222694680189038e-02  6.5825569885485505e-02  3.4098535240801175e-01  2.7050775696901375e-01  3.0650867640926244e-01  1.6254988000909454e-01  2.4720778537523658e-01  1.5593511970389276e-01  1.5023675073897014e-01  2.6566848020744555e-01  2.4752890661002266e-01  2.9358210113927269e-01  5.4807428337861924e-02  1.2140168938440839e-01  1.0912540037879707e-01  3.4489320442176324e-01  3.6706286769346297e-01  3.6705772863408687e-01  1.4145314325912584e-01  2.2560592044665859e-01  1.0911235702086269e-01  1.2143120017135521e-01  3.4182615387999676e-01  6.2134448903825677e-05  1.7992862898496744e-02  6.2664227032397324e-02  8.0681465697245769e-02  7.0835161607794461e-02  8.0679601989478322e-02  7.0802879590002574e-02  6.2716881909574917e-02  1.8000451326311749e-02  1.5279187537747580e-02  2.0446412699604045e-02  4.5186214320342970e-02  6.5588618938097282e-02  6.5587344578041953e-02  4.5172812135154942e-02  3.2494943087051337e-02  8.6318583278443806e-01  8.3245111517288806e-02  6.6996778187968083e-06  4.2555074691310577e-02  1.2735543496626406e-01  7.5531889878685199e-01  8.2590079666059280e-01  7.1266947578795303e-01  7.6952576218197000e-01  7.3391728970074233e-01  7.9224618739329278e-01  8.0867707856187565e-01  8.5123397755505004e-01  7.2608613462062810e-01  7.4024511483985522e-01  8.0566336368685720e-01  7.5049580339981070e-01  8.7649513509160748e-01  8.4135904171990694e-01  5.6199213693961400e-07  4.7177363465578444e-02  4.4637930961277376e-02  4.5831705602863940e-02  1.4087584594440711e-01  6.9174599231681466e-01  6.5554082834800986e-01  7.3223730757452177e-01  7.7687942464235826e-01  5.9009915429705495e-01  7.3253325410289938e-01  6.9511876739059575e-01  6.5716343142034728e-01  6.2325350296512183e-01  6.3173141653750242e-01  5.9009294600223983e-01  7.3253196853014835e-01  6.9511881880103510e-01  6.5716339657329126e-01  6.2326002824261140e-01  6.7232134093334062e-01  6.3173240454002200e-01  7.5531768524023446e-01  5.0429860218570551e-02  5.2426170502888864e-02  4.2753283869695757e-01  5.2209416853788904e-01  3.9149553868313314e-01  4.7581509343882150e-01  4.0845765672415563e-01  4.7279545664403544e-01  5.6569874395955844e-01  5.2026399903980569e-01  4.9907392943137313e-01  5.8018008456394232e-01  5.4154212061817997e-01  5.4153645206259282e-01  4.7280252319035609e-01  6.1612601313513427e-01  5.6569276712876049e-01  5.2026250535616736e-01  4.9908684956591043e-01  5.9833286297656152e-01  5.7298011585834530e-01  6.5553768311997740e-01  6.9732284364286845e-01  6.4838594825831919e-01  7.0181155672523599e-01  6.7299762432157217e-01  5.9757231072983419e-01  6.4722646087499680e-01  3.7889830812775455e-01  3.6992886339504139e-01  3.1306822218584623e-01  2.9782779297409945e-01  3.9879176333246946e-01  3.8812624444089416e-01  4.2752994821867984e-01  5.2208870447226730e-01  4.7583911973034437e-01  5.4134137081460065e-01  6.2349436735725328e-01  5.9527002984171129e-01  4.9134628075316859e-06  1.5593037434149248e-02  -2.2524313813870296e-05  3.1167304996685897e-02  2.1370242352864235e-02  2.1329128513719285e-02  1.5440295953327521e-02  5.7042938344264205e-01  2.6686723384667443e-01  1.9154696380212116e-01  2.2869083853712693e-01  1.0375331609915727e-05  3.4534366572275627e-02  4.4895239088357897e-01  3.7688324633328002e-01  4.2286331867880955e-01  5.4729037847911777e-01  5.5806865387768967e-01  5.4729503302099269e-01  5.5806972640785779e-01  3.4489324417564293e-01  4.4894627944632870e-01  3.7690830264375075e-01  4.2286497946915236e-01  3.6094007524552690e-01  2.2560203839428375e-01  2.6932125543690827e-01  2.4663080261033948e-01  3.0573494530698742e-01  2.0377167128125834e-01  1.8272890698901703e-01  1.1329300535416274e-01  8.3419838799308077e-01  6.9153760176761192e-01  6.9153752328216189e-01  6.1880886037545257e-01  6.1880887799430673e-01  3.8565125550536379e-02  1.6735805835316220e-01  1.0239794347062516e-01  1.4143654417461363e-01  1.0057174546606429e-01  9.4194380705845807e-02  5.4300581288562377e-01  6.4359394608666198e-01  3.4182261016065069e-01  5.4299914990452147e-01  4.4018506435566940e-01  4.8052138386143306e-01  4.5277688740764508e-05  1.1378834963866651e-02  1.8817055008833287e-05  3.9395330443035975e-02  5.0789364615671559e-02  4.4532560126979509e-02  5.0788186664964582e-02  4.4530495779721929e-02  3.9464006866222416e-02  1.1385495538460369e-02  9.6054591053829699e-03  1.2859852756599077e-02  2.8429419406345479e-02  4.1230240944325418e-02  4.1230614421846765e-02  2.8432063837477307e-02  2.0490544587861346e-02  1.2074566982008001e+00  1.2074566982014587e+00  1.2068552994066168e+00  1.1532450981242421e+00  1.1532451010850484e+00  8.6318429979521694e-01  9.3000695707654435e-01  9.2202758155220410e-01  8.9677321564894519e-01  8.9249395342347981e-01  9.2202737021257064e-01  2.4753224903204818e-01  2.1119262943606856e-01  1.6941721812412261e-01  2.9357577933781853e-01  8.0566170433476858e-01  7.7771423801826678e-01  7.9505567841810909e-01  7.9505557084304479e-01  7.6062850846783581e-01  7.6062838457884663e-01  8.5853077294365676e-01  8.2673798612206761e-01  8.2673769977789247e-01  8.2519028012920981e-01  2.2095339680062945e-01  2.2653971180927138e-01  1.8708325943391008e-01  2.3269626836523388e-01  3.0651130633169893e-01  4.0788133168474816e-01  3.6525565516346559e-01  3.2184423127887840e-01  6.0963409227022780e-01  6.9251121527926129e-01  6.5160367219236959e-01  6.9879121793916066e-01  6.7458082637192218e-01  6.9879031805627045e-01  6.7458283887592552e-01  6.5161054770908267e-01  7.7687106955976371e-01  7.3834486007330302e-01  7.3223831384258953e-01  6.9250791031632664e-01  4.2926730645124955e-01  3.8531755938468998e-01  3.4031244770236552e-01  4.5474603708266226e-01  3.5107303608198848e-01  4.0956926391391868e-01  3.6304795538508100e-01  4.4143555105743620e-01  1.9914626250564818e-01  2.4719589435286499e-01  2.5584838000752974e-01  4.8533090281927810e-01  5.0287526543621186e-01  4.3927195313936923e-01  6.1613064763656900e-01  5.9011429196553100e-01  5.7270220479678569e-01  6.0960171133845464e-01  6.9174276535877366e-01  6.5127703291207761e-01  2.3611969546882289e-01  2.1437389229785395e-01  -4.9098518754431865e-06  3.1771037750292906e-02  3.7891762884310115e-01  3.1308314739249110e-01  2.9780084421436726e-01  3.3232539787313248e-01  3.1437307735859649e-01  3.9876937889496272e-01  3.8812376638959789e-01  3.5633791425500438e-01  3.3231413768672191e-01  4.8534112249361255e-01  4.3926329890529414e-01  5.1413308591889961e-01  3.3453048914008469e-06  9.8566528458569093e-03  -1.4098922362004011e-05  1.9675263240807820e-02  1.3455925974034076e-02  1.3431718476038256e-02  9.7696704793731413e-03  2.3611769107092387e-01  2.1437334870319388e-01  4.5474708692449900e-01  4.0956949425185929e-01  4.4143774964852073e-01  4.2927102225879327e-01  3.2182934127390633e-01  5.2425280209206129e-02  5.0435096008774771e-02  -9.5856679718651784e-06  2.3268274083295229e-01  1.8708091582489367e-01  2.2095517730876674e-01  1.4086970411617236e-01  1.3696357951786872e-01  1.3344780272052786e-01  2.2654133409952240e-01  4.7174414864084475e-02  8.6154399234440780e-06  4.5840366653994949e-02  4.4630867595438932e-02  4.6631357689872843e-01  3.7172041091888447e-01  4.2349434332590047e-01  4.1393618525103604e-01  3.9258394045600020e-01  2.6929821949107641e-01  3.2886374850073025e-01  1.1328788653437293e-01  2.0379537606340112e-01  1.2998342244778061e-01  1.2066095476080951e-01  1.6810493587395664e-01  3.8569215909933195e-02  4.1482375917721963e-02  3.1708177885472399e-01  3.1708300504152115e-01  2.5996550661277035e-01  2.8875880255386543e-01  2.8875839881655418e-01  2.3299971841890613e-01  2.7157447587245409e-01  2.5119207770547952e-01  1.9718509020104646e-01  2.3863211769965326e-01  2.7156989742733945e-01  2.5116071566511744e-01  2.3300903782745402e-01  2.3862842097218992e-01  1.2997725520601128e-01  1.6808973990872431e-01  1.2066217203591319e-01  2.3954031180563118e-01  2.7763253792467935e-01  1.0057951359570461e-01  1.4525069245725911e-01  4.8690911676802860e-02  9.4181401577947993e-02  8.9158766279535853e-02  7.6361325566950944e-01  8.3419576319537359e-01  8.2925771571911655e-01  7.6939330917279225e-01  7.6360892988951834e-01  7.6488987244873241e-02  2.6635433039633305e-01  2.1725881008621217e-01  3.0269139526550304e-01  2.9374134130570090e-01  3.4475588683952985e-01  3.0267802508161962e-01  2.9373897430646567e-01  8.9097310188140363e-02  1.4211669276698316e-01  2.3118914788188955e-01  2.3118883018114972e-01  1.4210906609394036e-01  8.9097749525978293e-02  2.6399606924132002e-01  2.1585899162527006e-01  4.7219090814014425e-01  2.7763577001264800e-01  2.3954277610740216e-01  3.3061625534073286e-01  2.9426883793794600e-01  5.2984859228405246e-01  4.6933464439650241e-01  6.2994734613851444e-01  6.0939463879176248e-01  6.5809684482083475e-01  6.4360721988947689e-01  6.5809560690292679e-01  7.2413471252080386e-01  6.0938534253118071e-01  3.1508195459986360e-01  3.7644547917944188e-01  6.2994487099761876e-01  4.6933835243736544e-01  8.9031673331932626e-01  8.9031646455227087e-01  8.0061493637910319e-01  7.1144923797445847e-01  4.8937104552211408e-01  4.4020120690242731e-01  4.1047149759636575e-01  4.8051976805737878e-01  4.7219072960012543e-01  2.9731123470180174e-02  5.7646929512147886e-02  2.0273590151445359e-01  1.7042886719467129e-01  2.8590455452925014e-05  7.1395800524602241e-03  1.4963623441010624e-05  2.4836732436822814e-02  3.1938140425386910e-02  2.8024777599398122e-02  3.1940060336609406e-02  2.8028807933385681e-02  2.4902835394283635e-02  2.0273538821611622e-01  1.7039828763540671e-01  7.1345194911858765e-03  6.0287692703693925e-03  8.0127577082194749e-03  1.7892971258340551e-02  2.5907945777118659e-02  2.5909939999113060e-02  1.7903032445334043e-02  1.2924504827488538e-02  1.1292388914640887e+00  1.1265424716326766e+00  1.0999176367046943e+00  1.1265424795222561e+00  1.1292388917891627e+00  1.0999202257219747e+00  1.0778742014753184e+00  1.0471308457366981e+00  1.0274998839516054e+00  1.0211147721016152e+00  9.9537440952845202e-01  1.0970494105491202e+00  1.0689035659949095e+00  1.0689035775334916e+00  1.0408188762857280e+00  1.0408189007916784e+00  1.0111594386576732e+00  1.0111594856760295e+00  9.8143088776272447e-01  1.0778741993453151e+00  1.0471309810686005e+00  1.0211150649087146e+00  1.0274998965454931e+00  9.9538182675777953e-01  9.7864787784274809e-01  9.4508505315170055e-01  9.3170925244497071e-01  9.2071012901524141e-01  8.9687223175904229e-01  9.8500469994746487e-01  9.5736282868330569e-01  9.5360478356962508e-01  9.8500582641782175e-01  9.5360477983536696e-01  9.5736316363416174e-01  9.3000752110225904e-01  8.9677364987562069e-01  9.7863425216420663e-01  9.4508901601648376e-01  9.2070142058634841e-01  9.3170906281733645e-01  8.9687492894978604e-01  6.5016303995498370e-01  5.9386002741135480e-01  6.0343861636646168e-01  3.3408532697920584e-01  3.7414322711773201e-01  5.2912225557307901e-01  4.9117069458619261e-01  4.5269118725819174e-01  6.2413711630876212e-01  6.3535572492703796e-01  6.4723073658134334e-01  6.7299556629694957e-01  6.8699704139160334e-01  7.0180733122057426e-01  8.7649198519892368e-01  8.5051021951692052e-01  8.4135831852087872e-01  8.2518274462533092e-01  7.8823560667475956e-01  8.8723776756177408e-01  8.5124163986923840e-01  8.2954512660976920e-01  8.4556509533457169e-01  8.0868464726373745e-01  5.4853047166969560e-01  5.0979245301544851e-01  4.7039401728431046e-01  5.5913311897420448e-01  5.7042731840728444e-01  4.8021335806932802e-01  5.3094318576869914e-01  1.3344648474957696e-01  1.7740161305814359e-01  1.3695353964453347e-01  3.4843286860512174e-01  3.8973135060367020e-01  3.9845230448497904e-01  5.9526809253448620e-01  6.0892775716105119e-01  6.2349063682724082e-01  5.5513775009015054e-01  5.8293081150251891e-01  7.6950442529283491e-01  7.5128108990462183e-01  7.3391892348201015e-01  2.1479560295932407e-01  2.3567207897005549e-01  4.5735201351890509e-01  5.7270339658919767e-01  5.9011252835724770e-01  5.3622636602690299e-01  5.8112319289959036e-01  3.0543994592694912e-01  2.8645685390064723e-01  2.7041188827632401e-01  3.4498895860633864e-02  3.5598567083388020e-05  3.3033911743445950e-02  6.5015875884330721e-01  6.2414102219572620e-01  6.0342376874906800e-01  5.9387369025875858e-01  2.0592348660235596e-06  6.2131234140612081e-03  -8.8713731023715166e-06  1.2400775671617684e-02  8.4780500175837461e-03  8.4637449338666546e-03  6.1605240048104408e-03  5.3093292748711041e-01  4.9070830091343987e-01  5.4853156965814276e-01  5.0978