<?xml version="1.0"?>
<VTKFile type="UnstructuredGrid"  version="0.1"  >
<UnstructuredGrid>
<Piece  NumberOfPoints="2931" NumberOfCells="5685">
<Points>
<DataArray  type="Float64"  NumberOfComponents="3"  format="ascii">-1 1 0  -0.75 1 0  -1 0.75 0  -0.5 1 0  -0.75 0.75 0  -1 0.5 0  -0.25 1 0  -0.5 0.75 0  -0.75 0.5 0  -1 0.25 0  1 1 0  1 1.110223024625157e-16 0  1 0.2500000000000001 0  1 0.5 0  1 0.75 0  0.75 1 0  0.5 1 0  0.25 1 0  0 1 0  -0.25 0.75 0  -0.5 0.5 0  -0.75 0.25 0  -1 0 0  0.75 0.75 0  0.75 0 0  0.75 0.25 0  0.75 0.5 0  0.5 0.75 0  0.25 0.75 0  0 0.75 0  -0.25 0.5 0  -0.5 0.25 0  -0.75 0 0  -1 -0.2500000000000001 0  0.5 0.5 0  0.5 0 0  0.5 0.25 0  0.25 0.5 0  0 0.5 0  -0.25 0.25 0  -0.5 0 0  -0.75 -0.2500000000000001 0  -1 -0.5 0  0.25 0.25 0  0.25 0 0  0 0.25 0  -1 -0.75 0  -0.25 0 0  -0.5 -0.25 0  -0.75 -0.5 0  -0.9999999999999999 -1 0  0 0 0  -0.75 -0.75 0  -0.25 -0.25 0  -0.5 -0.5 0  -0.7499999999999999 -1 0  0 -0.25 0  -0.5 -0.75 0  -0.25 -0.5 0  -0.4999999999999999 -0.9999999999999999 0  0 -0.5 0  -0.25 -0.75 0  -0.2499999999999999 -0.9999999999999999 0  0 -0.75 0  0 -0.9999999999999999 0  0.375 0.125 0  0.125 0.375 0  -0.125 0.375 0  -0.375 0.125 0  -0.125 0.25 0  -0.25 0.125 0  0.25 0.125 0  0.125 0.25 0  0.125 0.125 0  0.125 0 0  -0.125 0.125 0  0 0.125 0  -0.375 -0.125 0  -0.125 0 0  -0.25 -0.125 0  -0.125 -0.125 0  -0.125 -0.375 0  -0.375 -0.625 0  -0.125 -0.5 0  -0.25 -0.625 0  -0.3749999999999999 -0.875 0  -0.125 -0.625 0  0 -0.625 0  -0.2499999999999999 -0.875 0  -0.125 -0.75 0  -0.1249999999999999 -0.875 0  -0.1249999999999999 -0.9999999999999999 0  0 -0.875 0  -0.375 0.625 0  -0.625 0.375 0  -0.375 0.5 0  -0.5 0.375 0  -0.375 0.375 0  -0.25 0.375 0  -0.375 0.25 0  0.1875 0.0625 0  0.1875 0 0  0.0625 0.1875 0  -0.0625 0.1875 0  0 0.1875 0  -0.1875 0.0625 0  -0.1875 0 0  -0.1875 -0.0625 0  0 -0.125 0  0.0625 0.0625 0  0.0625 0 0  -0.0625 0.0625 0  0 0.0625 0  -0.0625 0 0  -0.0625 -0.0625 0  -0.125 -0.25 0  -0.1875 -0.1875 0  -0.0625 -0.1875 0  0.125 0.0625 0  0.0625 0.125 0  -0.0625 0.125 0  -0.125 0.0625 0  -0.125 -0.0625 0  0.875 0.375 0  0.125 0.875 0  0.625 0.625 0  0.75 0.375 0  0.625 0.125 0  0.625 0.25 0  0.625 0.5 0  0.625 0.375 0  0.375 0.625 0  0.125 0.75 0  0.25 0.625 0  0.125 0.625 0  -0.125 0.625 0  0 0.625 0  -0.125 0.5 0  -0.625 0.125 0  -0.5 0.125 0  -0.625 0 0  0.5 0.375 0  0.375 0.5 0  0.375 0.375 0  0.5 0.125 0  0.125 0.5 0  0.25 0.375 0  -0.625 -0.125 0  -0.5 -0.125 0  -0.625 -0.25 0  -0.625 -0.375 0  -0.375 -0.25 0  -0.5 -0.375 0  0 -0.0625 0  0.03125 0.03125 0  0.03125 0 0  -0.03125 0.03125 0  0 0.03125 0  -0.03125 0 0  -0.03125 -0.03125 0  -0.375 -0.375 0  0.09375 0.03125 0  0.03125 0.09375 0  -0.03125 0.09375 0  0 0.09375 0  -0.09375 0.03125 0  -0.09375 0 0  -0.09375 -0.03125 0  -0.03125 -0.09375 0  0.0625 0.03125 0  0.03125 0.0625 0  -0.03125 0.0625 0  -0.0625 0.03125 0  -0.0625 -0.03125 0  -0.0625 -0.125 0  -0.875 0.875 0  -0.625 1 0  -0.75 0.875 0  -0.875 0.75 0  -1 0.625 0  -0.625 0.875 0  -0.375 1 0  -0.5 0.875 0  -0.875 0.625 0  -0.625 0.75 0  -0.75 0.625 0  -0.875 0.5 0  -1 0.375 0  -0.375 0.875 0  -0.125 1 0  -0.25 0.875 0  -0.625 0.625 0  -0.375 0.75 0  -0.5 0.625 0  -0.875 0.375 0  -0.625 0.5 0  -0.75 0.375 0  -0.875 0.25 0  -1 0.125 0  0.875 0.1250000000000001 0  0.875 0.2500000000000001 0  -0.125 0.875 0  -0.875 0.125 0  -0.75 0.125 0  -0.875 0 0  -1 -0.125 0  0.75 0.125 0  -0.875 -0.125 0  -0.75 -0.125 0  -0.875 -0.2500000000000001 0  0 0.375 0  -0.0625 0.4375 0  -0.375 0 0  -0.4375 0.0625 0  -0.875 -0.375 0  -0.0625 0.3125 0  -0.875 -0.625 0  -0.3125 0.0625 0  -0.75 -0.625 0  -0.625 -0.5 0  0 -0.03125 0  0.015625 0.015625 0  0.015625 0 0  -0.015625 0.015625 0  0 0.015625 0  -0.015625 0 0  -0.015625 -0.015625 0  -0.625 -0.625 0  0.046875 0.015625 0  0.015625 0.046875 0  -0.015625 0.046875 0  0 0.046875 0  -0.046875 0.015625 0  -0.046875 0 0  -0.046875 -0.015625 0  -0.015625 -0.046875 0  0.03125 0.015625 0  0.015625 0.03125 0  -0.015625 0.03125 0  -0.03125 0.015625 0  -0.03125 -0.015625 0  -0.03125 -0.0625 0  1 0.875 0  0.875 0.875 0  1 0.625 0  0.875 0.5 0  0.875 0.75 0  0.875 0.625 0  0.625 1 0  0.75 0.875 0  0.625 0.875 0  0.5 0.875 0  0.375 0.875 0  -0.125 0.75 0  -0.25 0.625 0  -0.1875 0.6875 0  0.75 0.625 0  0.625 0.75 0  0.6875 0.6875 0  0.375 0.75 0  0.5 0.625 0  0.5625 0.6875 0  0.4375 0.6875 0  0.3125 0.6875 0  -0.1875 0.5625 0  0.375 0 0  0.4375 0.0625 0  0.375 0.25 0  0.4375 0.1875 0  0.5625 0.1875 0  0.4375 0.3125 0  0.5 0.1875 0  -0.1875 0.3125 0  -0.3125 0.1875 0  -0.1875 0.25 0  -0.25 0.1875 0  -0.1875 0.1875 0  0.3125 0.1875 0  0.1875 0.3125 0  0.25 0.1875 0  0.1875 0.25 0  0.1875 0.1875 0  0.3125 0.3125 0  0.3125 0.0625 0  0.25 0.0625 0  0.0625 0.3125 0  -0.4375 -0.3125 0  -0.875 -0.875 0  -0.8749999999999999 -1 0  0 -0.015625 0  0.0078125 0.0078125 0  0.0078125 0 0  -0.0078125 0.0078125 0  0 0.0078125 0  -0.0078125 0 0  -0.0078125 -0.0078125 0  -0.75 -0.875 0  -0.625 -0.75 0  -0.25 -0.375 0  -0.3125 -0.1875 0  -0.1875 -0.3125 0  -0.3125 -0.25 0  -0.3125 -0.3125 0  -0.5 -0.625 0  -0.375 -0.5 0  -0.4375 -0.5625 0  -0.4375 -0.4375 0  -0.625 -0.875 0  -0.6249999999999999 -1 0  0 -0.375 0  -0.0625 -0.3125 0  -0.0625 -0.25 0  -0.4999999999999999 -0.875 0  -0.375 -0.75 0  -0.4375 -0.8125 0  -0.1875 -0.4375 0  -0.3125 -0.5625 0  -0.1875 -0.5 0  -0.1875 -0.5625 0  -0.3125 -0.4375 0  -0.3749999999999999 -0.9999999999999999 0  -0.4374999999999999 -0.9375 0  -0.0625 -0.4375 0  0.3125 0.125 0  0.4375 0.125 0  0.125 0.3125 0  -0.125 0.1875 0  -0.1875 0.125 0  0.1875 0.125 0  0.125 0.1875 0  -0.125 -0.4375 0  -0.125 -0.3125 0  -0.375 -0.3125 0  0 -0.046875 0  0.0234375 0.0078125 0  0.0078125 0.0234375 0  -0.0078125 0.0234375 0  0 0.0234375 0  -0.0234375 0.0078125 0  -0.0234375 0 0  -0.0234375 -0.0078125 0  -0.0078125 -0.0234375 0  -0.0078125 -0.0390625 0  0.015625 0.0078125 0  0.0078125 0.015625 0  -0.0078125 0.015625 0  -0.015625 0.0078125 0  -0.015625 -0.0078125 0  -0.015625 -0.03125 0  -0.6875 0.4375 0  1 0.1250000000000001 0  0.875 5.551115123125783e-17 0  0.9375 0.06250000000000008 0  0.9375 0.1875000000000001 0  0.375 1 0  0.125 1 0  0.25 0.875 0  0.1875 0.9375 0  0.3125 0.9375 0  0 0.875 0  0.0625 0.9375 0  -0.0625 0.9375 0  -0.4375 0.4375 0  -0.625 0.25 0  -0.6875 0.3125 0  -0.6875 0.1875 0  -0.8125 0.3125 0  -0.75 0.3125 0  0.625 0 0  0.6875 0.0625 0  0.8125 0.06250000000000003 0  0.75 0.0625 0  0.6875 0.1875 0  0.1875 0.8125 0  0.3125 0.8125 0  0.0625 0.8125 0  -0.0625 0.8125 0  -0.1875 0.4375 0  -0.3125 0.5625 0  -0.3125 0.5 0  -0.3125 0.4375 0  -0.25 0.4375 0  -0.1875 0.5 0  -0.4375 0.1875 0  -0.5625 0.3125 0  -0.5 0.3125 0  -0.4375 0.3125 0  -0.4375 0.25 0  -0.5625 0.1875 0  -0.5 0.1875 0  -1 -0.375 0  0.5625 0.0625 0  0.5 0.0625 0  0.1875 0.4375 0  0.1875 0.5625 0  0.3125 0.4375 0  0.1875 0.5 0  0.25 0.4375 0  0.0625 0.4375 0  0.0625 0.5625 0  0.0625 0.5 0  0 0.4375 0  -0.3125 0.3125 0  -0.25 0.3125 0  -0.3125 0.25 0  -0.4375 -0.0625 0  -0.5625 0.0625 0  -0.5625 -0.06250000000000001 0  -0.5 -0.0625 0  -0.4375 0 0  -0.75 -0.375 0  -0.6875 -0.3125 0  -0.8125 -0.3125 0  -1 -0.625 0  -0.875 -0.5 0  -0.9375 -0.4375 0  -0.9375 -0.5625 0  -0.875 -0.75 0  -0.9375 -0.6875 0  -0.25 0.0625 0  -0.3125 -0.0625 0  -0.25 -0.0625 0  -0.21875 -0.03125 0  -0.3125 0 0  -0.28125 0.03125 0  -0.4375 -0.1875 0  -0.5625 -0.1875 0  -0.5 -0.1875 0  -0.6875 -0.4375 0  -0.8125 -0.4375 0  -0.8125 -0.5625 0  0 -0.0078125 0  0.00390625 0.00390625 0  0.00390625 0 0  -0.00390625 0.00390625 0  0 0.00390625 0  -0.00390625 0 0  -0.00390625 -0.00390625 0  -0.8125 -0.6875 0  -0.25 -0.1875 0  -0.1875 -0.25 0  -0.21875 -0.21875 0  0 -0.1875 0  -0.03125 -0.21875 0  0.125 0.4375 0  0.1875 0.375 0  0.0625 0.375 0  -0.1875 0.375 0  -0.125 0.4375 0  -0.375 0.1875 0  -0.4375 0.125 0  -0.3125 -0.125 0  -0.4375 -0.125 0  -0.375 -0.1875 0  -0.375 -0.0625 0  -0.34375 -0.15625 0  -0.1875 -0.125 0  -0.21875 -0.09375 0  -0.21875 -0.15625 0  -0.28125 -0.15625 0  -0.15625 -0.09375 0  -0.15625 -0.15625 0  -0.09375 -0.15625 0  -0.6875 0.375 0  -0.375 0.4375 0  -0.4375 0.375 0  -0.3125 0.375 0  -0.375 0.3125 0  -0.03125 -0.15625 0  -0.15625 -0.21875 0  -0.09375 -0.21875 0  -0.125 -0.1875 0  0.5625 0.125 0  0.6875 0.125 0  0.125 0.5625 0  -0.5625 0.125 0  0.3125 0.375 0  -0.5625 -0.125 0  -0.34375 0.03125 0  -0.375 0.0625 0  0 -0.0234375 0  0.01171875 0.00390625 0  0.01171875 0 0  0.00390625 0.01171875 0  -0.00390625 0.01171875 0  0 0.01171875 0  -0.01171875 0.00390625 0  -0.01171875 0 0  -0.01171875 -0.00390625 0  -0.00390625 -0.01171875 0  -0.00390625 -0.01953125 0  0.0078125 0.00390625 0  0.00390625 0.0078125 0  -0.00390625 0.0078125 0  -0.0078125 0.00390625 0  -0.0078125 -0.00390625 0  -0.0078125 -0.015625 0  -0.875 1 0  -1 0.875 0  -0.9375 0.9375 0  -0.8125 0.9375 0  -0.9375 0.8125 0  -0.4375 0.6875 0  -0.4375 0.8125 0  -0.5625 0.6875 0  -0.4375 0.75 0  -0.5 0.6875 0  -0.6875 0.5625 0  1 0.3750000000000001 0  0.9375 0.3125000000000001 0  0.9375 0.2500000000000001 0  0.9375 0.4375 0  -0.3125 0.6875 0  -0.25 0.6875 0  -0.4375 0.5625 0  -0.5625 0.4375 0  -0.4375 0.5 0  -0.5 0.4375 0  -0.5625 0.5625 0  -0.5 0.5625 0  -0.5625 0.5 0  -0.8125 0.1875 0  0.8125 0.3125 0  0.75 0.3125 0  0.6875 0.25 0  0.6875 0.3125 0  0.8125 0.4375 0  0.6875 0.5625 0  0.6875 0.5 0  0.6875 0.4375 0  0.1875 0.6875 0  0.0625 0.75 0  0.0625 0.6875 0  -0.0625 0.6875 0  0 0.6875 0  -0.6875 0.0625 0  -0.6875 0 0  -0.6875 -0.06250000000000001 0  -0.8125 0.0625 0  -0.75 0.0625 0  -0.8125 -0.06250000000000001 0  -0.75 -0.06250000000000001 0  0.5625 0.5625 0  0.5625 0.5 0  0.5625 0.4375 0  0.4375 0.5625 0  0.5 0.4375 0  0.4375 0.5 0  0.4375 0.4375 0  0.5 0.5625 0  0.5625 0.25 0  0.5625 0.3125 0  0.5 0.3125 0  0.3125 0.5625 0  0.25 0.5625 0  0.3125 0.5 0  -0.0625 0.5625 0  0 0.5625 0  -0.0625 0.5 0  -0.6875 -0.1875000000000001 0  -0.8125 -0.1875000000000001 0  -0.75 -0.1875000000000001 0  0.3125 0.25 0  0.28125 0.21875 0  0.3125 0 0  0.28125 0.03125 0  -0.0625 0.25 0  0.0625 0.25 0  0.03125 0.21875 0  -0.03125 0.21875 
[...]
<PointData  Scalars="u"> 
<DataArray  type="Float64"  Name="u"  format="ascii">1.2599736365059027e+00  1.1551671718706193e+00  1.1551671742898846e+00  1.0524878537433400e+00  1.0400345512720091e+00  1.0524879323129364e+00  9.5486273080367934e-01  9.2503095508984434e-01  9.2503085000861585e-01  9.5490325105160312e-01  6.3000719537269145e-01  -2.5895195191364752e-05  1.6593185792714518e-01  3.2768538063863961e-01  4.8270748776963862e-01  6.7254715925798003e-01  7.2481479697932605e-01  7.8897782949863660e-01  8.6602982033187559e-01  8.1443851739080686e-01  7.9366922309258192e-01  8.1447612031030792e-01  8.6606038267984964e-01  5.1999377047106732e-01  2.2852245411099148e-05  1.8198949616151400e-01  3.5656291574298354e-01  5.6852339499196580e-01  6.3246497943611291e-01  7.1481627893246702e-01  6.6298555995286101e-01  6.6297864291292685e-01  7.1485319102127010e-01  7.8895522110459082e-01  3.9683434786817873e-01  3.5644401339699497e-05  2.0644396490709094e-01  4.5660824449869541e-01  5.4545422368103225e-01  4.9990722517266634e-01  5.4542166046661433e-01  6.3248488829069960e-01  7.2484997398859319e-01  2.4997821035591164e-01  -9.2041525568831082e-06  3.4350470719827347e-01  6.7252860018634575e-01  3.4345515135873861e-01  4.5662130339982737e-01  5.6850100567603368e-01  6.3000833075703655e-01  1.8476873808775672e-04  5.1993970495102404e-01  2.4995718139371462e-01  3.9674787224164676e-01  4.8269246213800876e-01  2.7787406341272814e-05  3.5653423916812016e-01  2.0645804319334080e-01  3.2768647322672451e-01  3.0876589824187058e-05  1.8196336964526538e-01  1.6595856341137188e-01  2.2413431182750319e-05  -8.4112232876880957e-05  1.1464402540439243e-01  3.9838460479422194e-01  5.1308036157649894e-01  5.1299558881909957e-01  4.1767524037067549e-01  4.1753906655549972e-01  1.3003992991318297e-01  2.8750958855346209e-01  1.5746627192977683e-01  -9.4870474552950706e-05  3.1480842527612335e-01  2.1639359116016962e-01  3.9837671350942927e-01  2.1616631707468587e-01  2.8752109478209403e-01  1.5741661080007371e-01  1.1458144075314956e-01  2.8553248499216277e-01  1.0447079965775326e-01  1.9271363517870457e-01  2.5804150487422634e-01  9.7189868320664091e-02  -3.2732674730361011e-05  1.7322679843019165e-01  9.1513578980235336e-02  8.7064215457103702e-02  8.3176121097553471e-02  -2.6591112217850680e-05  7.9905644053249680e-01  7.9904505112051361e-01  7.2769951258933674e-01  7.2770018219308796e-01  6.5507419090725594e-01  5.8268446147845621e-01  5.8269120836993082e-01  7.2175500582211657e-02  4.6047526984071176e-05  2.5084218945078340e-01  3.2308262332233573e-01  2.8360497932133821e-01  3.2305594040596969e-01  2.8347619268835689e-01  2.5094580927019416e-01  -6.9282360026095923e-05  9.9174058472930884e-02  -4.3985127440755939e-05  1.9827781386185764e-01  1.3627100822000043e-01  1.3612684575109091e-01  9.9034421373564913e-02  1.3008856675983102e-01  2.0629164248980086e-01  7.2224276771996776e-02  8.1825338056566999e-02  1.8112318372655475e-01  2.6299562450193359e-01  2.6298016804326640e-01  1.8093362699306278e-01  2.5809454020140360e-01  7.5051663015042269e-01  4.6053777515558258e-01  2.7050593415628033e-01  9.7232171016421523e-02  1.9274224878216695e-01  3.7482521886242937e-01  2.8552946135633300e-01  5.1355162723116865e-01  6.7125900656390713e-01  5.4750035897196969e-01  5.8715680633825451e-01  6.8439241802981687e-01  6.3303033510681961e-01  6.0143955711221153e-01  6.8435509646431725e-01  6.0142956678020831e-01  6.3301487257964451e-01  3.0405234813620136e-01  4.2361664448656405e-01  3.2755518198603811e-01  1.0449284862203299e-01  4.9696259776700374e-01  3.5814134003678466e-01  5.8713739646833407e-01  4.9693407759519215e-01  5.4739973374383144e-01  5.1350981928990835e-01  3.5811401615763233e-01  4.2365317288411986e-01  -3.1059135879698032e-05  6.2493219634996829e-02  -1.9098982400629624e-04  1.2489771818654788e-01  8.5835993354090048e-02  8.5756513906204784e-02  6.2374625974378824e-02  3.2754559150468238e-01  4.5549120554690369e-02  1.5790950268335546e-01  2.0333054873302978e-01  1.7849801289301878e-01  2.0331565436733978e-01  1.7841198728383059e-01  1.5806870795954756e-01  4.5426952995237163e-02  5.1458776745473563e-02  1.1385939720178077e-01  1.6534778169662626e-01  1.6534706552374862e-01  1.1391113243641549e-01  8.1926493190174088e-02  1.1525517572505699e+00  1.1034988943891721e+00  1.0977731909808468e+00  1.0977732523606469e+00  1.1034988765191085e+00  1.0431325023534754e+00  1.0029081888354305e+00  9.8941465789432625e-01  1.0431424094331612e+00  9.8234862997425199e-01  9.8234853798019905e-01  9.8941640909522677e-01  1.0029084080138213e+00  9.3672634828927348e-01  9.0912648336621671e-01  8.8594395633928680e-01  9.2098022171196181e-01  8.6882894379501152e-01  8.5969624376992171e-01  9.3673964006799326e-01  8.5969143973033335e-01  8.6882880093854409e-01  8.8591548466790970e-01  9.0919076036794233e-01  8.7016166192999261e-02  1.7321695523143482e-01  8.3749712585689307e-01  8.3753237359634047e-01  7.6275479374667132e-01  7.9223459715554434e-01  8.2588079692985494e-01  9.1520795307644745e-02  7.5052977774078455e-01  6.7125281230669220e-01  7.1267805823560848e-01  4.5033928575884802e-01  5.2750686595044882e-01  4.5028213679419615e-01  5.2761163652024967e-01  6.7868527081843122e-01  4.3103971509341732e-01  6.2143572576984041e-01  4.3113195547387778e-01  5.4256544769357307e-01  4.8485859910475154e-01  9.9939722866507636e-06  3.9382199581953790e-02  -5.2041846090706047e-05  7.8609251593797835e-02  5.3868833561730292e-02  5.3767405092159944e-02  3.9116177729693877e-02  4.6048580562379282e-01  2.8699198637766599e-02  9.9318719710313572e-02  1.2778473762211914e-01  1.1231414948791933e-01  1.2779139578446255e-01  1.1233010925618903e-01  9.9527794890652888e-02  2.8700690278892518e-02  3.2449919326245295e-02  7.1688484931587471e-02  1.0411511226495065e-01  1.0412094915552028e-01  7.1713679938143232e-02  5.1497492711780155e-02  5.5726756316001347e-01  5.7635640609395089e-01  4.0611751517004985e-01  3.4098080677070025e-01  5.0018072853467899e-01  4.2175373205771993e-01  6.9732063522208643e-01  5.9752340945514049e-01  6.2148913946646733e-01  6.4831663820832852e-01  6.7866126281279360e-01  7.6278115509201228e-01  7.4018320141960070e-01  7.5046763123653659e-01  4.3966077905778789e-01  5.4256226574956579e-01  4.9069576960039646e-01  5.9832030688864779e-01  4.8485824023280572e-01  5.1412203543398993e-01  5.4128152484283298e-01  5.7289889836772878e-01  6.7230168125885892e-01  6.9441998175629000e-05  5.4773332753836473e-02  2.2450812808393683e-01  1.6251225749948880e-01  1.5018956685798593e-01  2.6567107003451207e-01  1.5595311631672917e-01  5.0324036278803297e-01  5.0323350584876514e-01  4.5828396430327767e-01  4.5829205539118129e-01  4.1256287591478769e-01  1.7980338884959174e-01  3.2351109455031113e-01  1.9153890007999522e-01  2.6678829297034390e-01  2.0634759208987730e-01  2.9004575289732737e-01  6.1233721119640296e-02  6.5872589629209374e-02  3.6987626524999684e-01  3.9150877766587083e-01  5.7627158665639189e-01  5.5732354623776070e-01  7.6937382081568284e-06  2.4847393081591292e-02  -3.5507260268253121e-05  4.9601986812203833e-02  3.3919968510187290e-02  3.3859396308281255e-02  2.4629397934019186e-02  5.0024239393765635e-01  4.3968861288426858e-01  2.2453844708898232e-01  3.2349424019547152e-01  1.7981484934821634e-01  3.0541960840449978e-01  2.9004097908597420e-01  3.7479714506571282e-01  3.0403990560336885e-01  3.4031319258350029e-01  3.6303013191449768e-01  4.2172506049964975e-01  4.0614487644769831e-01  1.3273786305780660e-07  6.1170078159147906e-02  6.5774732761731708e-02  3.4098522739616560e-01  2.7051177207981664e-01  3.0650154007154184e-01  1.6251739389617692e-01  2.4719925070517185e-01  1.5594219058124412e-01  1.5024995982035574e-01  2.6567588784647372e-01  2.4753510198839335e-01  2.9359488071946255e-01  5.4781980413985777e-02  1.2130912196721971e-01  1.0913398859086394e-01  3.4486211242373971e-01  3.6696351741264077e-01  3.6703429830581263e-01  1.4143036491134087e-01  2.2555877686424219e-01  1.0905996437894314e-01  1.2144600497982207e-01  3.4182374958012035e-01  5.3722358918181131e-05  1.8014003260939559e-02  6.2503501945898057e-02  8.0419112953764540e-02  7.0665176586265727e-02  8.0428257354961993e-02  7.0680663046109940e-02  6.2638161539806295e-02  1.7910813251897070e-02  1.5204268764719395e-02  2.0194229535652992e-02  4.5104538612810975e-02  6.5316635313680510e-02  6.5323204107880395e-02  4.5129320856676702e-02  3.2516318326620879e-02  8.6317762162641742e-01  8.3267449211804623e-02  2.6313675187917058e-05  4.2543275179014330e-02  1.2738612771686320e-01  7.5527780077159468e-01  8.2589092025127653e-01  7.1261787176629865e-01  7.6950323135075616e-01  7.3390652827814684e-01  7.9220217578950147e-01  8.0865879200874535e-01  8.5122397544798467e-01  7.2605574747894208e-01  7.4018586191009583e-01  8.0565210103521212e-01  7.5047544881186468e-01  8.7649378777520237e-01  8.4132090867100628e-01  4.2712840556682277e-07  4.7168523067982644e-02  4.4652520066416505e-02  4.5820012074016120e-02  1.4088678698178478e-01  6.9171222544611477e-01  6.5551640136849754e-01  7.3219229532000873e-01  7.7687182554800771e-01  5.9006263088758215e-01  7.3244997718616500e-01  6.9508708934312713e-01  6.5708005177488127e-01  6.2321042196010812e-01  6.3166200703128550e-01  5.9003639911267358e-01  7.3247798706883549e-01  6.9509066259009378e-01  6.5708390952295714e-01  6.2322464476349004e-01  6.7227551154781917e-01  6.3165274076133449e-01  7.5527546555737501e-01  5.0437841178358950e-02  5.2408830582669950e-02  4.2748242468217695e-01  5.2204261325019141e-01  3.9144935806668535e-01  4.7577555220560969e-01  4.0843776437421192e-01  4.7272415853394384e-01  5.6564810045919389e-01  5.2020644439416874e-01  4.9903879976299775e-01  5.8012876320204398e-01  5.4142567471822278e-01  5.4143681788682640e-01  4.7272316518273261e-01  6.1607107411259365e-01  5.6562095540244939e-01  5.2018000958877386e-01  4.9901347936410712e-01  5.9827045786038890e-01  5.7295658399363325e-01  6.5553822529808958e-01  6.9731445423037164e-01  6.4834390968370781e-01  7.0181933919492578e-01  6.7294614583008439e-01  5.9753951485116463e-01  6.4721104683441522e-01  3.7875476933920882e-01  3.6987276609669983e-01  3.1297425322180561e-01  2.9777599978839786e-01  3.9877864383533856e-01  3.8804810366138132e-01  4.2747341999548233e-01  5.2207469995221256e-01  4.7583407931184096e-01  5.4131745486773974e-01  6.2346960067007984e-01  5.9525126915667448e-01  5.1750931461015255e-06  1.5661603778877743e-02  -2.2346215116123095e-05  3.1260093792006588e-02  2.1370065368606084e-02  2.1334175758021972e-02  1.5529208759170913e-02  5.7041186595292648e-01  2.6680749208824217e-01  1.9153272038322780e-01  2.2865813819072273e-01  4.1996228193817638e-05  3.4571884566766090e-02  4.4892397611180784e-01  3.7685166074288312e-01  4.2277615432253041e-01  5.4720575930008541e-01  5.5802259030779411e-01  5.4715972007744207e-01  5.5797853315339774e-01  3.4485489195584978e-01  4.4889936850338957e-01  3.7684338961126318e-01  4.2277564607318774e-01  3.6090408780466454e-01  2.2551342566694810e-01  2.6928348809622937e-01  2.4661754583148784e-01  3.0570551090347209e-01  2.0363918625424149e-01  1.8266863883041357e-01  1.1328694134257124e-01  8.3416711026079637e-01  6.9150497940402855e-01  6.9150610331541018e-01  6.1876209517684666e-01  6.1876453956303124e-01  3.8589521184136305e-02  1.6732973541486312e-01  1.0236406061451410e-01  1.4141418040090789e-01  1.0054096631958569e-01  9.4198849219055220e-02  5.4295662988773918e-01  6.4358720648192647e-01  3.4176373260917908e-01  5.4292644944645452e-01  4.4010292482861058e-01  4.8041582402375155e-01  6.6347209704309466e-05  1.1339729478095898e-02  2.4776433584082268e-05  3.9312926285260341e-02  5.0651791702706041e-02  4.4432827508293936e-02  5.0660961973668837e-02  4.4448780764482103e-02  3.9411490079894196e-02  1.1341512130373727e-02  9.4966510285258137e-03  1.2753112799376611e-02  2.8422020729517387e-02  4.1172755518335546e-02  4.1178994830857123e-02  2.8447742453301509e-02  2.0431291625296621e-02  1.2074561331925286e+00  1.2074561332181544e+00  1.2068967188631681e+00  1.1531814369235160e+00  1.1531814554139688e+00  8.6317636593172165e-01  9.2999343452306515e-01  9.2202807260423136e-01  8.9676696342727513e-01  8.9249071116741963e-01  9.2202692523535756e-01  2.4753460851303699e-01  2.1122080435348869e-01  1.6941303962546603e-01  2.9360361546515534e-01  8.0561389785614901e-01  7.7767143992296350e-01  7.9500674403300875e-01  7.9500188718163356e-01  7.6056869507564007e-01  7.6056725364372813e-01  8.5852011854650634e-01  8.2669572295147642e-01  8.2669338511596224e-01  8.2517897137987239e-01  2.2097097135540658e-01  2.2655881786452101e-01  1.8710546420016647e-01  2.3269870291989150e-01  3.0650705645581466e-01  4.0787983088354424e-01  3.6525282360600914e-01  3.2183730055542115e-01  6.0961288207754605e-01  6.9247384299711401e-01  6.5154251915259009e-01  6.9875233277419702e-01  6.7452214274910871e-01  6.9873907207749197e-01  6.7448657376615662e-01  6.5154765644145463e-01  7.7680455164183826e-01  7.3830456990679749e-01  7.3216838991452737e-01  6.9246981206044200e-01  4.2926606474116952e-01  3.8532456176687724e-01  3.4029037615086832e-01  4.5476061212490460e-01  3.5107867393131831e-01  4.0955780900077982e-01  3.6305140228596972e-01  4.4143253088243417e-01  1.9911660810802526e-01  2.4720268237510257e-01  2.5585081474266025e-01  4.8529409247961841e-01  5.0286553954859625e-01  4.3923184326507353e-01  6.1608467461440986e-01  5.9008059483460218e-01  5.7264579324588361e-01  6.0952313059239349e-01  6.9171175221374515e-01  6.5122622389707008e-01  2.3609983858849767e-01  2.1433628301719765e-01  3.3908678549468756e-07  3.1782319549650925e-02  3.7883741621781925e-01  3.1302282678636040e-01  2.9768075807370270e-01  3.3220717918542286e-01  3.1427180958541412e-01  3.9867996198631922e-01  3.8808517326872238e-01  3.5624058582223606e-01  3.3215864578202176e-01  4.8535641492890003e-01  4.3926030479372685e-01  5.1407706451953206e-01  3.2681513611914146e-06  9.8681111888667700e-03  -1.4056458789382201e-05  1.9696168444507903e-02  1.3462690891890131e-02  1.3441114791415876e-02  9.7864293405159185e-03  2.3610648349359903e-01  2.1433027531939086e-01  4.5475436429108784e-01  4.0955190278273523e-01  4.4143094874733935e-01  4.2929655079449092e-01  3.2178257489843981e-01  5.2392945864816652e-02  5.0450435254766057e-02  -3.9068110903714570e-05  2.3263472917582023e-01  1.8707902876114751e-01  2.2095610570216473e-01  1.4086506151232844e-01  1.3696176588702086e-01  1.3345415397540197e-01  2.2654209370627945e-01  4.7153785827084502e-02  3.6056586790348003e-05  4.5848481893293686e-02  4.4632191731499841e-02  4.6626223477428874e-01  3.7170654814498028e-01  4.2337938668796066e-01  4.1372835882866921e-01  3.9245726200357933e-01  2.6919938301433183e-01  3.2877073662658318e-01  1.1324646910923125e-01  2.0368893968901688e-01  1.2994567703595092e-01  1.2063106750420623e-01  1.6802633402903241e-01  3.8590099101301421e-02  4.1511427905467517e-02  3.1694935913994460e-01  3.1694503342188601e-01  2.5988166055868878e-01  2.8867998369750192e-01  2.8867532000474289e-01  2.3283038091159941e-01  2.7146895203503529e-01  2.5110671137506485e-01  1.9704781114853762e-01  2.3846680616462543e-01  2.7143773323224107e-01  2.5096413086163105e-01  2.3298342399304001e-01  2.3843498710064787e-01  1.2988998517269373e-01  1.6792672883608448e-01  1.2062093562030107e-01  2.3951091643045447e-01  2.7760358605787094e-01  1.0055031529477435e-01  1.4522148976467136e-01  4.8670566693816676e-02  9.4146670903393348e-02  8.9171690896876585e-02  7.6358660494513531e-01  8.3415982121501930e-01  8.2921461261323848e-01  7.6936002878824361e-01  7.6357281102757923e-01  7.6485712667170025e-02  2.6619910620328757e-01  2.1722471334848756e-01  3.0262104805373663e-01  2.9365087935160489e-01  3.4462316288713901e-01  3.0259028152060063e-01  2.9363065842294001e-01  8.9015535318510794e-02  1.4204534606090960e-01  2.3102511846584944e-01  2.3101751010587623e-01  1.4196855580047119e-01  8.9003656950087107e-02  2.6400238405294124e-01  2.1589925325570172e-01  4.7216799878900889e-01  2.7762781531216735e-01  2.3954073712686286e-01  3.3060160371655933e-01  2.9424707268952560e-01  5.2978785853490495e-01  4.6931849530542508e-01  6.2994542221999672e-01  6.0927105586179964e-01  6.5802983028368123e-01  6.4358217741763690e-01  6.5803214076787853e-01  7.2410951200788931e-01  6.0927466229809024e-01  3.1504510740343106e-01  3.7642581694684735e-01  6.2994379380840460e-01  4.6936926692880249e-01  8.9031167036568415e-01  8.9031029592887190e-01  8.0061394823546894e-01  7.1141173262750279e-01  4.8923178962424030e-01  4.4016206141106545e-01  4.1043165949562266e-01  4.8038785790692018e-01  4.7214822823947622e-01  2.9791220494446855e-02  5.7580818542986939e-02  2.0271669302984052e-01  1.7044843782773442e-01  4.4910535471305536e-05  7.1525012832371277e-03  1.6022152567190882e-05  2.4765581460418837e-02  3.1914810375785543e-02  2.7988709963768621e-02  3.1922974055152056e-02  2.8002566221041442e-02  2.4834280884413692e-02  2.0272146391349991e-01  1.7039905422722360e-01  7.1571532028542406e-03  6.0151697376073510e-03  8.0393086109698531e-03  1.7907728346848992e-02  2.5943451980873590e-02  2.5948579900022715e-02  1.7927573264998442e-02  1.2912591307476649e-02  1.1292246500283760e+00  1.1265300712365913e+00  1.0999214587398032e+00  1.1265301170807336e+00  1.1292246517373874e+00  1.0999326553440252e+00  1.0778722387633359e+00  1.0470620698564665e+00  1.0274758937479502e+00  1.0211011207431397e+00  9.9531491267862982e-01  1.0970507946179047e+00  1.0688603399624821e+00  1.0688603756613917e+00  1.0407490889164426e+00  1.0407491678631069e+00  1.0110688578884706e+00  1.0110688410253930e+00  9.8144956242401749e-01  1.0778722135498346e+00  1.0470626939836709e+00  1.0211025598318777e+00  1.0274759256674948e+00  9.9534285286462543e-01  9.7863619641046684e-01  9.4500907188097827e-01  9.3167556396402051e-01  9.2070248572209612e-01  8.9687719295395552e-01  9.8501496974564173e-01  9.5734973965837589e-01  9.5360986048517515e-01  9.8501853442340004e-01  9.5360961989183979e-01  9.5735077918718492e-01  9.2999532923245265e-01  8.9676734290216398e-01  9.7863073661295374e-01  9.4510219939846185e-01  9.2066885243356811e-01  9.3167359119682425e-01  8.9687603719659681e-01  6.5015689183762804e-01  5.9387693617985271e-01  6.0344777634890867e-01  3.3409588751140268e-01  3.7415913430430497e-01  5.2913435674851106e-01  4.9120582528737006e-01  4.5266902579667029e-01  6.2408333191596965e-01  6.3533969792572298e-01  6.4721228364434036e-01  6.7295402393698267e-01  6.8696279925804293e-01  7.0182625059433290e-01  8.7648240276166700e-01  8.5048777880270632e-01  8.4132091501935136e-01  8.2515699600783221e-01  7.8819069257315955e-01  8.8721552113344726e-01  8.5113683923823202e-01  8.2950413803220280e-01  8.4553620244342054e-01  8.0865487155662030e-01  5.4855640374031911e-01  5.0978524776915379e-01  4.7035163335879682e-01  5.5912879320907649e-01  5.7041226954792901e-01  4.8017960420757211e-01  5.3093511161217899e-01  1.3346632348998810e-01  1.7740508908776320e-01  1.3694374298534531e-01  3.4847426590707614e-01  3.8968993906086369e-01  3.9848942739188881e-01  5.9526787747397714e-01  6.0885222032621400e-01  6.2342539880947756e-01  5.5508737368027861e-01  5.8288520695006718e-01  7.6949706840352738e-01  7.5127395072379277e-01  7.3395485413867090e-01  2.1476826377260400e-01  2.3561772244254078e-01  4.5726594326542946e-01  5.7268492137581661e-01  5.9007217673549806e-01  5.3613729810359101e-01  5.8116013814188128e-01  3.0539226393633734e-01  2.8644389070125864e-01  2.7038623107486365e-01  3.4423570841301189e-02  6.7934939800075927e-05  3.3025221333900907e-02  6.5013865727368658e-01  6.2412494270180874e-01  6.0341069888479393e-01  5.9389196520304444e-01  2.0564484767962796e-06  6.2159564423349706e-03  -8.8253400478223192e-06  1.2407143156674108e-02  8.4780841809114632e-03  8.4649594202028649e-03  6.1653809791566020e-03  5.3088995893460655e-01  4.9070070997831994e-01  5.4851846168951957e-01  5.0978229