<?xml version="1.0"?>
<VTKFile type="UnstructuredGrid"  version="0.1"  >
<UnstructuredGrid>
<Piece  NumberOfPoints="538" NumberOfCells="1006">
<Points>
<DataArray  type="Float64"  NumberOfComponents="3"  format="ascii">-1 1 0  -0.75 1 0  -1 0.75 0  -0.5 1 0  -0.75 0.75 0  -1 0.5 0  -0.25 1 0  -0.5 0.75 0  -0.75 0.5 0  -1 0.25 0  1 1 0  1 1.110223024625157e-16 0  1 0.2500000000000001 0  1 0.5 0  1 0.75 0  0.75 1 0  0.5 1 0  0.25 1 0  0 1 0  -0.25 0.75 0  -0.5 0.5 0  -0.75 0.25 0  -1 0 0  0.75 0.75 0  0.75 0 0  0.75 0.25 0  0.75 0.5 0  0.5 0.75 0  0.25 0.75 0  0 0.75 0  -0.25 0.5 0  -0.5 0.25 0  -0.75 0 0  -1 -0.2500000000000001 0  0.5 0.5 0  0.5 0 0  0.5 0.25 0  0.25 0.5 0  0 0.5 0  -0.25 0.25 0  -0.5 0 0  -0.75 -0.2500000000000001 0  -1 -0.5 0  0.25 0.25 0  0.25 0 0  0 0.25 0  -1 -0.75 0  -0.25 0 0  -0.5 -0.25 0  -0.75 -0.5 0  -0.9999999999999999 -1 0  0 0 0  -0.75 -0.75 0  -0.25 -0.25 0  -0.5 -0.5 0  -0.7499999999999999 -1 0  0 -0.25 0  -0.5 -0.75 0  -0.25 -0.5 0  -0.4999999999999999 -0.9999999999999999 0  0 -0.5 0  -0.25 -0.75 0  -0.2499999999999999 -0.9999999999999999 0  0 -0.75 0  0 -0.9999999999999999 0  0.375 0.375 0  0.375 0.25 0  0.375 0.125 0  0.25 0.375 0  0.125 0.375 0  -0.125 0.375 0  -0.375 0.125 0  -0.125 0.25 0  -0.25 0.125 0  0.25 0.125 0  0.125 0.25 0  0.125 0.125 0  0.125 0 0  -0.125 0.125 0  0 0.125 0  -0.375 -0.125 0  -0.125 0 0  -0.25 -0.125 0  -0.375 -0.25 0  -0.125 -0.125 0  0 -0.125 0  -0.375 -0.375 0  -0.125 -0.25 0  -0.125 -0.375 0  0.1875 0.0625 0  0.0625 0.1875 0  -0.0625 0.1875 0  -0.1875 0.0625 0  -0.1875 0 0  -0.1875 -0.0625 0  0.0625 0.0625 0  0.0625 0 0  -0.0625 0.0625 0  0 0.0625 0  -0.0625 0 0  -0.0625 -0.0625 0  0 -0.0625 0  -0.625 -0.625 0  -0.5 -0.625 0  -0.375 -0.5 0  -0.0625 -0.1875 0  -0.375 -0.625 0  -0.375 -0.75 0  -0.125 -0.5 0  -0.25 -0.625 0  -0.3749999999999999 -0.875 0  -0.3749999999999999 -0.9999999999999999 0  -0.125 -0.625 0  0 -0.625 0  -0.2499999999999999 -0.875 0  -0.125 -0.75 0  -0.1249999999999999 -0.875 0  -0.1249999999999999 -0.9999999999999999 0  0 -0.875 0  0.125 0.0625 0  0.0625 0.125 0  -0.0625 0.125 0  -0.125 0.0625 0  -0.125 -0.0625 0  -0.0625 -0.125 0  -0.375 0.875 0  -0.625 0.625 0  -0.375 0.75 0  -0.5 0.625 0  -0.875 0.375 0  -0.625 0.5 0  -0.75 0.375 0  -0.125 0.875 0  -0.375 0.625 0  -0.125 0.75 0  -0.25 0.625 0  -0.625 0.375 0  -0.375 0.5 0  -0.5 0.375 0  -0.875 0.125 0  -0.625 0.25 0  -0.75 0.125 0  0.625 0.125 0  0.625 0.25 0  0.625 0.375 0  0.125 0.625 0  -0.125 0.625 0  0 0.625 0  -0.375 0.375 0  -0.125 0.5 0  -0.25 0.375 0  -0.625 0.125 0  -0.375 0.25 0  -0.5 0.125 0  -0.625 0 0  0.5 0.125 0  -0.625 -0.125 0  0.03125 0.03125 0  0.03125 0 0  -0.03125 0.03125 0  0 0.03125 0  -0.03125 0 0  -0.03125 -0.03125 0  0 -0.03125 0  0.09375 0.03125 0  0.03125 0.09375 0  -0.03125 0.09375 0  0 0.09375 0  -0.09375 0.03125 0  -0.09375 0 0  -0.09375 -0.03125 0  -0.03125 -0.09375 0  0.0625 0.03125 0  0.03125 0.0625 0  -0.03125 0.0625 0  -0.0625 0.03125 0  -0.0625 -0.03125 0  -0.03125 -0.0625 0  -0.875 0.875 0  -0.625 1 0  -0.75 0.875 0  -0.875 0.75 0  -0.625 0.875 0  -0.875 0.625 0  0.875 0.875 0  1 0.1250000000000001 0  0.875 5.551115123125783e-17 0  1 0.3750000000000001 0  0.875 0.1250000000000001 0  0.875 0.2500000000000001 0  1 0.625 0  0.875 0.375 0  0.875 0.5 0  0.875 0.75 0  0.875 0.625 0  0.75 0.875 0  0.625 0.875 0  0.5 0.875 0  0.375 0.875 0  0.25 0.875 0  0.125 0.875 0  0.75 0.625 0  0.625 0.75 0  0.625 0.625 0  0.75 0.125 0  0.75 0.375 0  0.375 0.75 0  0.5 0.625 0  0.375 0.625 0  0.125 0.75 0  0.25 0.625 0  -0.875 -0.125 0  -0.75 -0.125 0  -0.875 -0.2500000000000001 0  0.5 0.375 0  0.375 0.5 0  0.4375 0.4375 0  0.125 0.5 0  0.3125 0.4375 0  0 0.375 0  0.0625 0.4375 0  -0.0625 0.4375 0  -0.375 0 0  -0.5 -0.125 0  -0.4375 0.0625 0  -0.4375 -0.0625 0  -0.875 -0.375 0  -0.625 -0.25 0  -0.75 -0.375 0  -0.875 -0.5 0  0.0625 0.3125 0  -0.0625 0.3125 0  -0.875 -0.625 0  -0.3125 0.0625 0  -0.3125 -0.0625 0  -0.625 -0.375 0  -0.5 -0.375 0  -0.625 -0.5 0  0.015625 0.015625 0  0.015625 0 0  -0.015625 0.015625 0  0 0.015625 0  -0.015625 0 0  -0.015625 -0.015625 0  0 -0.015625 0  0.046875 0.015625 0  0.015625 0.046875 0  -0.015625 0.046875 0  0 0.046875 0  -0.046875 0.015625 0  -0.046875 0 0  -0.046875 -0.015625 0  -0.015625 -0.046875 0  0.03125 0.015625 0  0.015625 0.03125 0  -0.015625 0.03125 0  -0.03125 0.015625 0  -0.03125 -0.015625 0  -0.015625 -0.03125 0  0.625 0 0  0.6875 0.0625 0  0.625 0.5 0  0.6875 0.4375 0  -0.1875 0.4375 0  -0.4375 0.1875 0  0.5625 0.4375 0  0.375 0 0  0.4375 0.0625 0  0.5625 0.0625 0  0.5 0.0625 0  0.4375 0.1875 0  0.5625 0.1875 0  -0.1875 0.3125 0  -0.3125 0.1875 0  -0.1875 0.25 0  -0.25 0.1875 0  -0.1875 0.1875 0  -0.3125 0.3125 0  -0.25 0.3125 0  -0.3125 0.25 0  0.3125 0.3125 0  0.3125 0.25 0  0.3125 0.1875 0  0.1875 0.3125 0  0.25 0.1875 0  0.1875 0.25 0  0.1875 0.1875 0  0.3125 0.0625 0  0.25 0.0625 0  -1 -0.875 0  -0.875 -0.75 0  -0.4375 -0.3125 0  -0.75 -0.625 0  -0.875 -0.875 0  -0.8749999999999999 -1 0  0.0078125 0.0078125 0  0.0078125 0 0  -0.0078125 0.0078125 0  0 0.0078125 0  -0.0078125 0 0  -0.0078125 -0.0078125 0  0 -0.0078125 0  -0.75 -0.875 0  -0.625 -0.75 0  -0.6875 -0.6875 0  -0.25 -0.375 0  -0.3125 -0.1875 0  -0.25 -0.1875 0  -0.3125 -0.25 0  -0.1875 -0.1875 0  -0.3125 -0.3125 0  -0.1875 -0.25 0  -0.1875 -0.3125 0  -0.625 -0.875 0  -0.6249999999999999 -1 0  0 -0.375 0  -0.0625 -0.25 0  -0.0625 -0.3125 0  -0.4999999999999999 -0.875 0  -0.5625 -0.6875 0  -0.4375 -0.8125 0  -0.3125 -0.4375 0  -0.1875 -0.4375 0  -0.1875 -0.5 0  -0.1875 -0.5625 0  -0.4374999999999999 -0.9375 0  -0.0625 -0.4375 0  -0.0625 -0.5 0  -0.0625 -0.5625 0  0.375 0.1875 0  0.3125 0.125 0  0.4375 0.125 0  0.125 0.3125 0  -0.125 0.3125 0  -0.1875 0.375 0  -0.3125 0.125 0  -0.375 0.1875 0  -0.125 0.1875 0  -0.1875 0.125 0  0.1875 0.125 0  0.21875 0.09375 0  0.125 0.1875 0  0.15625 0.09375 0  -0.3125 -0.125 0  -0.1875 -0.125 0  -0.375 -0.3125 0  -0.125 -0.1875 0  -0.09375 -0.15625 0  -0.125 -0.3125 0  -0.09375 -0.21875 0  -0.125 -0.4375 0  0.5625 0.125 0  0.0234375 0.0078125 0  0.0078125 0.0234375 0  -0.0078125 0.0234375 0  0 0.0234375 0  -0.0234375 0.0078125 0  -0.0234375 0 0  -0.0234375 -0.0078125 0  -0.0078125 -0.0234375 0  0.015625 0.0078125 0  0.0078125 0.015625 0  -0.0078125 0.015625 0  -0.015625 0.0078125 0  -0.015625 -0.0078125 0  -0.0078125 -0.015625 0  -1 0.625 0  -0.9375 0.6875 0  -0.375 1 0  -0.5 0.875 0  -0.4375 0.9375 0  -0.5625 0.9375 0  -0.625 0.75 0  -0.75 0.625 0  -0.6875 0.6875 0  -0.6875 0.8125 0  -0.8125 0.6875 0  -0.875 0.5 0  -1 0.375 0  -0.9375 0.4375 0  -0.9375 0.5625 0  -0.125 1 0  -0.25 0.875 0  -0.3125 0.9375 0  -0.1875 0.9375 0  -0.4375 0.8125 0  -0.5625 0.6875 0  -0.5625 0.8125 0  -0.6875 0.5625 0  -0.8125 0.4375 0  -0.8125 0.5625 0  -0.875 0.25 0  -1 0.125 0  -0.9375 0.3125 0  -0.9375 0.1875 0  0.125 1 0  0 0.875 0  -0.0625 0.9375 0  0.0625 0.9375 0  -0.3125 0.8125 0  -0.1875 0.8125 0  -0.3125 0.6875 0  -0.1875 0.75 0  -0.1875 0.6875 0  -0.4375 0.5625 0  -0.5625 0.4375 0  -0.4375 0.5 0  -0.5 0.4375 0  -0.4375 0.4375 0  -0.8125 0.3125 0  -0.6875 0.3125 0  -0.8125 0.1875 0  -0.75 0.1875 0  -0.6875 0.1875 0  -0.875 0 0  -1 -0.125 0  -0.9375 0.0625 0  -0.9375 -0.06250000000000001 0  0.1875 0.8125 0  -0.0625 0.8125 0  0.0625 0.6875 0  -0.0625 0.6875 0  0.0625 0.8125 0  0.0625 0.75 0  -0.3125 0.5625 0  -0.25 0.5625 0  -0.3125 0.5 0  -0.1875 0.5625 0  -0.3125 0.4375 0  -0.25 0.4375 0  -0.5625 0.3125 0  -0.5 0.3125 0  -0.5625 0.25 0  -0.4375 0.3125 0  -0.5625 0.1875 0  -0.4375 0.25 0  -0.8125 0.0625 0  -0.6875 0.0625 0  -0.6875 -0.06250000000000001 0  -0.8125 -0.06250000000000001 0  -0.75 -0.06250000000000001 0  0.4375 0.3125 0  0.4375 0.25 0  0.25 0.4375 0  0.1875 0.4375 0  0.1875 0.5625 0  0.1875 0.5 0  0.0625 0.5625 0  -0.0625 0.5625 0  0 0.5625 0  -0.0625 0.5 0  0.0625 0.5 0  -0.5625 0.0625 0  -0.5 0.0625 0  -0.5625 0 0  -0.5625 -0.06250000000000001 0  -0.5 -0.0625 0  -0.8125 -0.1875000000000001 0  0.1875 0 0  0.21875 0.03125 0  -0.0625 0.25 0  0.0625 0.25 0  0 0.1875 0  0.03125 0.21875 0  -0.03125 0.21875 0  0 0.3125 0  0.03125 0.28125 0  -0.03125 0.28125 0  -0.25 0.0625 0  -0.25 -0.0625 0  -0.21875 0.03125 0  -0.21875 -0.03125 0  -0.3125 0 0  -0.28125 0.03125 0  -0.4375 -0.1875 0  -0.4375 -0.25 0  -0.5625 -0.1875 0  -0.5 -0.1875 0  0.00390625 0.00390625 0  0.00390625 0 0  -0.00390625 0.00390625 0  0 0.00390625 0  -0.00390625 0 0  -0.00390625 -0.00390625 0  0 -0.00390625 0  0 -0.1875 0  -0.03125 -0.21875 0  0.375 0.3125 0  0.1875 0.375 0  0.125 0.4375 0  -0.09375 0.21875 0  -0.21875 0.09375 0  0.09375 0.21875 0  0.09375 0.28125 0  0.09375 0.15625 0  0.15625 0.03125 0  0.03125 0.15625 0  -0.03125 0.15625 0  0.03125 0.125 0  -0.375 -0.1875 0  -0.4375 -0.125 0  -0.21875 -0.09375 0  -0.03125 -0.15625 0  0.0625 0.15625 0  -0.125 0.8125 0  -0.3125 0.625 0  -0.625 0.3125 0  -0.375 0.4375 0  -0.4375 0.375 0  -0.8125 0.125 0  0.125 0.5625 0  -0.0625 0.625 0  -0.125 0.5625 0  -0.3125 0.375 0  -0.375 0.3125 0  -0.5625 0.125 0  -0.625 0.0625 0  -0.5625 -0.125 0  0.125 0.8125 0  -0.8125 -0.125 0  -0.03125 0.34375 0  -0.0625 0.375 0  -0.34375 0.03125 0  -0.375 0.0625 0  0.01171875 0.00390625 0  0.00390625 0.01171875 0  -0.00390625 0.01171875 0  0 0.01171875 0  -0.01171875 0.00390625 0  -0.01171875 0 0  -0.01171875 -0.00390625 0  -0.00390625 -0.01171875 0  0.0078125 0.00390625 0  0.00390625 0.0078125 0  -0.00390625 0.0078125 0  -0.0078125 0.00390625 0  -0.0078125 -0.00390625 0  -0.00390625 -0.0078125 0  </DataArray>
</Points>
<Cells>
[...]
<PointData  Scalars="u"> 
<DataArray  type="Float64"  Name="u"  format="ascii">1.2601708486755303e+00  1.1549822354339458e+00  1.1549340945617039e+00  1.0524674569547119e+00  1.0401511124080989e+00  1.0524709025048724e+00  9.5484431213691567e-01  9.2492509461698835e-01  9.2490522360844585e-01  9.5484432897377969e-01  6.3042707352988359e-01  -3.3700490272411748e-04  1.6612980302259509e-01  3.2784401918693373e-01  4.8289317027287121e-01  6.7221918656204405e-01  7.2442249049833352e-01  7.8880189737448714e-01  8.6605314780583387e-01  8.1428841384284734e-01  7.9363277166600299e-01  8.1438097908244855e-01  8.6605316785506314e-01  5.1993311008362486e-01  4.0436525518620817e-04  1.8174974561290852e-01  3.5638627089501512e-01  5.6828098808654037e-01  6.3234098009741946e-01  7.1458635175167295e-01  6.6252925492302450e-01  6.6253141861740616e-01  7.1457914109294585e-01  7.8880217061785751e-01  3.9671429376950490e-01  1.3288940356654075e-04  2.0673005825521837e-01  4.5664690349806097e-01  5.4514088032045871e-01  4.9962415039188840e-01  5.4514035030272723e-01  6.3232638057947688e-01  7.2441737172153620e-01  2.4986892623449039e-01  4.4585976083430756e-04  3.4281961563062230e-01  6.7235827235862711e-01  3.4267216717934673e-01  4.5655929985486815e-01  5.6830940013268239e-01  6.3015660849952559e-01  1.8433827790253028e-03  5.1981854149449513e-01  2.4940015114204997e-01  3.9625735306808002e-01  4.8282576100584457e-01  4.4348490072689277e-04  3.5691541764572804e-01  2.0654036812307794e-01  3.2767452732545499e-01  1.3464063377430273e-04  1.8166174060420079e-01  1.6612288574166745e-01  2.9534281480625787e-04  -3.3974316391428513e-04  3.2735503752644129e-01  2.2438379273635767e-01  1.1466286276831573e-01  3.5776750641184413e-01  3.9773179760178440e-01  5.1286082712979320e-01  5.1267208022901889e-01  4.1692130733017407e-01  4.1696321181925605e-01  1.2943892292465442e-01  2.8699942376831444e-01  1.5809634658039237e-01  -5.0386970930180219e-04  3.1381252324642095e-01  2.1574836024784080e-01  3.9774449119290983e-01  2.1506929083108392e-01  2.8698111602972254e-01  3.5786300835590112e-01  1.5796681261994772e-01  -5.0669932643622646e-04  3.2778949374362837e-01  1.2927605954998844e-01  1.1484407154502041e-01  7.2033120221414781e-02  2.5006436446905783e-01  3.2202067659610861e-01  3.2220791568461199e-01  2.8256054334213310e-01  2.5044694556314295e-01  9.9364526332298489e-02  -2.4489490613957148e-04  1.9853834690705480e-01  1.3564678458764021e-01  1.3542277435372188e-01  9.9505259522608400e-02  -2.4483989745394813e-04  4.6036420392457866e-01  3.7446726476697351e-01  3.0359420832619255e-01  7.2001857127670862e-02  2.8533318494759191e-01  2.7022793474696127e-01  1.0425034104087749e-01  1.9216795982816676e-01  2.5809311993161183e-01  2.4758243696616775e-01  9.7147583161038845e-02  -1.6380203354013297e-04  1.7311338225662917e-01  9.1338536292101688e-02  8.7244064525168918e-02  8.3165968345685973e-02  -1.2488571418144869e-04  8.1075454284443210e-02  1.8031814490444908e-01  2.6242125673463040e-01  2.6203954388937306e-01  1.8057765143263388e-01  8.1059024275012811e-02  9.3655349492398754e-01  9.2093569260367014e-01  8.6846054764238501e-01  8.5920629831736717e-01  9.3656051742433277e-01  8.5920026036410602e-01  8.6845066632161827e-01  8.3720319128107368e-01  7.9892832262510316e-01  7.6269050185098586e-01  7.3993014669266932e-01  7.9893004431232684e-01  7.2757767710720644e-01  7.2757703980378841e-01  8.3721895774442312e-01  7.3992763437751574e-01  7.6268597067099853e-01  9.7742634307941320e-02  1.9228561331885022e-01  2.8498536010371572e-01  5.8672369804859570e-01  6.8413088558331159e-01  6.3270034958396393e-01  6.5469427953020953e-01  6.0086266638404229e-01  5.8240642551958177e-01  6.8384807467109643e-01  5.8241230340043670e-01  6.0086780363735870e-01  6.3249015140639153e-01  1.0451930732798310e-01  5.8664799297484305e-01  6.2591977382385505e-02  -1.5658941912514136e-04  1.2502288542290332e-01  8.5410221903689437e-02  8.5255384636843290e-02  6.2657520890140386e-02  -1.5646787765465856e-04  4.5615963224674115e-02  1.5693211235213214e-01  2.0271485767909625e-01  1.7774641719339337e-01  2.0271778892817735e-01  1.7781399346287552e-01  1.5765648246046499e-01  4.5645269793999972e-02  5.0989809890116838e-02  1.1357801947562969e-01  1.6474522957815907e-01  1.6475949013255181e-01  1.1375805056152286e-01  5.1046094096222190e-02  1.1524830581648757e+00  1.1034613485610032e+00  1.0977250130026612e+00  1.0978348125005402e+00  1.0432406916842079e+00  1.0431683215317342e+00  5.7645400719244067e-01  8.3165042428853031e-02  -1.3213022037485969e-04  2.4750798554260595e-01  8.7210286199908865e-02  1.7312314360579964e-01  4.0613197753918573e-01  2.5833910653005199e-01  3.4090448406681617e-01  5.0019423100622851e-01  4.2181545313562424e-01  5.9735772398958475e-01  6.2154512414006580e-01  6.4811919234976656e-01  6.7869249069012805e-01  7.1242032655768206e-01  7.5015904306761338e-01  4.3952502234823698e-01  5.4248033131250006e-01  4.6032631205359964e-01  9.1159611214634173e-02  2.7066285036037807e-01  5.9809226426359519e-01  4.8465411893065002e-01  5.1321709507544633e-01  6.7097467692377066e-01  5.4723589544985574e-01  7.5015376834748249e-01  6.7096303838453630e-01  7.1241572706230127e-01  3.0390703023933147e-01  4.2339776567768350e-01  3.6272202959033656e-01  4.9652254667927925e-01  3.9141494938089094e-01  4.4950793733998851e-01  4.7260938061634833e-01  5.2671372199915967e-01  4.4953111508710786e-01  4.9652667019170621e-01  5.2672754531633514e-01  4.7261289637083553e-01  6.7869511446517061e-01  5.4720025607216860e-01  5.9808569241175380e-01  6.4813419647603976e-01  3.6969979792322272e-01  4.3054086380325363e-01  6.2136658693459623e-01  4.3058178633645172e-01  3.6965527223949640e-01  5.1317015064757998e-01  4.2322580999646392e-01  4.8465288076188950e-01  3.9404826068082897e-02  -9.3743335675507098e-05  7.8692375024242839e-02  5.3722916605516889e-02  5.3614658474713452e-02  3.9429728116266390e-02  -9.3695832226573764e-05  2.8759711018291122e-02  9.8994788987642232e-02  1.2764213437562563e-01  1.1190891553620606e-01  1.2767467462597268e-01  1.1196803714379727e-01  9.9280294100445921e-02  2.8790562242258254e-02  3.2113992426696429e-02  7.1562530852834344e-02  1.0372385819379458e-01  1.0374120529781800e-01  7.1617491500433700e-02  3.2145125850012946e-02  -2.2380683751256548e-06  4.7193592438622353e-02  3.7477571487547312e-01  3.2167205252752279e-01  5.8970759972042008e-01  5.8965226868411469e-01  3.4007254496114836e-01  -2.3662387587297022e-07  5.4694761623245616e-02  5.0510805847326860e-02  5.2399642841794436e-02  1.6258527527712691e-01  1.5027003712689641e-01  5.0262635279094869e-01  5.0264134648993664e-01  4.5772200657916989e-01  4.5773653515564217e-01  4.1254591643252053e-01  5.7988517967953712e-01  5.4098859589962844e-01  5.4099379661796676e-01  2.8989656648741113e-01  2.3603206340142546e-01  1.7946527717216959e-01  3.2294191686754775e-01  1.9136649365937944e-01  2.6655107123162991e-01  2.0640457059016193e-01  6.1156395350571081e-02  6.5434477162910593e-02  6.5024147010513500e-01  5.9741679339759690e-01  3.9129828772008257e-01  5.4258337697259806e-01  5.7619544059310901e-01  5.5741476629474940e-01  2.4759426001623789e-02  -2.0846886082692977e-04  4.9496352793951627e-02  3.3745148002788654e-02  3.3560971881166822e-02  2.4769093553595849e-02  -2.0839506456808639e-04  5.0034736094045185e-01  4.3970037230341197e-01  4.9069072932683644e-01  2.2458216272686612e-01  3.2311687328917410e-01  2.6642278432957656e-01  3.0505358904761420e-01  2.0592665286747724e-01  2.8965297779704774e-01  1.9121385825537396e-01  1.7957757532159202e-01  4.2172208764255198e-01  4.0614298542865745e-01  -1.7529319827101337e-06  6.5424097552886612e-02  6.1291955199247711e-02  3.4102821434475483e-01  4.0795582703525823e-01  3.0659467512812288e-01  2.6548721568539330e-01  1.6226434404997050e-01  1.5587274662937489e-01  1.5025384524501045e-01  2.9364928465959855e-01  5.4833970793907484e-02  5.2351753451730917e-02  5.0380909794900605e-02  1.7023368483253631e-01  1.2112481617270873e-01  1.0921705477072016e-01  3.4434990976198121e-01  4.6574925161554115e-01  5.4674767557250625e-01  4.6577583294941233e-01  5.4675966811802423e-01  3.6659602696208859e-01  3.6665491998964650e-01  1.4100448368470495e-01  1.0190644952724115e-01  2.2517445973251873e-01  1.1294572308943979e-01  3.4441376755104636e-01  2.2507717217328393e-01  3.4163860353782594e-01  1.4092451044201448e-01  1.1287811599538478e-01  1.2118316877118838e-01  1.0200475541850533e-01  1.0905318050771055e-01  1.0062036722548230e-01  1.8106730241324243e-02  6.2329359195290729e-02  8.0348272292665918e-02  7.0443587223504744e-02  8.0365612769266875e-02  7.0469071919643064e-02  6.2485328186687679e-02  1.8120597978980132e-02  2.0213385970101451e-02  4.5023424302682802e-02  6.5267778559122941e-02  6.5275829999917531e-02  4.5044224540051192e-02  2.0225728805955509e-02  1.1034418792854244e+00  1.0998840050377838e+00  1.0028292891213926e+00  9.8928257222327509e-01  9.9518090406297932e-01  1.0471946027524253e+00  9.8229481088665838e-01  9.8227609906338997e-01  9.8135362190579301e-01  1.0408951036116758e+00  1.0408673735996150e+00  9.8925795436118658e-01  1.0028292355222570e+00  9.9526913735440836e-01  1.0471479211519814e+00  9.0909713164017036e-01  8.8564484910576813e-01  9.4505012708299785e-01  8.9655274550517794e-01  9.2986699811594575e-01  9.2194429581715798e-01  9.8495294011183665e-01  9.2193295701959599e-01  9.2985065443640491e-01  9.8486558728534002e-01  8.8564078252462630e-01  9.0909713244305967e-01  9.4504658094840377e-01  8.9671598190321367e-01  8.2587041864195199e-01  7.9192875104936922e-01  8.5114512255225994e-01  8.0849638587886807e-01  8.7624486596702345e-01  8.2490704068520015e-01  8.0533004490737925e-01  7.8794335474921129e-01  7.5003795261367356e-01  7.9474556591173184e-01  7.9474252651805455e-01  7.6038301925504259e-01  7.6038212064349486e-01  7.2592359973850173e-01  8.7625763111506483e-01  8.0532445093882077e-01  8.2490282784956348e-01  7.8793895779580969e-01  7.5016782918217306e-01  7.9192483131140468e-01  8.2566909295030855e-01  8.5114336659318701e-01  8.0849406497543108e-01  6.9162523478190052e-01  7.7672899734182399e-01  6.5104602926908484e-01  6.9826162001983472e-01  7.3193436548587454e-01  6.9220404168329508e-01  7.3231027579119090e-01  7.0175801834340934e-01  6.9483800761222003e-01  6.7220061083738669e-01  6.5667805947944347e-01  6.2284396714216217e-01  7.3236581738804307e-01  6.9483839538252778e-01  7.0175755924745475e-01  6.5667985337233570e-01  6.7220085784955674e-01  6.2284838108571727e-01  7.7671666767877057e-01  6.9825649597480366e-01  6.5117858381863924e-01  7.3192735722998570e-01  6.9219462532788190e-01  2.6549271051320716e-01  2.1472578277273652e-01  4.0816062141930370e-01  4.2721167764529128e-01  5.2174077995055113e-01  4.7546272621554631e-01  5.6542198623868678e-01  6.1574511518292396e-01  5.8977807352731371e-01  5.7226111684630276e-01  5.1994566842139278e-01  6.1585671820070609e-01  5.7226517447256742e-01  5.8977317733617629e-01  5.6540863636409999e-01  5.1993431692164427e-01  6.9161595937746811e-01  -8.7153734195705274e-06  3.4504616340908782e-02  3.7842686218480942e-01  3.1265569407095040e-01  2.8268014595044633e-01  2.9731220562425076e-01  3.3148395881787091e-01  3.9835305095738910e-01  3.5577047457586380e-01  3.8753279299982363e-01  3.7847110359395125e-01  3.1261632236893833e-01  3.3157324692305473e-01  2.9724214441615293e-01  3.9837337373702331e-01  3.8753955889471037e-01  4.2702592715593757e-01  4.0809513225095712e-01  5.2164610827495972e-01  4.7548614167824582e-01  1.5707308365340782e-02  -4.0311627839297254e-04  3.1104036464244509e-02  2.0836886936749288e-02  2.0839381028234086e-02  1.5711081670294089e-02  -4.0306443413355236e-04  -8.7646277542536944e-06  3.4493040170756502e-02  2.7669210473500361e-01  3.7640469133284987e-01  4.4843943218713717e-01  3.7092773360705272e-01  3.7100488142417143e-01  2.6869746801695049e-01  3.2830264207862475e-01  2.0373865872284549e-01  3.8163870302494129e-02  2.3239640544116202e-01  2.7065037019222943e-01  1.9626573419828172e-01  3.7641425458772415e-01  4.4843399540872769e-01  2.6872982189000255e-01  3.8151852697246108e-02  2.1659510313942670e-01  8.0036106509471217e-01  7.6916647492774015e-01  7.6916283758091286e-01  6.9127987763510723e-01  6.9128014739145771e-01  8.0035696822838009e-01  5.4256933616774283e-01  6.5773833225555167e-01  6.4328170814216579e-01  6.1845252381424076e-01  6.1845443515345233e-01  6.4328211890915465e-01  6.5773432539065191e-01  5.4256721338153890e-01  7.1117485903471600e-01  7.1116656229617392e-01  4.3949718868386961e-01  4.7972501280120788e-01  4.3954250313246451e-01  4.7975263108296656e-01  1.1397903200293042e-02  3.9163096345853098e-02  5.0526913726026280e-02  4.4259049940308902e-02  5.0534248514154702e-02  4.4269395518611518e-02  3.9256439049097661e-02  1.1403345386469739e-02  1.2790363458112389e-02  2.8168266314673417e-02  4.1047581549402426e-02  4.1050927721142619e-02  2.8176409598277274e-02  1.2795140908837167e-02  </DataArray> 
</PointData> 
</Piece>
</UnstructuredGrid>
</VTKFile>