<?xml version="1.0"?>
<VTKFile type="UnstructuredGrid"  version="0.1"  >
<UnstructuredGrid>
<Piece  NumberOfPoints="15725" NumberOfCells="31027">
<Points>
<DataArray  type="Float64"  NumberOfComponents="3"  format="ascii">-1 1 0  -0.75 1 0  -1 0.75 0  -0.5 1 0  -0.75 0.75 0  -1 0.5 0  -0.25 1 0  -0.5 0.75 0  -0.75 0.5 0  -1 0.25 0  1 1 0  1 1.110223024625157e-16 0  1 0.2500000000000001 0  1 0.5 0  1 0.75 0  0.75 1 0  0.5 1 0  0.25 1 0  0 1 0  -0.25 0.75 0  -0.5 0.5 0  -0.75 0.25 0  -1 0 0  0.75 0.75 0  0.75 0 0  0.75 0.25 0  0.75 0.5 0  0.5 0.75 0  0.25 0.75 0  0 0.75 0  -0.25 0.5 0  -0.5 0.25 0  -0.75 0 0  -1 -0.2500000000000001 0  0.5 0.5 0  0.5 0 0  0.5 0.25 0  0.25 0.5 0  0 0.5 0  -0.25 0.25 0  -0.5 0 0  -0.75 -0.2500000000000001 0  -1 -0.5 0  0.25 0.25 0  0.25 0 0  0 0.25 0  -1 -0.75 0  -0.25 0 0  -0.5 -0.25 0  -0.75 -0.5 0  -0.9999999999999999 -1 0  0 0 0  -0.75 -0.75 0  -0.25 -0.25 0  -0.5 -0.5 0  -0.7499999999999999 -1 0  0 -0.25 0  -0.5 -0.75 0  -0.25 -0.5 0  -0.4999999999999999 -0.9999999999999999 0  0 -0.5 0  -0.25 -0.75 0  -0.2499999999999999 -0.9999999999999999 0  0 -0.75 0  0 -0.9999999999999999 0  0.375 0.125 0  0.125 0.375 0  -0.125 0.375 0  -0.375 0.125 0  -0.125 0.25 0  -0.25 0.125 0  0.25 0.125 0  0.125 0.25 0  0.125 0.125 0  0.125 0 0  -0.125 0.125 0  0 0.125 0  -0.375 -0.125 0  -0.125 0 0  -0.25 -0.125 0  -0.125 -0.125 0  -0.125 -0.375 0  -0.375 -0.625 0  -0.125 -0.5 0  -0.25 -0.625 0  -0.3749999999999999 -0.875 0  -0.125 -0.625 0  0 -0.625 0  -0.2499999999999999 -0.875 0  -0.125 -0.75 0  -0.1249999999999999 -0.875 0  -0.1249999999999999 -0.9999999999999999 0  0 -0.875 0  -0.375 0.625 0  -0.625 0.375 0  -0.375 0.5 0  -0.5 0.375 0  -0.375 0.375 0  -0.25 0.375 0  -0.375 0.25 0  0.1875 0.0625 0  0.1875 0 0  0.0625 0.1875 0  -0.0625 0.1875 0  0 0.1875 0  -0.1875 0.0625 0  -0.1875 0 0  -0.1875 -0.0625 0  0 -0.125 0  0.0625 0.0625 0  0.0625 0 0  -0.0625 0.0625 0  0 0.0625 0  -0.0625 0 0  -0.0625 -0.0625 0  -0.125 -0.25 0  -0.1875 -0.1875 0  -0.0625 -0.1875 0  0.125 0.0625 0  0.0625 0.125 0  -0.0625 0.125 0  -0.125 0.0625 0  -0.125 -0.0625 0  0.875 0.375 0  0.125 0.875 0  0.625 0.625 0  0.75 0.375 0  0.625 0.125 0  0.625 0.25 0  0.625 0.5 0  0.625 0.375 0  0.375 0.625 0  0.125 0.75 0  0.25 0.625 0  0.125 0.625 0  -0.125 0.625 0  0 0.625 0  -0.125 0.5 0  -0.625 0.125 0  -0.5 0.125 0  -0.625 0 0  0.5 0.375 0  0.375 0.5 0  0.375 0.375 0  0.5 0.125 0  0.125 0.5 0  0.25 0.375 0  -0.625 -0.125 0  -0.5 -0.125 0  -0.625 -0.25 0  -0.625 -0.375 0  -0.375 -0.25 0  -0.5 -0.375 0  0 -0.0625 0  0.03125 0.03125 0  0.03125 0 0  -0.03125 0.03125 0  0 0.03125 0  -0.03125 0 0  -0.03125 -0.03125 0  -0.375 -0.375 0  0.09375 0.03125 0  0.03125 0.09375 0  -0.03125 0.09375 0  0 0.09375 0  -0.09375 0.03125 0  -0.09375 0 0  -0.09375 -0.03125 0  -0.03125 -0.09375 0  0.0625 0.03125 0  0.03125 0.0625 0  -0.03125 0.0625 0  -0.0625 0.03125 0  -0.0625 -0.03125 0  -0.0625 -0.125 0  -0.875 0.875 0  -0.625 1 0  -0.75 0.875 0  -0.875 0.75 0  -1 0.625 0  -0.625 0.875 0  -0.375 1 0  -0.5 0.875 0  -0.875 0.625 0  -0.625 0.75 0  -0.75 0.625 0  -0.875 0.5 0  -1 0.375 0  -0.375 0.875 0  -0.125 1 0  -0.25 0.875 0  -0.625 0.625 0  -0.375 0.75 0  -0.5 0.625 0  -0.875 0.375 0  -0.625 0.5 0  -0.75 0.375 0  -0.875 0.25 0  -1 0.125 0  0.875 0.1250000000000001 0  0.875 0.2500000000000001 0  -0.125 0.875 0  -0.875 0.125 0  -0.75 0.125 0  -0.875 0 0  -1 -0.125 0  0.75 0.125 0  -0.875 -0.125 0  -0.75 -0.125 0  -0.875 -0.2500000000000001 0  0 0.375 0  -0.0625 0.4375 0  -0.375 0 0  -0.4375 0.0625 0  -0.875 -0.375 0  -0.0625 0.3125 0  -0.875 -0.625 0  -0.3125 0.0625 0  -0.75 -0.625 0  -0.625 -0.5 0  0 -0.03125 0  0.015625 0.015625 0  0.015625 0 0  -0.015625 0.015625 0  0 0.015625 0  -0.015625 0 0  -0.015625 -0.015625 0  -0.625 -0.625 0  0.046875 0.015625 0  0.015625 0.046875 0  -0.015625 0.046875 0  0 0.046875 0  -0.046875 0.015625 0  -0.046875 0 0  -0.046875 -0.015625 0  -0.015625 -0.046875 0  0.03125 0.015625 0  0.015625 0.03125 0  -0.015625 0.03125 0  -0.03125 0.015625 0  -0.03125 -0.015625 0  -0.03125 -0.0625 0  1 0.875 0  0.875 0.875 0  1 0.625 0  0.875 0.5 0  0.875 0.75 0  0.875 0.625 0  0.625 1 0  0.75 0.875 0  0.625 0.875 0  0.5 0.875 0  0.375 0.875 0  -0.125 0.75 0  -0.25 0.625 0  -0.1875 0.6875 0  0.75 0.625 0  0.625 0.75 0  0.6875 0.6875 0  0.375 0.75 0  0.5 0.625 0  0.5625 0.6875 0  0.4375 0.6875 0  0.3125 0.6875 0  -0.1875 0.5625 0  0.375 0 0  0.4375 0.0625 0  0.375 0.25 0  0.4375 0.1875 0  0.5625 0.1875 0  0.4375 0.3125 0  0.5 0.1875 0  -0.1875 0.3125 0  -0.3125 0.1875 0  -0.1875 0.25 0  -0.25 0.1875 0  -0.1875 0.1875 0  0.3125 0.1875 0  0.1875 0.3125 0  0.25 0.1875 0  0.1875 0.25 0  0.1875 0.1875 0  0.3125 0.3125 0  0.3125 0.0625 0  0.25 0.0625 0  0.0625 0.3125 0  -0.4375 -0.3125 0  -0.875 -0.875 0  -0.8749999999999999 -1 0  0 -0.015625 0  0.0078125 0.0078125 0  0.0078125 0 0  -0.0078125 0.0078125 0  0 0.0078125 0  -0.0078125 0 0  -0.0078125 -0.0078125 0  -0.75 -0.875 0  -0.625 -0.75 0  -0.25 -0.375 0  -0.3125 -0.1875 0  -0.1875 -0.3125 0  -0.3125 -0.25 0  -0.3125 -0.3125 0  -0.5 -0.625 0  -0.375 -0.5 0  -0.4375 -0.5625 0  -0.4375 -0.4375 0  -0.625 -0.875 0  -0.6249999999999999 -1 0  0 -0.375 0  -0.0625 -0.3125 0  -0.0625 -0.25 0  -0.4999999999999999 -0.875 0  -0.375 -0.75 0  -0.4375 -0.8125 0  -0.1875 -0.4375 0  -0.3125 -0.5625 0  -0.1875 -0.5 0  -0.1875 -0.5625 0  -0.3125 -0.4375 0  -0.3749999999999999 -0.9999999999999999 0  -0.4374999999999999 -0.9375 0  -0.0625 -0.4375 0  0.3125 0.125 0  0.4375 0.125 0  0.125 0.3125 0  -0.125 0.1875 0  -0.1875 0.125 0  0.1875 0.125 0  0.125 0.1875 0  -0.125 -0.4375 0  -0.125 -0.3125 0  -0.375 -0.3125 0  0 -0.046875 0  0.0234375 0.0078125 0  0.0078125 0.0234375 0  -0.0078125 0.0234375 0  0 0.0234375 0  -0.0234375 0.0078125 0  -0.0234375 0 0  -0.0234375 -0.0078125 0  -0.0078125 -0.0234375 0  -0.0078125 -0.0390625 0  0.015625 0.0078125 0  0.0078125 0.015625 0  -0.0078125 0.015625 0  -0.015625 0.0078125 0  -0.015625 -0.0078125 0  -0.015625 -0.03125 0  -0.6875 0.4375 0  1 0.1250000000000001 0  0.875 5.551115123125783e-17 0  0.9375 0.06250000000000008 0  0.9375 0.1875000000000001 0  0.375 1 0  0.125 1 0  0.25 0.875 0  0.1875 0.9375 0  0.3125 0.9375 0  0 0.875 0  0.0625 0.9375 0  -0.0625 0.9375 0  -0.4375 0.4375 0  -0.625 0.25 0  -0.6875 0.3125 0  -0.6875 0.1875 0  -0.8125 0.3125 0  -0.75 0.3125 0  0.625 0 0  0.6875 0.0625 0  0.8125 0.06250000000000003 0  0.75 0.0625 0  0.6875 0.1875 0  0.1875 0.8125 0  0.3125 0.8125 0  0.0625 0.8125 0  -0.0625 0.8125 0  -0.1875 0.4375 0  -0.3125 0.5625 0  -0.3125 0.5 0  -0.3125 0.4375 0  -0.25 0.4375 0  -0.1875 0.5 0  -0.4375 0.1875 0  -0.5625 0.3125 0  -0.5 0.3125 0  -0.4375 0.3125 0  -0.4375 0.25 0  -0.5625 0.1875 0  -0.5 0.1875 0  -1 -0.375 0  0.5625 0.0625 0  0.5 0.0625 0  0.1875 0.4375 0  0.1875 0.5625 0  0.3125 0.4375 0  0.1875 0.5 0  0.25 0.4375 0  0.0625 0.4375 0  0.0625 0.5625 0  0.0625 0.5 0  0 0.4375 0  -0.3125 0.3125 0  -0.25 0.3125 0  -0.3125 0.25 0  -0.4375 -0.0625 0  -0.5625 0.0625 0  -0.5625 -0.06250000000000001 0  -0.5 -0.0625 0  -0.4375 0 0  -0.75 -0.375 0  -0.6875 -0.3125 0  -0.8125 -0.3125 0  -1 -0.625 0  -0.875 -0.5 0  -0.9375 -0.4375 0  -0.9375 -0.5625 0  -0.875 -0.75 0  -0.9375 -0.6875 0  -0.25 0.0625 0  -0.3125 -0.0625 0  -0.25 -0.0625 0  -0.21875 -0.03125 0  -0.3125 0 0  -0.28125 0.03125 0  -0.4375 -0.1875 0  -0.5625 -0.1875 0  -0.5 -0.1875 0  -0.6875 -0.4375 0  -0.8125 -0.4375 0  -0.8125 -0.5625 0  0 -0.0078125 0  0.00390625 0.00390625 0  0.00390625 0 0  -0.00390625 0.00390625 0  0 0.00390625 0  -0.00390625 0 0  -0.00390625 -0.00390625 0  -0.8125 -0.6875 0  -0.25 -0.1875 0  -0.1875 -0.25 0  -0.21875 -0.21875 0  0 -0.1875 0  -0.03125 -0.21875 0  0.125 0.4375 0  0.1875 0.375 0  0.0625 0.375 0  -0.1875 0.375 0  -0.125 0.4375 0  -0.375 0.1875 0  -0.4375 0.125 0  -0.3125 -0.125 0  -0.4375 -0.125 0  -0.375 -0.1875 0  -0.375 -0.0625 0  -0.34375 -0.15625 0  -0.1875 -0.125 0  -0.21875 -0.09375 0  -0.21875 -0.15625 0  -0.28125 -0.15625 0  -0.15625 -0.09375 0  -0.15625 -0.15625 0  -0.09375 -0.15625 0  -0.6875 0.375 0  -0.375 0.4375 0  -0.4375 0.375 0  -0.3125 0.375 0  -0.375 0.3125 0  -0.03125 -0.15625 0  -0.15625 -0.21875 0  -0.09375 -0.21875 0  -0.125 -0.1875 0  0.5625 0.125 0  0.6875 0.125 0  0.125 0.5625 0  -0.5625 0.125 0  0.3125 0.375 0  -0.5625 -0.125 0  -0.34375 0.03125 0  -0.375 0.0625 0  0 -0.0234375 0  0.01171875 0.00390625 0  0.01171875 0 0  0.00390625 0.01171875 0  -0.00390625 0.01171875 0  0 0.01171875 0  -0.01171875 0.00390625 0  -0.01171875 0 0  -0.01171875 -0.00390625 0  -0.00390625 -0.01171875 0  -0.00390625 -0.01953125 0  0.0078125 0.00390625 0  0.00390625 0.0078125 0  -0.00390625 0.0078125 0  -0.0078125 0.00390625 0  -0.0078125 -0.00390625 0  -0.0078125 -0.015625 0  -0.875 1 0  -1 0.875 0  -0.9375 0.9375 0  -0.8125 0.9375 0  -0.9375 0.8125 0  -0.4375 0.6875 0  -0.4375 0.8125 0  -0.5625 0.6875 0  -0.4375 0.75 0  -0.5 0.6875 0  -0.6875 0.5625 0  1 0.3750000000000001 0  0.9375 0.3125000000000001 0  0.9375 0.2500000000000001 0  0.9375 0.4375 0  -0.3125 0.6875 0  -0.25 0.6875 0  -0.4375 0.5625 0  -0.5625 0.4375 0  -0.4375 0.5 0  -0.5 0.4375 0  -0.5625 0.5625 0  -0.5 0.5625 0  -0.5625 0.5 0  -0.8125 0.1875 0  0.8125 0.3125 0  0.75 0.3125 0  0.6875 0.25 0  0.6875 0.3125 0  0.8125 0.4375 0  0.6875 0.5625 0  0.6875 0.5 0  0.6875 0.4375 0  0.1875 0.6875 0  0.0625 0.75 0  0.0625 0.6875 0  -0.0625 0.6875 0  0 0.6875 0  -0.6875 0.0625 0  -0.6875 0 0  -0.6875 -0.06250000000000001 0  -0.8125 0.0625 0  -0.75 0.0625 0  -0.8125 -0.06250000000000001 0  -0.75 -0.06250000000000001 0  0.5625 0.5625 0  0.5625 0.5 0  0.5625 0.4375 0  0.4375 0.5625 0  0.5 0.4375 0  0.4375 0.5 0  0.4375 0.4375 0  0.5 0.5625 0  0.5625 0.25 0  0.5625 0.3125 0  0.5 0.3125 0  0.3125 0.5625 0  0.25 0.5625 0  0.3125 0.5 0  -0.0625 0.5625 0  0 0.5625 0  -0.0625 0.5 0  -0.6875 -0.1875000000000001 0  -0.8125 -0.1875000000000001 0  -0.75 -0.1875000000000001 0  0.3125 0.25 0  0.28125 0.21875 0  0.3125 0 0  0.28125 0.03125 0  -0.0625 0.25 0  0.0625 0.25 0  0.03125 0.21875 0  -0.03125 0.2187
[...]
<PointData  Scalars="u"> 
<DataArray  type="Float64"  Name="u"  format="ascii">1.2599243815270882e+00  1.1552064908316428e+00  1.1552064907823862e+00  1.0525280019542935e+00  1.0400408691168259e+00  1.0525280019321979e+00  9.5489919365965492e-01  9.2504885044650742e-01  9.2504860675490630e-01  9.5489753251021492e-01  6.2997212316474349e-01  -6.5902523001795638e-06  1.6591743300041348e-01  3.2769444328384456e-01  4.8268451955034453e-01  6.7252294857681660e-01  7.2483473478896820e-01  7.8898008511793882e-01  8.6602652376417621e-01  8.1445926576723338e-01  7.9369343647077428e-01  8.1446165213986277e-01  8.6602044879706253e-01  5.2001914877327182e-01  6.8935332958467114e-06  1.8199037439301796e-01  3.5649657933251488e-01  5.6856155036781619e-01  6.3247677756890452e-01  7.1487814836843422e-01  6.6302887348059780e-01  6.6302890093137890e-01  7.1488273405167713e-01  7.8898016251516900e-01  3.9685373324976048e-01  2.5522770923666708e-06  2.0642639543858823e-01  4.5661266658375943e-01  5.4553582244836352e-01  4.9997950611971653e-01  5.4553358401743157e-01  6.3247584222070596e-01  7.2483478013902258e-01  2.4998038365515726e-01  5.7216908679806708e-06  3.4364596755058591e-01  6.7252792569118902e-01  3.4365109275260292e-01  4.5661187444243928e-01  5.6855487105598423e-01  6.2996211781226374e-01  1.8342999805478206e-05  5.2001652406156407e-01  2.4998886710215598e-01  3.9684353382113169e-01  4.8268422236899650e-01  6.5407628360364796e-06  3.5649689504094656e-01  2.0642574635580399e-01  3.2769166836878111e-01  1.1180975018289562e-05  1.8198750905280292e-01  1.6591768599206752e-01  6.8141849117107207e-06  -6.7268977235865079e-06  1.1465123795690585e-01  3.9842181982956176e-01  5.1305752501225155e-01  5.1306236722762333e-01  4.1767710981784040e-01  4.1767744294180031e-01  1.3003469736754744e-01  2.8761748873434567e-01  1.5747803592813409e-01  -3.0516771774469192e-06  3.1493790583451037e-01  2.1648345744081157e-01  3.9841980261919524e-01  2.1646011188811590e-01  2.8762503128459199e-01  1.5748273246545211e-01  1.1462634128479909e-01  2.8551849976527388e-01  1.0450528774064952e-01  1.9274824005086524e-01  2.5805294324199557e-01  9.7184691943443077e-02  -8.1361760850646977e-06  1.7322663056022072e-01  9.1529747667813549e-02  8.7000616500067934e-02  8.3234639068393221e-02  -6.6350288923959906e-06  7.9910892344224227e-01  7.9911208528437616e-01  7.2772783775013250e-01  7.2772904370491309e-01  6.5515970093214482e-01  5.8273162745326934e-01  5.8273386064410471e-01  7.2214795076119831e-02  1.2019838641568020e-05  2.5096297881106761e-01  3.2319732646005506e-01  2.8368067228132132e-01  3.2319724615656881e-01  2.8364315097737364e-01  2.5095571041118314e-01  1.7168752093262246e-06  9.9209148875593386e-02  -1.5198318083355773e-05  1.9838797699763658e-01  1.3634560981033522e-01  1.3633828243116056e-01  9.9169264327028911e-02  1.3004234948942137e-01  2.0636923796916504e-01  7.2216499536133433e-02  8.1889287523340043e-02  1.8117553670292014e-01  2.6309751250197294e-01  2.6309839394266804e-01  1.8117024874318791e-01  2.5805817650884877e-01  7.5054159582770763e-01  4.6050916657605612e-01  2.7049758090433801e-01  9.7182079936953547e-02  1.9274390467486177e-01  3.7482512726002454e-01  2.8551895075100109e-01  5.1359617343312713e-01  6.7129999854895495e-01  5.4750351318626034e-01  5.8724967726517319e-01  6.8443467817802417e-01  6.3306012714470272e-01  6.0152098554706268e-01  6.8442998963453860e-01  6.0152043579633419e-01  6.3305450524781448e-01  3.0406285726019638e-01  4.2365108566542187e-01  3.2758261174728398e-01  1.0451499428193811e-01  4.9701319400532146e-01  3.5816369932237396e-01  5.8724893584305426e-01  4.9701216058714920e-01  5.4749739186470270e-01  5.1359424875625326e-01  3.5816043394617547e-01  4.2365435298002546e-01  -8.3644607387370862e-06  6.2479748470390332e-02  -4.1530542482073203e-05  1.2495946450327475e-01  8.5858142342637084e-02  8.5837164502412175e-02  6.2454219569444684e-02  3.2759178938615752e-01  4.5486309674815019e-02  1.5807161009489845e-01  2.0355995296278265e-01  1.7867454616746509e-01  2.0356035521937646e-01  1.7866051623821924e-01  1.5808016860137400e-01  4.5490452188490661e-02  5.1612210072290617e-02  1.1410051458334149e-01  1.6571658234134520e-01  1.6571669825823857e-01  1.1409865800259816e-01  8.1906542219699299e-02  1.1526055977771885e+00  1.1034547208311638e+00  1.0977685330665361e+00  1.0977685077763240e+00  1.1034547208656305e+00  1.0432227914505692e+00  1.0028615810160741e+00  9.8938679588651712e-01  1.0432234274714292e+00  9.8232526980051860e-01  9.8232506845395240e-01  9.8938666413287990e-01  1.0028615828525294e+00  9.3674059214201588e-01  9.0913812967614882e-01  8.8591752807675916e-01  9.2099670134718159e-01  8.6883861607049651e-01  8.5970431419508142e-01  9.3674070166272905e-01  8.5970346818696575e-01  8.6883753336882907e-01  8.8591042930672115e-01  9.0913788760007808e-01  8.7000171118890399e-02  1.7322849371787125e-01  8.3753071200381901e-01  8.3754526990636236e-01  7.6282739803180699e-01  7.9225055052540438e-01  8.2589816852040132e-01  9.1527371759152709e-02  7.5054711721824519e-01  6.7129922817486098e-01  7.1268380777487961e-01  4.5032992012210865e-01  5.2760485023985493e-01  4.5032959280199564e-01  5.2760159284911123e-01  6.7868964940446441e-01  4.3114422191402396e-01  6.2147967328904130e-01  4.3114380183253703e-01  5.4263322333786179e-01  4.8488092574916092e-01  -2.6688132429328746e-05  3.9358084153711649e-02  -2.5124591695957234e-05  7.8691148792937690e-02  5.4070226523177473e-02  5.4020706895141400e-02  3.9324159851572449e-02  4.6049514248065559e-01  2.8643039458771839e-02  9.9556187440159621e-02  1.2820482509705133e-01  1.1254804460628426e-01  1.2820502704608000e-01  1.1253690360249624e-01  9.9569355539492491e-02  2.8666356792416622e-02  3.2493982032961194e-02  7.1844278220130758e-02  1.0433898126964876e-01  1.0433938047737480e-01  7.1846551857933899e-02  5.1591553204342146e-02  5.5729456415144696e-01  5.7630793323731100e-01  4.0612399042355235e-01  3.4098290981074125e-01  5.0018532537496996e-01  4.2173707352060019e-01  6.9731896767522916e-01  5.9757846612300891e-01  6.2148905069011151e-01  6.4839074904363481e-01  6.7869897123563117e-01  7.6282644611769468e-01  7.4024027140497395e-01  7.5049583818984289e-01  4.3967836392866677e-01  5.4263642430443682e-01  4.9071150927902935e-01  5.9834009093361784e-01  4.8488823807701753e-01  5.1414017093384146e-01  5.4133907755946353e-01  5.7297107750794973e-01  6.7231870768624025e-01  3.8638013032539501e-06  5.4793621506446240e-02  2.2456906609110888e-01  1.6255315284929556e-01  1.5022598937575499e-01  2.6567042072413993e-01  1.5593805835317970e-01  5.0337152268830077e-01  5.0336247563749847e-01  4.5840048766859642e-01  4.5842220324163657e-01  4.1272161296670473e-01  1.7984972542575139e-01  3.2353547587209081e-01  1.9155952445597235e-01  2.6687256912832119e-01  2.0636043125357573e-01  2.9008560777505560e-01  6.1222081351801697e-02  6.5832987013457342e-02  3.6993421589046649e-01  3.9150305363203591e-01  5.7629374488148433e-01  5.5729352898140705e-01  -9.7388591597017391e-07  2.4816113590435701e-02  -5.3830679544366122e-05  4.9598457023221527e-02  3.4037454581436269e-02  3.3998602786202391e-02  2.4775761847842082e-02  5.0018572373018033e-01  4.3968212038445897e-01  2.2456173757623882e-01  3.2353903319729876e-01  1.7984658921375440e-01  3.0544864673195693e-01  2.9008310173190766e-01  3.7481767850572695e-01  3.0406599503280834e-01  3.4031428697140048e-01  3.6304527137837805e-01  4.2174028326621432e-01  4.0613070008068619e-01  2.1991513468540913e-08  6.1222899475316131e-02  6.5836561049226819e-02  3.4098392261965454e-01  2.7050558224539500e-01  3.0650986987720613e-01  1.6254914604636420e-01  2.4719928312154907e-01  1.5593243662108935e-01  1.5023558229871811e-01  2.6566947832524868e-01  2.4752918425089085e-01  2.9357364198576230e-01  5.4808741381522932e-02  1.2140505390120497e-01  1.0913843790958722e-01  3.4489675501226658e-01  3.6707595121566738e-01  3.6707458290631295e-01  1.4145410191643734e-01  2.2561015786487143e-01  1.0911099401624103e-01  1.2142703027428600e-01  3.4182758102111438e-01  1.4705621104438930e-05  1.7992129037952921e-02  6.2672751126014614e-02  8.0692043181769729e-02  7.0851738188950325e-02  8.0693236392017392e-02  7.0825350753675159e-02  6.2697200504448075e-02  1.8060763134706708e-02  1.5263191768498344e-02  2.0439103248275980e-02  4.5200841137612954e-02  6.5608942830176167e-02  6.5609751921796924e-02  4.5204693241786373e-02  3.2508069807618938e-02  8.6318401285302515e-01  8.3245109891434535e-02  6.6982525635273821e-06  4.2554851345680968e-02  1.2735471204037016e-01  7.5531761953018406e-01  8.2590081013265493e-01  7.1267003658402661e-01  7.6952796758262532e-01  7.3392085803851748e-01  7.9224653116487942e-01  8.0867741062894538e-01  8.5123351975960770e-01  7.2608955491411986e-01  7.4025390536251479e-01  8.0566690319199141e-01  7.5049344341767399e-01  8.7649120429785532e-01  8.4135500114171535e-01  -8.5274743301746616e-10  4.7176311644536680e-02  4.4637270897603956e-02  4.5830820752938720e-02  1.4087257567689088e-01  6.9174815207954166e-01  6.5553976123251134e-01  7.3223054091545781e-01  7.7687570317099264e-01  5.9010320613412437e-01  7.3254027793996879e-01  6.9512202200506912e-01  6.5716555970819346e-01  6.2326432038229274e-01  6.3173406687212330e-01  5.9009944226609734e-01  7.3253553911328195e-01  6.9512370019081704e-01  6.5716624781843058e-01  6.2326283432471075e-01  6.7231100035929192e-01  6.3173227733101645e-01  7.5531709579584527e-01  5.0426311485675383e-02  5.2430730330576894e-02  4.2753094327591695e-01  5.2208847634980382e-01  3.9149512818082588e-01  4.7580882250209944e-01  4.0845630863250498e-01  4.7280014195114306e-01  5.6570551349567344e-01  5.2026876838704383e-01  4.9908081918830099e-01  5.8018666231004556e-01  5.4154698725698869e-01  5.4154092155756040e-01  4.7279208887744967e-01  6.1613062814889519e-01  5.6570445224599730e-01  5.2026733287550575e-01  4.9907345312209334e-01  5.9832131797644261e-01  5.7297441621349332e-01  6.5553302680513270e-01  6.9732284379994536e-01  6.4838961342263690e-01  7.0181581969286344e-01  6.7300393533901715e-01  5.9757516322448312e-01  6.4722869590816967e-01  3.7892630903768026e-01  3.6993028911515979e-01  3.1308871377326375e-01  2.9782804220422088e-01  3.9879508168593075e-01  3.8813350040953337e-01  4.2753039312347851e-01  5.2208679087415977e-01  4.7581666530344763e-01  5.4134559994471665e-01  6.2349254120535380e-01  5.9527425443672077e-01  5.6368250161538238e-06  1.5606039614911041e-02  -2.2726459563606343e-05  3.1197430233227730e-02  2.1371297118047267e-02  2.1327025037485257e-02  1.5440702691048530e-02  5.7043188751496143e-01  2.6687405831452421e-01  1.9155321601265513e-01  2.2869796605362691e-01  1.0224641851608710e-05  3.4522124693892896e-02  4.4895395037846514e-01  3.7691155992234482e-01  4.2286914363747491e-01  5.4729520654167596e-01  5.5807361502040331e-01  5.4729980455371185e-01  5.5806590419098701e-01  3.4489693527365151e-01  4.4894972769111546e-01  3.7691065391947831e-01  4.2286732810571243e-01  3.6094331632482768e-01  2.2561261891125786e-01  2.6933251009310100e-01  2.4662596959906810e-01  3.0574137449870753e-01  2.0379507784965975e-01  1.8273118124581517e-01  1.1329880017360679e-01  8.3419722394768492e-01  6.9154060952988194e-01  6.9154087807339926e-01  6.1881728879173903e-01  6.1881031539588427e-01  3.8567669722651014e-02  1.6736729564053968e-01  1.0241003417682554e-01  1.4145440542812929e-01  1.0058811857927857e-01  9.4191985425334301e-02  5.4302206987693391e-01  6.4361064846813487e-01  3.4182318280138829e-01  5.4302127099556274e-01  4.4019042293075056e-01  4.8052564665407199e-01  4.8059131009227855e-05  1.1352592349937811e-02  2.7335957144899354e-05  3.9459408647582177e-02  5.0813439752438433e-02  4.4629267695820415e-02  5.0814340793268742e-02  4.4597297101461479e-02  3.9498346576098693e-02  1.1363192237030745e-02  9.6113678663377437e-03  1.2842328051396359e-02  2.8456329179502349e-02  4.1333388638842380e-02  4.1333905877616185e-02  2.8456329387849123e-02  2.0459646186825980e-02  1.2074566614310729e+00  1.2074566614299320e+00  1.2068590383052005e+00  1.1532583705633459e+00  1.1532583642139107e+00  8.6318268828893951e-01  9.3000290339366110e-01  9.2202440210666337e-01  8.9677033289623220e-01  8.9249150844982361e-01  9.2202409023265497e-01  2.4753224530414397e-01  2.1119095806156366e-01  1.6941613621804993e-01  2.9357169794786259e-01  8.0566184360549109e-01  7.7771437339301763e-01  7.9505655270390707e-01  7.9505725224989032e-01  7.6063203227139908e-01  7.6063243302915173e-01  8.5852999875169267e-01  8.2673837538403760e-01  8.2673832312622408e-01  8.2518877770390142e-01  2.2095001120698196e-01  2.2653634485133456e-01  1.8707997265994111e-01  2.3269320708322519e-01  3.0650526995934158e-01  4.0787740985638177e-01  3.6525182050361982e-01  3.2184055692508451e-01  6.0962765027064736e-01  6.9251228704397105e-01  6.5161543119408794e-01  6.9879858647675308e-01  6.7458726046555351e-01  6.9879491135688510e-01  6.7458273560644599e-01  6.5162124428991230e-01  7.7687216519263291e-01  7.3834677726273823e-01  7.3223997293044352e-01  6.9251089098612850e-01  4.2926671159133228e-01  3.8531592266191683e-01  3.4030988616812813e-01  4.5474555657995591e-01  3.5107119983725410e-01  4.0956891492095698e-01  3.6304723897069313e-01  4.4143634175800395e-01  1.9914761154734081e-01  2.4720087989550169e-01  2.5582901321909685e-01  4.8533576590862354e-01  5.0288680181088474e-01  4.3927144424495257e-01  6.1613255133858613e-01  5.9011763475982548e-01  5.7270487634668810e-01  6.0962124588489364e-01  6.9174397183465819e-01  6.5127716137532432e-01  2.3612184877850845e-01  2.1437393693464177e-01  -4.9092718884876744e-06  3.1772776302467255e-02  3.7893376219689073e-01  3.1309712377667592e-01  2.9783486013741933e-01  3.3234476164937971e-01  3.1437373865445578e-01  3.9877942421035151e-01  3.8813126010648596e-01  3.5634728522860271e-01  3.3234117834966620e-01  4.8533947235660829e-01  4.3927410495582520e-01  5.1414009714750697e-01  3.3250730084127118e-06  9.8585651092501538e-03  -1.4097332967494828e-05  1.9680510767851989e-02  1.3457906327756348e-02  1.3431634270529895e-02  9.7660899847485834e-03  2.3611821854685958e-01  2.1437337773161907e-01  4.5474530669785884e-01  4.0956763464006729e-01  4.4143864652605946e-01  4.2927050050820603e-01  3.2182861436761967e-01  5.2422538927732985e-02  5.0434172718396529e-02  -9.5545867080348525e-06  2.3268265183714698e-01  1.8708120007754686e-01  2.2095164572206180e-01  1.4086959084601597e-01  1.3696273020398644e-01  1.3344641584448352e-01  2.2653955581807400e-01  4.7172825315639641e-02  8.6863290815305273e-06  4.5839780045195531e-02  4.4630427149197814e-02  4.6631921885556188e-01  3.7172159726738035e-01  4.2351581369296404e-01  4.1397534645923578e-01  3.9261098006387407e-01  2.6932114545868857e-01  3.2887369640866754e-01  1.1328842867722146e-01  2.0381556098344658e-01  1.2998676676993179e-01  1.2066227588007608e-01  1.6811799271166125e-01  3.8568998078825349e-02  4.1482804225954274e-02  3.1709177992448101e-01  3.1709158251534209e-01  2.5998001399070103e-01  2.8877101300789892e-01  2.8877050464689746e-01  2.3301242588133766e-01  2.7158303150524721e-01  2.5120513411158651e-01  1.9720284859137474e-01  2.3866232143352981e-01  2.7158042034232233e-01  2.5119188281994687e-01  2.3303066169983666e-01  2.3866239984734086e-01  1.2998510532178043e-01  1.6810012573517280e-01  1.2065068423685177e-01  2.3954176872313598e-01  2.7763238123340278e-01  1.0057849595608477e-01  1.4525098719368285e-01  4.8691698212368288e-02  9.4180875769835914e-02  8.9157918168693381e-02  7.6361574717589620e-01  8.3419514480821977e-01  8.2925717061089377e-01  7.6939588850887919e-01  7.6361410200712310e-01  7.6488880319532146e-02  2.6635430063950044e-01  2.1727095168760316e-01  3.0270383068806572e-01  2.9375072646909656e-01  3.4476249715057089e-01  3.0268848178070301e-01  2.9374997314766987e-01  8.9084042114793330e-02  1.4211907818264616e-01  2.3120667626733538e-01  2.3120687081560171e-01  1.4211319237494952e-01  8.9099567803800739e-02  2.6399133678580522e-01  2.1585608809683304e-01  4.7219137575884329e-01  2.7763241677652140e-01  2.3954085925684038e-01  3.3061330099876890e-01  2.9426513672545634e-01  5.2984935896343510e-01  4.6933608441109420e-01  6.2995458935519943e-01  6.0940647515609414e-01  6.5810164067956123e-01  6.4360845928050314e-01  6.5810862845626983e-01  7.2414030274147301e-01  6.0940330586741898e-01  3.1508136958451760e-01  3.7644538019739010e-01  6.2995068402837529e-01  4.6933520260458800e-01  8.9031468133996217e-01  8.9031442385550985e-01  8.0061314884453971e-01  7.1145102238545643e-01  4.8937731794619260e-01  4.4020801768665774e-01  4.1047892782665635e-01  4.8051941863603909e-01  4.7219357169010656e-01  2.9734003032545010e-02  5.7650567579481816e-02  2.0274136413205690e-01  1.7040418580098871e-01  2.8376814954021798e-05  7.1343109506724327e-03  1.8902058807475324e-05  2.4795899282402060e-02  3.1912707044972261e-02  2.8031800691937621e-02  3.1913537329089844e-02  2.8032965153843369e-02  2.4842742629928510e-02  2.0273695932631094e-01  1.7039228525009917e-01  7.1255593872021003e-03  5.9880266160435708e-03  8.0218747998432698e-03  1.7889199678386668e-02  2.5918507569137963e-02  2.5919389204893822e-02  1.7891497077841073e-02  1.2877562027528013e-02  1.1292466337849987e+00  1.1265395758258361e+00  1.0999158971959773e+00  1.1265395596874939e+00  1.1292466337265639e+00  1.0999165011455665e+00  1.0778653386465378e+00  1.0471452147641021e+00  1.0275076810711052e+00  1.0211129774590491e+00  9.9538288470881353e-01  1.0970480943666818e+00  1.0689192929916107e+00  1.0689192777002934e+00  1.0408365893619169e+00  1.0408365479095207e+00  1.0111520531745037e+00  1.0111520435855352e+00  9.8142559132204232e-01  1.0778653386822505e+00  1.0471451644900005e+00  1.0211129164411770e+00  1.0275076811414807e+00  9.9538627220654186e-01  9.7863830106644623e-01  9.4510103192024908e-01  9.3170904650869957e-01  9.2070550437252296e-01  8.9686950905770157e-01  9.8500007643920795e-01  9.5735648126381978e-01  9.5360067357261191e-01  9.8500088973980415e-01  9.5360044023940893e-01  9.5735628040600995e-01  9.3000256386841973e-01  8.9677006058792552e-01  9.7863552882306648e-01  9.4510155681299901e-01  9.2069923930773012e-01  9.3170906696614386e-01  8.9687467014616040e-01  6.5016292231787953e-01  5.9386566953184328e-01  6.0343641971217965e-01  3.3409452166796078e-01  3.7414662731668336e-01  5.2911887990081752e-01  4.9117028264803692e-01  4.5268533581956633e-01  6.2413958736737107e-01  6.3536464698720396e-01  6.4723178802782211e-01  6.7301008924644790e-01  6.8700915533710960e-01  7.0182301703489691e-01  8.7648975317635669e-01  8.5050844813697524e-01  8.4135718427555461e-01  8.2518145797187126e-01  7.8823601941998600e-01  8.8722683987491624e-01  8.5124052181015264e-01  8.2954461979356209e-01  8.4556480926812827e-01  8.0868490447095132e-01  5.4852511895094347e-01  5.0978621877491570e-01  4.7040435241481371e-01  5.5913817675015642e-01  5.7043215871452990e-01  4.8020790046316558e-01  5.3095011097096301e-01  1.3344458251316244e-01  1.7739907892174522e-01  1.3695110653376158e-01  3.4842725719319451e-01  3.8972329359012359e-01  3.9844659181928183e-01  5.9528076247861195e-01  6.0892747010834036e-01  6.2349372550263582e-01  5.5513915844894945e-01  5.8293341480218541e-01  7.6950975852905867e-01  7.5128045860693782e-01  7.3392800909564360e-01  2.1479098982138412e-01  2.3568449890629042e-01  4.5736792990791686e-01  5.7270721531179181e-01  5.9012029606951721e-01  5.3622795351963071e-01  5.8112577575070512e-01  3.0544064656137165e-01  2.8645659209841545e-01  2.7041291375133114e-01  3.4515181190541720e-02  7.9274693421460233e-06  3.3024931807387234e-02  6.5015875774892784e-01  6.2414108304900762e-01  6.0342268612031047e-01  5.9386818823276910e-01  2.0603524175853170e-06  6.2141348974704821e-03  -8.8728010950136578e-06  1.2402676679052753e-02  8.4793712705678453e-03  8.4641196089246286e-03  6.1596687652736397e-03  5.3094671325686826e-01  4.9071485447065477e-01  5.4852344486178961e-01  5.09782