<?xml version="1.0"?>
<VTKFile type="UnstructuredGrid"  version="0.1"  >
<UnstructuredGrid>
<Piece  NumberOfPoints="497" NumberOfCells="919">
<Points>
<DataArray  type="Float64"  NumberOfComponents="3"  format="ascii">-1 1 0  -0.75 1 0  -1 0.75 0  -0.5 1 0  -0.75 0.75 0  -1 0.5 0  -0.25 1 0  -0.5 0.75 0  -0.75 0.5 0  -1 0.25 0  1 1 0  1 1.110223024625157e-16 0  1 0.2500000000000001 0  1 0.5 0  1 0.75 0  0.75 1 0  0.5 1 0  0.25 1 0  0 1 0  -0.25 0.75 0  -0.5 0.5 0  -0.75 0.25 0  -1 0 0  0.75 0.75 0  0.75 0 0  0.75 0.25 0  0.75 0.5 0  0.5 0.75 0  0.25 0.75 0  0 0.75 0  -0.25 0.5 0  -0.5 0.25 0  -0.75 0 0  -1 -0.2500000000000001 0  0.5 0.5 0  0.5 0 0  0.5 0.25 0  0.25 0.5 0  0 0.5 0  -0.25 0.25 0  -0.5 0 0  -0.75 -0.2500000000000001 0  -1 -0.5 0  0.25 0.25 0  0.25 0 0  0 0.25 0  -1 -0.75 0  -0.25 0 0  -0.5 -0.25 0  -0.75 -0.5 0  -0.9999999999999999 -1 0  0 0 0  -0.75 -0.75 0  -0.25 -0.25 0  -0.5 -0.5 0  -0.7499999999999999 -1 0  0 -0.25 0  -0.5 -0.75 0  -0.25 -0.5 0  -0.4999999999999999 -0.9999999999999999 0  0 -0.5 0  -0.25 -0.75 0  -0.2499999999999999 -0.9999999999999999 0  0 -0.75 0  0 -0.9999999999999999 0  0.375 0.125 0  0.125 0.375 0  -0.125 0.375 0  -0.375 0.125 0  -0.125 0.25 0  -0.25 0.125 0  0.25 0.125 0  0.125 0.25 0  0.125 0.125 0  0.125 0 0  -0.125 0.125 0  0 0.125 0  -0.375 -0.125 0  -0.125 0 0  -0.25 -0.125 0  -0.125 -0.125 0  -0.125 -0.375 0  -0.375 -0.625 0  -0.125 -0.5 0  -0.25 -0.625 0  -0.3749999999999999 -0.875 0  -0.125 -0.625 0  0 -0.625 0  -0.2499999999999999 -0.875 0  -0.125 -0.75 0  -0.1249999999999999 -0.875 0  -0.1249999999999999 -0.9999999999999999 0  0 -0.875 0  -0.375 0.625 0  -0.625 0.375 0  -0.375 0.5 0  -0.5 0.375 0  -0.375 0.375 0  -0.25 0.375 0  -0.375 0.25 0  0.1875 0.0625 0  0.1875 0 0  0.0625 0.1875 0  -0.0625 0.1875 0  0 0.1875 0  -0.1875 0.0625 0  -0.1875 0 0  -0.1875 -0.0625 0  0 -0.125 0  0.0625 0.0625 0  0.0625 0 0  -0.0625 0.0625 0  0 0.0625 0  -0.0625 0 0  -0.0625 -0.0625 0  -0.125 -0.25 0  -0.1875 -0.1875 0  -0.0625 -0.1875 0  0.125 0.0625 0  0.0625 0.125 0  -0.0625 0.125 0  -0.125 0.0625 0  -0.125 -0.0625 0  0.875 0.375 0  0.125 0.875 0  0.625 0.625 0  0.75 0.375 0  0.625 0.125 0  0.625 0.25 0  0.625 0.5 0  0.625 0.375 0  0.375 0.625 0  0.125 0.75 0  0.25 0.625 0  0.125 0.625 0  -0.125 0.625 0  0 0.625 0  -0.125 0.5 0  -0.625 0.125 0  -0.5 0.125 0  -0.625 0 0  0.5 0.375 0  0.375 0.5 0  0.375 0.375 0  0.5 0.125 0  0.125 0.5 0  0.25 0.375 0  -0.625 -0.125 0  -0.5 -0.125 0  -0.625 -0.25 0  -0.625 -0.375 0  -0.375 -0.25 0  -0.5 -0.375 0  0 -0.0625 0  0.03125 0.03125 0  0.03125 0 0  -0.03125 0.03125 0  0 0.03125 0  -0.03125 0 0  -0.03125 -0.03125 0  -0.375 -0.375 0  0.09375 0.03125 0  0.03125 0.09375 0  -0.03125 0.09375 0  0 0.09375 0  -0.09375 0.03125 0  -0.09375 0 0  -0.09375 -0.03125 0  -0.03125 -0.09375 0  0.0625 0.03125 0  0.03125 0.0625 0  -0.03125 0.0625 0  -0.0625 0.03125 0  -0.0625 -0.03125 0  -0.0625 -0.125 0  -0.875 0.875 0  -0.625 1 0  -0.75 0.875 0  -0.875 0.75 0  -1 0.625 0  -0.625 0.875 0  -0.375 1 0  -0.5 0.875 0  -0.875 0.625 0  -0.625 0.75 0  -0.75 0.625 0  -0.875 0.5 0  -1 0.375 0  -0.375 0.875 0  -0.125 1 0  -0.25 0.875 0  -0.625 0.625 0  -0.375 0.75 0  -0.5 0.625 0  -0.875 0.375 0  -0.625 0.5 0  -0.75 0.375 0  -0.875 0.25 0  -1 0.125 0  0.875 0.1250000000000001 0  0.875 0.2500000000000001 0  -0.125 0.875 0  -0.875 0.125 0  -0.75 0.125 0  -0.875 0 0  -1 -0.125 0  0.75 0.125 0  -0.875 -0.125 0  -0.75 -0.125 0  -0.875 -0.2500000000000001 0  0 0.375 0  -0.0625 0.4375 0  -0.375 0 0  -0.4375 0.0625 0  -0.875 -0.375 0  -0.0625 0.3125 0  -0.875 -0.625 0  -0.3125 0.0625 0  -0.75 -0.625 0  -0.625 -0.5 0  0 -0.03125 0  0.015625 0.015625 0  0.015625 0 0  -0.015625 0.015625 0  0 0.015625 0  -0.015625 0 0  -0.015625 -0.015625 0  -0.625 -0.625 0  0.046875 0.015625 0  0.015625 0.046875 0  -0.015625 0.046875 0  0 0.046875 0  -0.046875 0.015625 0  -0.046875 0 0  -0.046875 -0.015625 0  -0.015625 -0.046875 0  0.03125 0.015625 0  0.015625 0.03125 0  -0.015625 0.03125 0  -0.03125 0.015625 0  -0.03125 -0.015625 0  -0.03125 -0.0625 0  1 0.875 0  0.875 0.875 0  1 0.625 0  0.875 0.5 0  0.875 0.75 0  0.875 0.625 0  0.625 1 0  0.75 0.875 0  0.625 0.875 0  0.5 0.875 0  0.375 0.875 0  -0.125 0.75 0  -0.25 0.625 0  -0.1875 0.6875 0  0.75 0.625 0  0.625 0.75 0  0.6875 0.6875 0  0.375 0.75 0  0.5 0.625 0  0.5625 0.6875 0  0.4375 0.6875 0  0.3125 0.6875 0  -0.1875 0.5625 0  0.375 0 0  0.4375 0.0625 0  0.375 0.25 0  0.4375 0.1875 0  0.5625 0.1875 0  0.4375 0.3125 0  0.5 0.1875 0  -0.1875 0.3125 0  -0.3125 0.1875 0  -0.1875 0.25 0  -0.25 0.1875 0  -0.1875 0.1875 0  0.3125 0.1875 0  0.1875 0.3125 0  0.25 0.1875 0  0.1875 0.25 0  0.1875 0.1875 0  0.3125 0.3125 0  0.3125 0.0625 0  0.25 0.0625 0  0.0625 0.3125 0  -0.4375 -0.3125 0  -0.875 -0.875 0  -0.8749999999999999 -1 0  0 -0.015625 0  0.0078125 0.0078125 0  0.0078125 0 0  -0.0078125 0.0078125 0  0 0.0078125 0  -0.0078125 0 0  -0.0078125 -0.0078125 0  -0.75 -0.875 0  -0.625 -0.75 0  -0.25 -0.375 0  -0.3125 -0.1875 0  -0.1875 -0.3125 0  -0.3125 -0.25 0  -0.3125 -0.3125 0  -0.5 -0.625 0  -0.375 -0.5 0  -0.4375 -0.5625 0  -0.4375 -0.4375 0  -0.625 -0.875 0  -0.6249999999999999 -1 0  0 -0.375 0  -0.0625 -0.3125 0  -0.0625 -0.25 0  -0.4999999999999999 -0.875 0  -0.375 -0.75 0  -0.4375 -0.8125 0  -0.1875 -0.4375 0  -0.3125 -0.5625 0  -0.1875 -0.5 0  -0.1875 -0.5625 0  -0.3125 -0.4375 0  -0.3749999999999999 -0.9999999999999999 0  -0.4374999999999999 -0.9375 0  -0.0625 -0.4375 0  0.3125 0.125 0  0.4375 0.125 0  0.125 0.3125 0  -0.125 0.1875 0  -0.1875 0.125 0  0.1875 0.125 0  0.125 0.1875 0  -0.125 -0.4375 0  -0.125 -0.3125 0  -0.375 -0.3125 0  0 -0.046875 0  0.0234375 0.0078125 0  0.0078125 0.0234375 0  -0.0078125 0.0234375 0  0 0.0234375 0  -0.0234375 0.0078125 0  -0.0234375 0 0  -0.0234375 -0.0078125 0  -0.0078125 -0.0234375 0  -0.0078125 -0.0390625 0  0.015625 0.0078125 0  0.0078125 0.015625 0  -0.0078125 0.015625 0  -0.015625 0.0078125 0  -0.015625 -0.0078125 0  -0.015625 -0.03125 0  -0.6875 0.4375 0  1 0.1250000000000001 0  0.875 5.551115123125783e-17 0  0.9375 0.06250000000000008 0  0.9375 0.1875000000000001 0  0.375 1 0  0.125 1 0  0.25 0.875 0  0.1875 0.9375 0  0.3125 0.9375 0  0 0.875 0  0.0625 0.9375 0  -0.0625 0.9375 0  -0.4375 0.4375 0  -0.625 0.25 0  -0.6875 0.3125 0  -0.6875 0.1875 0  -0.8125 0.3125 0  -0.75 0.3125 0  0.625 0 0  0.6875 0.0625 0  0.8125 0.06250000000000003 0  0.75 0.0625 0  0.6875 0.1875 0  0.1875 0.8125 0  0.3125 0.8125 0  0.0625 0.8125 0  -0.0625 0.8125 0  -0.1875 0.4375 0  -0.3125 0.5625 0  -0.3125 0.5 0  -0.3125 0.4375 0  -0.25 0.4375 0  -0.1875 0.5 0  -0.4375 0.1875 0  -0.5625 0.3125 0  -0.5 0.3125 0  -0.4375 0.3125 0  -0.4375 0.25 0  -0.5625 0.1875 0  -0.5 0.1875 0  -1 -0.375 0  0.5625 0.0625 0  0.5 0.0625 0  0.1875 0.4375 0  0.1875 0.5625 0  0.3125 0.4375 0  0.1875 0.5 0  0.25 0.4375 0  0.0625 0.4375 0  0.0625 0.5625 0  0.0625 0.5 0  0 0.4375 0  -0.3125 0.3125 0  -0.25 0.3125 0  -0.3125 0.25 0  -0.4375 -0.0625 0  -0.5625 0.0625 0  -0.5625 -0.06250000000000001 0  -0.5 -0.0625 0  -0.4375 0 0  -0.75 -0.375 0  -0.6875 -0.3125 0  -0.8125 -0.3125 0  -1 -0.625 0  -0.875 -0.5 0  -0.9375 -0.4375 0  -0.9375 -0.5625 0  -0.875 -0.75 0  -0.9375 -0.6875 0  -0.25 0.0625 0  -0.3125 -0.0625 0  -0.25 -0.0625 0  -0.21875 -0.03125 0  -0.3125 0 0  -0.28125 0.03125 0  -0.4375 -0.1875 0  -0.5625 -0.1875 0  -0.5 -0.1875 0  -0.6875 -0.4375 0  -0.8125 -0.4375 0  -0.8125 -0.5625 0  0 -0.0078125 0  0.00390625 0.00390625 0  0.00390625 0 0  -0.00390625 0.00390625 0  0 0.00390625 0  -0.00390625 0 0  -0.00390625 -0.00390625 0  -0.8125 -0.6875 0  -0.25 -0.1875 0  -0.1875 -0.25 0  -0.21875 -0.21875 0  0 -0.1875 0  -0.03125 -0.21875 0  0.125 0.4375 0  0.1875 0.375 0  0.0625 0.375 0  -0.1875 0.375 0  -0.125 0.4375 0  -0.375 0.1875 0  -0.4375 0.125 0  -0.3125 -0.125 0  -0.4375 -0.125 0  -0.375 -0.1875 0  -0.375 -0.0625 0  -0.34375 -0.15625 0  -0.1875 -0.125 0  -0.21875 -0.09375 0  -0.21875 -0.15625 0  -0.28125 -0.15625 0  -0.15625 -0.09375 0  -0.15625 -0.15625 0  -0.09375 -0.15625 0  -0.6875 0.375 0  -0.375 0.4375 0  -0.4375 0.375 0  -0.3125 0.375 0  -0.375 0.3125 0  -0.03125 -0.15625 0  -0.15625 -0.21875 0  -0.09375 -0.21875 0  -0.125 -0.1875 0  0.5625 0.125 0  0.6875 0.125 0  0.125 0.5625 0  -0.5625 0.125 0  0.3125 0.375 0  -0.5625 -0.125 0  -0.34375 0.03125 0  -0.375 0.0625 0  0 -0.0234375 0  0.01171875 0.00390625 0  0.01171875 0 0  0.00390625 0.01171875 0  -0.00390625 0.01171875 0  0 0.01171875 0  -0.01171875 0.00390625 0  -0.01171875 0 0  -0.01171875 -0.00390625 0  -0.00390625 -0.01171875 0  -0.00390625 -0.01953125 0  0.0078125 0.00390625 0  0.00390625 0.0078125 0  -0.00390625 0.0078125 0  -0.0078125 0.00390625 0  -0.0078125 -0.00390625 0  -0.0078125 -0.015625 0  </DataArray>
</Points>
<Cells>
[...]
<CellData  Scalars="w"> 
<DataArray  type="Float64"  Name="w"  format="ascii">1.5228141110414158e-06   1.5188313395200452e-06   3.5581430419772603e-07   3.8736755413727146e-07   3.4729642047393079e-07   4.5006981135668246e-07   3.4165707469927872e-07   4.4535666210502036e-07   3.4982619530951809e-07   3.7560263774802855e-07   3.6234086445492521e-07   5.5851572056952959e-07   3.6278110065715245e-07   5.5496686455224267e-07   4.5145196188129406e-07   3.4840715335683897e-07   5.3420126084865652e-07   6.7055761140308864e-07   1.2521011130796745e-08   4.1863026558789552e-08   1.4663101456848943e-08   4.6875359944524209e-08   2.8530297775543611e-08   5.4189343883408502e-08   9.0913414855594288e-08   8.5021537595596160e-07   1.3600279181314113e-07   2.1241739981097860e-07   4.5334423174041787e-07   3.4310641455663926e-07   4.4172388908226335e-07   4.8129700787131823e-07   9.5982364309217334e-08   2.1572134123256456e-07   3.7005699237095211e-07   1.9307853774497593e-07   3.9006178107021060e-08   1.9806913729716077e-08   5.3799878739172608e-07   5.0273539911621223e-07   5.6270229532545281e-07   3.0679429586201921e-07   2.4319162302666934e-08   1.1003028154752083e-07   4.3083335086269652e-07   6.1697421533435412e-07   4.3884140532436464e-07   4.0522198741503310e-07   9.5912703282892578e-07   8.7428759731345804e-07   8.1430256259012379e-07   9.8151633176177346e-07   6.9798968671396173e-07   6.9317589606733553e-07   7.8783720631055285e-07   5.6846405238806018e-07   5.8757621933777198e-07   4.2454929310805494e-07   5.4415139645665833e-07   4.5203512440998752e-07   1.0571335172980185e-06   7.1220753972376918e-07   1.0461202640244662e-06   7.4267954620104351e-07   5.3332937929592726e-07   4.4836417937828252e-07   5.7627542029932035e-07   4.1407936634098501e-07   5.6253882847774441e-07   6.1121037664358910e-07   5.6396580430834060e-07   7.3233792563646765e-07   3.9241859162000137e-07   5.1284084466547823e-07   1.3541086932783693e-06   9.7433051544829534e-08   2.5070569945021179e-07   9.5362997623165535e-08   7.1411181584300319e-08   3.8051066659394757e-08   5.1807767466579045e-08   1.2735370588195541e-07   9.6690848062191667e-09   2.4673962351832738e-08   9.5546667882866525e-09   7.0870113729483778e-09   3.7866336745508464e-09   5.1713304878709910e-09   1.2610885244169257e-08   9.6827786787707664e-10   2.4598121670470872e-09   9.6484847367121930e-10   7.1085059428689219e-10   3.7141288362258778e-10   5.1985657399356950e-10   1.2524037410280495e-09   8.6797495093727585e-11   2.3802354952617483e-10   1.1635530716740243e-10   7.8139487585117472e-11   3.2069771706364879e-10   1.9529527479835852e-10   3.6545337742725771e-06   7.5337862008011656e-05   9.7887075224883102e-07   9.5633598213643809e-07   9.6512601968214816e-07   5.8826519603288225e-07   3.9222780762635746e-07   5.0586484660885370e-07   1.3544155672415756e-06   9.7332225750400593e-08   2.5007956260381625e-07   9.5539381075455520e-08   7.1502067080331088e-08   3.8108881951586094e-08   5.1791530475170145e-08   1.2732158532330883e-07   9.6706176302080916e-09   2.4664954424259396e-08   9.5751576907468073e-09   7.1007922694275238e-09   3.7896814968652044e-09   5.1684076636079661e-09   1.2607150810656359e-08   9.6531277223203809e-10   2.4556229583553013e-09   9.6347485914180665e-10   7.1094599315912635e-10   3.6868542747910846e-10   5.1575169414039143e-10   1.2520292617883900e-09   8.5705605620169730e-11   2.3702777285587172e-10   1.1333297473428514e-10   7.6668291940489591e-11   3.1338421920073072e-10   1.9590855236890034e-10   3.8783572150548754e-06   7.5835979385521353e-05   9.2983094872807607e-07   9.7729688919872832e-07   9.7913811131642371e-07   7.3493938865205665e-07   7.1351502974350436e-07   1.5499416966784362e-06   8.2345428626833751e-07   2.3044744259912627e-07   1.2198685456025146e-07   6.7530744125652796e-07   6.7176814948281118e-08   8.6533465396769242e-08   2.2328133173083784e-06   1.2124288171987123e-06   1.2854048651974291e-07   1.2040245870916956e-07   7.4384812209370206e-08   6.9166081703535615e-08   2.7591219035553016e-08   9.9633491385615783e-08   2.0538351126083337e-08   3.2335535715949503e-08   3.7698759797538508e-08   2.7306648773066544e-08   8.6440228587141234e-08   6.9080683483241510e-07   5.3661443909794818e-07   7.3430328057349519e-08   3.4370515236415814e-08   7.0451692126753934e-07   2.2276465632581130e-07   1.2197609754861730e-07   2.8418846031801363e-07   1.9065942359130696e-07   2.9623343726131197e-07   4.9526559373848066e-07   4.2331255788269426e-07   2.2989739012323418e-07   7.6757620918265065e-07   3.2560005216536924e-07   2.6950976209616441e-07   1.8939363925952777e-07   2.9007125201413967e-07   5.0148548993871862e-07   2.0060314435396910e-06   8.0220438698954036e-07   1.0261302567341422e-06   2.3688822039566960e-07   1.6426553911792426e-07   5.9617510005802789e-07   1.1693105094783003e-07   6.4283807133236320e-08   1.9617592344467391e-07   1.3347632688188630e-07   3.2918132541038379e-07   8.4255909044924759e-08   4.8251992974854750e-08   1.0899798025230316e-06   2.1666754700123930e-07   1.6958819877404735e-07   9.1620706305094110e-07   1.4648463787633408e-06   3.6273861776410666e-07   4.4886882656523246e-08   9.5909940171296595e-08   1.3736145376463268e-06   1.5558329912121368e-06   2.9990008990360351e-07   4.6967915676671142e-07   1.3577012109817979e-07   2.7058423686522424e-07   8.3249139732712147e-07   3.5893149262527322e-07   1.7872802373513930e-07   8.2190022350496206e-07   6.6496919273237289e-07   8.9747756535136909e-07   6.0522250837147028e-07   2.5354120201856093e-07   3.2212728807316649e-07   1.0104891738401931e-06   3.3320818932572316e-08   9.4760674311201393e-08   2.4151972061513909e-07   4.7385256248890784e-08   7.8884136949406193e-08   3.8104315578248488e-08   1.0490972494247169e-07   1.1811938184634111e-07   1.0091115038132696e-07   2.1977389044785114e-07   1.7606210284564429e-07   2.6421316306056026e-07   8.3927108585951151e-08   4.7005386675200588e-08   9.8403280043236309e-07   1.0766609996413561e-06   4.0650519539117606e-07   1.5575896145693243e-07   1.2829250269380828e-07   2.3282738928680261e-07   1.5343162047462101e-07   2.1446396318544045e-07   1.0376251267483858e-07   3.0959614021062760e-07   9.1491325756743506e-08   1.1619185856481687e-07   7.0201124986623627e-08   7.2786360308993433e-08   6.1940211579829927e-08   4.0994408359839992e-08   1.4892638972697132e-07   2.9051984225070592e-07   8.3125666670535739e-07   6.1537417152874870e-08   8.9738534170620901e-08   4.2559204251579442e-08   4.6530574543945393e-08   2.3708047475001049e-07   7.4442250909377397e-08   3.8462884536381305e-08   3.4537836255973240e-08   4.3014006169721519e-08   3.0573088795973444e-08   4.3648395625545212e-08   2.3776441642530325e-07   7.4895536350528672e-08   3.8448509147612069e-08   3.4817062976765294e-08   4.2475290873948797e-08   3.1054868758080777e-08   4.3883636810449913e-08   1.5756711535171777e-07   8.5664301182502115e-08   3.3190265846152258e-07   5.7588205801166671e-08   7.6304945717901907e-08   4.3670221026650602e-08   4.7247493356674683e-08   1.0190732791226807e-07   3.0901909733200198e-07   8.9267793245564307e-08   1.1520567922129137e-07   6.8241217572664234e-08   6.6936599810597931e-08   5.9690045228141924e-08   4.2148122535098533e-08   7.2463329573213990e-08   5.7662871753358224e-08   7.3232820468230139e-08   9.5842153167183847e-08   5.1991142449569246e-08   4.4227163768678209e-08   5.6399766082826727e-08   4.3462956749945273e-08   7.3118497176532396e-08   5.7572669702399219e-08   7.3671091052921121e-08   9.5562496967594156e-08   5.2593054982417913e-08   4.4389521395629243e-08   5.7169380452335111e-08   4.3490835012350666e-08   3.2773325635117969e-07   2.5233694228427868e-07   5.7873607884900682e-07   6.3983571384770322e-07   1.4485500587760671e-07   5.0882261392089964e-10   1.2999608117652558e-07   4.4829780118464511e-07   1.6898730948585647e-07   1.6921437496930340e-07   9.5251811244214828e-07   1.1202216085451944e-06   1.2850078812048004e-06   2.8539432409235910e-07   5.6925415032091104e-07   4.9544201555508134e-07   5.9289883795429504e-07   9.2790209070502470e-07   1.0251372920102524e-06   2.7212319360813807e-07   2.7594497043723698e-07   3.8266727410648896e-07   7.2844890098424278e-07   9.3665395120595235e-07   4.1187817888674922e-07   5.4323685066982539e-07   6.2050536761381322e-08   6.0481053246341511e-08   1.1073661080700266e-07   9.6906756796852396e-08   4.3102748893347549e-08   2.4411022414378847e-08   1.0003441495435413e-08   6.8125534831599545e-08   9.0138577220615817e-08   1.8678323120812481e-07   6.2103168068034107e-08   1.0237391514655651e-07   7.4498447901093955e-08   1.5952042393863862e-07   6.1136930564931242e-08   6.8566212466779934e-08   8.7257895641947122e-08   6.4557064439582843e-08   9.6762555808402069e-08   7.0069620331134749e-08   9.4663774542844630e-08   6.2667211231976515e-08   7.1676425238730710e-08   9.2198883129737075e-08   2.9221424927905334e-08   3.0228692079031013e-08   4.2170795207243318e-08   3.7269353709834625e-08   3.9971598711849341e-08   4.6214907926027452e-08   9.5937163175868739e-08   7.4099495756832703e-08   4.3638802018900388e-07   1.9042581087541444e-07   1.5634324844485841e-07   7.7678593468464247e-07   3.6687463870750591e-07   4.4089151659967748e-07   6.1667879433166010e-08   1.0464668800661321e-07   1.0964006539899330e-07   1.8384174406354781e-07   6.2721633245607797e-09   1.0627182516252435e-08   1.0909256399519300e-08   1.8022917335233544e-08   6.2957891938558199e-10   1.0579001552649213e-09   1.0986813243243487e-09   1.7913632371515887e-09   6.7381990212292818e-11   1.0961564170253808e-10   1.5556926421488482e-10   2.0550312020947755e-10   6.3556587643371495e-06   4.9274810585195431e-05   1.6414840810836341e-10   3.3358928759256478e-10   4.3697111863241295e-10   4.5941583252258704e-10   1.3098812634402699e-09   4.4865456005718653e-09   4.4513294147358103e-09   1.3887279534963474e-08   4.5361156659245321e-08   4.4642723351535401e-08   1.3758248583748200e-07   4.7755030978014894e-07   4.3471223599524567e-07   1.1541456259830375e-06   5.4540805170374185e-08   5.5599526569629547e-08   5.4541075258453932e-08   6.2025154672082703e-08   5.8700129858102617e-08   6.0363443557113661e-08   4.4286163232352108e-08   5.2212619360140939e-08   1.0777233648763038e-07   9.2836041439353847e-08   1.0286350580076924e-07   1.6049977670780299e-07   1.0071294626745558e-07   8.9926809835380134e-08   6.7563857223635749e-08   6.4795081577646806e-08   7.2326711686081000e-07   2.6417267686056597e-07   3.0189666153010629e-07   2.2491202933653021e-07   2.8077919649136291e-07   5.2504842881028921e-08   9.9397837787671891e-08   8.7369262738159876e-08   2.3540971684178200e-07   6.5087061740103298e-08   1.2690788575467152e-07   7.0294961588119525e-08   2.9667250721503290e-08   2.6707554981467654e-08   7.8383497320266371e-08   8.7085497437798605e-08   1.1499080587492355e-07   6.8504707940838577e-08   3.1357630962796226e-07   2.5428466438138907e-08   4.1121099995116617e-08   5.1927294632302525e-08   2.7283292680024031e-08   4.7406298152928705e-08   2.6155098219529986e-08   7.7494310576538341e-08   1.1560528707219408e-07   1.0825419031000772e-07   1.9518873562888774e-07   1.8887494857086865e-07   1.1419639401538273e-07   7.4311350459909703e-08   8.9904374020980532e-08   1.0453620464912420e-07   1.1884488295966560e-07   9.4166416187381831e-08   8.7962583056422891e-08   1.1502941902321457e-07   6.8594781738935732e-07   1.9010162774882711e-07   2.6849535018054250e-07   1.1353320396269509e-06   1.4606877992029215e-06   3.8245826866307837e-07   4.2493542350081851e-07   7.5517515755312487e-07   4.2564440213223099e-08   6.0845352708702176e-08   6.4162305830546546e-08   3.8403575417360011e-08   3.3992908349812242e-08   3.7293810619938413e-08   4.3020691839246540e-08   9.7684455426375500e-08   1.3328897959456075e-07   9.9167343047187468e-08   1.2619919327907802e-07   1.1520056621912056e-07   3.6711024192614750e-07   4.0477385659539222e-07   8.4228304818457980e-07   5.5352274051482428e-07   8.6159567812644702e-07   5.6238395674723758e-07   5.3238073514585259e-07   1.4242665239996144e-06   1.0878469758492514e-06   1.3669471999354484e-06   1.6953824006433690e-06   4.8565094130559115e-07   5.9870159331668650e-07   4.1462240092979766e-07   4.2919804756756063e-08   3.8726665539226815e-08   8.1828285427139647e-07   9.0957169524836728e-07   8.3656795955964980e-07   5.9577243447797639e-07   1.4531864471670463e-07   7.2185391753475494e-08   5.0202809851067714e-08   9.3271081629367070e-08   4.7907259976098653e-08   8.3259260261148577e-08   3.6760526642710378e-08   3.6228636766834627e-08   3.9519010361862965e-08   6.8795471137521983e-08   4.8745528500479998e-08   5.7236017715276760e-08   4.5617125762337760e-08   5.4291170623295905e-08   7.5165350977916132e-08   5.3966894549837312e-08   8.2272993696713702e-08   2.0875584159419928e-07   9.0441949808336686e-07   1.1074920505349225e-07   1.2237944979963918e-07   7.9307232915809635e-09   1.1913884317187049e-08   7.9312829901981972e-10   1.2129953082126908e-09   5.5283609719579912e-10   2.9940363970193819e-05   7.5846459356017074e-10   1.7341419614578803e-06   1.7950897941764990e-10   1.5821455482060473e-10   7.2638707488281085e-10   2.3801936227913396e-10   8.4788520691758633e-10   9.3497641261929483e-11   2.8456547898009298e-10   1.7488692134396039e-09   1.5780194119702321e-09   1.3037104511200136e-08   1.8895380815665823e-09   8.2468911404908642e-09   9.3926385644128015e-10   2.7085574180339080e-09   3.7662817707709499e-07   1.8650045422171057e-07   2.9670295607164743e-08   7.4656592405373432e-08   8.5820630225533116e-08   6.1289356726984484e-08   9.3035737310029635e-08   7.2006918185959318e-08   1.4299895902041416e-07   1.4706024683244502e-07   3.7770517249054475e-07   7.3319995715903454e-07   2.6605922674730253e-07   3.3429917070497195e-07   2.1136182267378676e-07   3.6997961766553318e-07   3.8034409127423845e-07   5.0264568030484363e-07   5.5404698707723542e-07   5.7066442115462110e-07   1.3604396727316451e-07   1.6131691678147943e-07   4.1639207428864717e-07   4.7024314450840392e-08   1.9211676895690520e-07   5.0877755964048529e-08   1.5004055765769654e-07   4.3734600372418690e-07   8.4224670207319293e-07   6.6227995430406113e-07   7.9736071952827931e-07   4.7051815353784504e-07   8.7536809843721926e-07   3.0328814189143366e-07   6.9740715152831635e-07   1.8195241696165423e-07   2.9030725914924077e-07   2.1130625941237189e-07   4.7329247178354935e-07   1.3003730136820704e-07   1.4514166040904664e-07   1.5192813393439965e-07   1.3935638791298158e-07   3.3802531158550216e-07   6.0752403117941380e-07   4.1548753270119459e-07   3.3677548899915765e-07   3.2012556270455977e-07   4.6401809128001629e-07   2.9207768013454203e-07   2.2311595508159126e-07   8.5140304959796922e-07   8.3260897279758361e-07   6.2996987635026982e-07   3.3056503848704344e-07   4.9630234956240295e-07   4.0781218422531477e-07   7.4977551590873741e-07   5.3943508349566819e-07   1.9405275760425548e-07   2.4285116129098531e-07   1.1515411922338768e-06   1.1885796283587746e-07   5.4198763446849791e-08   4.9151506674921345e-07   1.9479825051462938e-06   2.2617414224924888e-07   1.6633562621138266e-07   3.6669366215252237e-07   2.5750301016783300e-07   6.8593299859528366e-07   2.3056502094562591e-07   3.6969236590179169e-07   8.1452241937374450e-07   2.0466612113757541e-07   7.7689941926759898e-08   6.4205814601163423e-08   4.6614182184789252e-08   7.5181134504192100e-08   2.0799678368432923e-07   1.1967037213882322e-06   3.8754979184704553e-07   1.8751908145734591e-07   9.8498754498979317e-07   5.1731471486667968e-07   7.1426684149751005e-08   4.2881709056431839e-08   1.4756579835725212e-08   1.1017308510895380e-07   1.3890969544940018e-07   1.1702801353424101e-07   1.0548761311555457e-07   1.3202490464324406e-07   1.0421171845571484e-06   7.5806043829016379e-07   1.2957529760047955e-06   5.2256911737922298e-07   3.1275823319047966e-07   1.4871723126926242e-07   7.6014792824744539e-10   1.3152651138461414e-07   1.2395577816853448e-07   9.2917673574939194e-08   1.2557259603721759e-07   1.2746703971251535e-07   9.8265383337416580e-08   7.8573657018551106e-08   1.4852444368627677e-07   1.3855812722391784e-07   1.1481235147074500e-07   2.2496501995870960e-07   1.6823258074422714e-07   3.8307067162641125e-07   2.1169451162487678e-06   4.6555075940381437e-07   5.2296277351713444e-07   1.5826741344727955e-07   1.8300780602958186e-07   4.0890282879633803e-07   5.1130119223331752e-07   1.0339597790905678e-06   1.2342537745346307e-06   6.7020184530332131e-07   9.4775743707880469e-07   4.3832319969393612e-07   4.1689920789047617e-07   1.3320360214298256e-06   1.0960863705024126e-07   1.8197050031640926e-07   6.1997486636022904e-08   1.0503943823376887e-07   4.5354480196130133e-08   4.4624860766971346e-08   1.3841442978794293e-07   1.0959674747990927e-08   1.8120719801699301e-08   6.2844091238401889e-09   1.0647318870276664e-08   4.5121018480561656e-09   4.4678791358881385e-09   1.3761593844102571e-08   1.1003741070412152e-09   1.8075274359046406e-09   6.3018187545973847e-10   1.0629846631297008e-09   4.4585734719121350e-10   4.5374575528277652e-10   1.3498122938969969e-09   1.4561316037458087e-10   1.9022509266592605e-10   6.5659241298034419e-11   1.0872900010229692e-10   1.5143486133330974e-10   1.8661018785039084e-10   7.0692753950709221e-06   3.3729535729704863e-05   5.8392097808569825e-07   3.6752044887612888e-07   1.2125634866770245e-06   5.6394950790278365e-08   1.2533164851067629e-07   4.6712423828896027e-08   4.6089492522557463e-08   1.5792740483186959e-07   1.3804667982303769e-07   6.5923782233897650e-07   6.4671345666815310e-08   6.7319912577519433e-08   4.7786524216735876e-08   5.5143128228062120e-08   6.1322451424895939e-08   6.3035179235251565e-08   4.1850455358292412e-08   4.1949892074954184e-08   1.0206891343566776e-07   9.8985072049256374e-08   1.1159457532042929e-06   1.0436305444966249e-07   9.2319396889725117e-08   7.1189241209552501e-08   6.6832641459235186e-08   9.3817207691993408e-08   8.9468946779542879e-08   5.7076961081152923e-07   8.9526700459179924e-08   8.4736668270766906e-08   4.6157388031194118e-08   4.3579335762195061e-08   1.5475182436130347e-07   1.3188163271487524e-07   1.4952294800638883e-07   2.4777522063656917e-07   3.0243159999598572e-07   1.4273909711206516e-07   1.8447353042235024e-06   3.9927884672765748e-07   3.0720019042654573e-07   3.8030453679572808e-07   1.5992275847335943e-07   1.9006684454275785e-07   4.1690993070166002e-07   4.5720415149206162e-07   1.2973564019131902e-07   8.4200273709111629e-08   2.4184578316387643e-07   1.1004496828750353e-07   9.0112967994127862e-07   2.9247339754048342e-07   1.0602733107708397e-07   3.5197475732179856e-07   3.3519273573777194e-07   3.4558181502173372e-07   4.3900677119798770e-07   4.4893848452752212e-07   3.8547826420346492e-07   7.6691686802026951e-07   3.4388345648272428e-08   6.2204338495843294e-08   4.2027475791935412e-08   5.6250596997919097e-08   3.6840786434124817e-08   3.4134413957232221e-08   4.7343543575808630e-08   1.1812757217562079e-07   7.2574115273242757e-07   2.3856579258534453e-07   1.0276389202530394e-07   1.5287191697026198e-06   1.3383930385850894e-06   4.3319874687018807e-07   4.1375709998580424e-07   4.0843592033636805e-07   2.3736410007825647e-07   1.1466711285315218e-07   2.2902545360535150e-07   2.1516701559494642e-07   1.5933119709418518e-07   1.8323526912791908e-07   4.5082753704472459e-07   3.7835682258471533e-07   8.6954709586732335e-07   1.1556402525114703e-07   8.8259622239918935e-08   6.3490479168242460e-08   5.8619404854275840e-08   7.2118539194752840e-08   6.7954580644418233e-08   6.1642907998749093e-08   5.7540210497273117e-08   7.4114117342626811e-07   1.2508794594888740e-06   1.6358732952989432e-06   1.2272485852167073e-07   1.3841889789797090e-07   1.9470686117730657e-07   2.0060304575321430e-07   5.4946301847111213e-08   3.5649761039427972e-08   2.3947706932893972e-07   1.9159918769274980e-08   5.0215184417978594e-08