<?xml version="1.0"?>
<VTKFile type="UnstructuredGrid"  version="0.1"  >
<UnstructuredGrid>
<Piece  NumberOfPoints="65" NumberOfCells="96">
<Points>
<DataArray  type="Float64"  NumberOfComponents="3"  format="ascii">-1 1 0  -0.75 1 0  -1 0.75 0  -0.5 1 0  -0.75 0.75 0  -1 0.5 0  -0.25 1 0  -0.5 0.75 0  -0.75 0.5 0  -1 0.25 0  1 1 0  1 1.110223024625157e-16 0  1 0.2500000000000001 0  1 0.5 0  1 0.75 0  0.75 1 0  0.5 1 0  0.25 1 0  0 1 0  -0.25 0.75 0  -0.5 0.5 0  -0.75 0.25 0  -1 0 0  0.75 0.75 0  0.75 0 0  0.75 0.25 0  0.75 0.5 0  0.5 0.75 0  0.25 0.75 0  0 0.75 0  -0.25 0.5 0  -0.5 0.25 0  -0.75 0 0  -1 -0.2500000000000001 0  0.5 0.5 0  0.5 0 0  0.5 0.25 0  0.25 0.5 0  0 0.5 0  -0.25 0.25 0  -0.5 0 0  -0.75 -0.2500000000000001 0  -1 -0.5 0  0.25 0.25 0  0.25 0 0  0 0.25 0  -1 -0.75 0  -0.25 0 0  -0.5 -0.25 0  -0.75 -0.5 0  -0.9999999999999999 -1 0  0 0 0  -0.75 -0.75 0  -0.25 -0.25 0  -0.5 -0.5 0  -0.7499999999999999 -1 0  0 -0.25 0  -0.5 -0.75 0  -0.25 -0.5 0  -0.4999999999999999 -0.9999999999999999 0  0 -0.5 0  -0.25 -0.75 0  -0.2499999999999999 -0.9999999999999999 0  0 -0.75 0  0 -0.9999999999999999 0  </DataArray>
</Points>
<Cells>
<DataArray  type="UInt32"  Name="connectivity"  format="ascii">0 1 2  2 4 5  1 3 4  1 2 4  9 21 22  8 20 21  5 8 9  8 9 21  6 18 19  3 6 7  7 19 20  6 7 19  4 5 8  7 8 20  3 4 7  4 7 8  45 47 51  38 39 45  39 40 47  39 45 47  18 19 29  19 20 30  29 30 38  19 29 30  21 22 32  31 32 40  20 21 31  21 31 32  30 38 39  20 30 31  31 39 40  30 31 39  22 32 33  33 41 42  32 40 41  32 33 41  46 50 52  49 52 54  42 46 49  46 49 52  47 51 53  40 47 48  48 53 54  47 48 53  41 42 49  48 49 54  40 41 48  41 48 49  62 63 64  60 61 63  59 61 62  61 62 63  51 53 56  53 54 58  56 58 60  53 56 58  50 52 55  55 57 59  52 54 57  52 55 57  58 60 61  54 57 58  57 59 61  57 58 61  17 18 29  28 29 38  16 17 28  17 28 29  43 45 51  34 37 43  37 38 45  37 43 45  10 15 23  15 16 27  23 27 34  15 23 27  28 37 38  27 34 37  16 27 28  27 28 37  11 12 24  12 13 25  24 25 35  12 24 25  10 14 23  23 26 34  13 14 26  14 23 26  43 44 51  35 36 44  34 36 43  36 43 44  13 25 26  26 34 36  25 35 36  25 26 36  </DataArray>
<DataArray  type="UInt32"  Name="offsets"  format="ascii">3 6 9 12 15 18 21 24 27 30 33 36 39 42 45 48 51 54 57 60 63 66 69 72 75 78 81 84 87 90 93 96 99 102 105 108 111 114 117 120 123 126 129 132 135 138 141 144 147 150 153 156 159 162 165 168 171 174 177 180 183 186 189 192 195 198 201 204 207 210 213 216 219 222 225 228 231 234 237 240 243 246 249 252 255 258 261 264 267 270 273 276 279 282 285 288 </DataArray>
<DataArray  type="UInt8"  Name="types"  format="ascii">5 5 5 5 5 5 5 5 5 5 5 5 5 5 5 5 5 5 5 5 5 5 5 5 5 5 5 5 5 5 5 5 5 5 5 5 5 5 5 5 5 5 5 5 5 5 5 5 5 5 5 5 5 5 5 5 5 5 5 5 5 5 5 5 5 5 5 5 5 5 5 5 5 5 5 5 5 5 5 5 5 5 5 5 5 5 5 5 5 5 5 5 5 5 5 5 </DataArray>
</Cells>
<CellData  Scalars="w"> 
<DataArray  type="Float64"  Name="w"  format="ascii">1.7037744500348045e-05   3.4408440906187916e-05   3.5150859873083124e-05   3.4769054912854054e-05   4.9824154618478302e-05   1.0013089774813506e-04   4.7321083910822900e-05   6.3790578986231067e-05   5.5510361240999091e-05   5.0198439533360855e-05   1.0271568758548889e-04   6.8799387674475519e-05   5.3112760240248151e-05   9.9808496065675764e-05   5.4805389373394829e-05   6.3924915149996344e-05   4.9816975819426124e-02   8.2595430878759624e-04   8.2977125750703954e-04   9.1033027884543389e-03   6.1471819549788325e-05   1.6401417909493135e-04   1.7235782325801635e-04   1.3200069212442281e-04   5.4494921764334508e-05   1.6451912322676328e-04   1.5933509592301614e-04   1.2720102086490970e-04   4.3650449563820766e-04   2.2568746692718823e-04   4.3830332270750820e-04   4.3870465992459240e-04   3.7717207672742167e-05   2.2660847563031149e-05   1.2947682895416942e-04   4.3419828708014177e-05   2.1321059518019382e-06   5.5171462714744671e-05   1.0146648721969586e-05   2.6948895387761436e-05   2.5676652910182597e-02   5.2779505481924123e-04   3.5891072469517219e-04   2.3734798569127278e-03   4.6345770990324248e-05   1.5861971425681874e-04   1.2931845792981211e-04   9.9739063555631693e-05   2.7768634048564691e-02   5.6035713384758002e-03   2.3495165981031211e-03   3.3653940432991511e-02   2.7852958328856538e-03   4.8726272852208481e-04   2.9376710910520085e-04   5.2422656803417930e-04   1.1015332005791208e-06   4.2700194435713902e-05   9.3172778692215426e-05   1.3591377033041590e-05   3.1514906844097249e-03   5.3700502242120195e-04   4.4307454074231465e-04   1.7857112209779375e-03   4.3509339933589842e-05   1.2733046757876256e-04   2.5064542504852852e-05   4.4503390565361286e-05   2.5652607348619343e-02   2.4172561040712701e-04   4.9056661741402161e-04   2.1765286766883309e-03   8.2192526182064983e-06   1.3362788449567474e-05   4.8812001778671760e-05   3.3935064732401384e-05   1.1890169332333989e-04   1.0710943315308584e-04   4.0483208411593984e-05   8.4545939547889899e-05   3.6351953306906876e-05   4.9827464747805801e-05   9.8002687449205418e-05   7.1362944030673781e-05   2.3738853632379303e-05   6.3558211990898892e-05   3.6744543273701043e-05   3.1069952916874847e-05   3.3569491991973705e-03   3.2263593034578179e-04   2.8194492128300031e-04   5.2561687170354140e-04   5.1929504271318980e-05   9.2828368553391378e-05   1.7419539202679100e-04   1.0293497963647490e-04   </DataArray> 
</CellData> 
</Piece>
</UnstructuredGrid>
</VTKFile>