<?xml version="1.0"?>
<VTKFile type="UnstructuredGrid"  version="0.1"  >
<UnstructuredGrid>
<Piece  NumberOfPoints="780" NumberOfCells="1473">
<Points>
<DataArray  type="Float64"  NumberOfComponents="3"  format="ascii">-1 1 0  -0.75 1 0  -1 0.75 0  -0.5 1 0  -0.75 0.75 0  -1 0.5 0  -0.25 1 0  -0.5 0.75 0  -0.75 0.5 0  -1 0.25 0  1 1 0  1 1.110223024625157e-16 0  1 0.2500000000000001 0  1 0.5 0  1 0.75 0  0.75 1 0  0.5 1 0  0.25 1 0  0 1 0  -0.25 0.75 0  -0.5 0.5 0  -0.75 0.25 0  -1 0 0  0.75 0.75 0  0.75 0 0  0.75 0.25 0  0.75 0.5 0  0.5 0.75 0  0.25 0.75 0  0 0.75 0  -0.25 0.5 0  -0.5 0.25 0  -0.75 0 0  -1 -0.2500000000000001 0  0.5 0.5 0  0.5 0 0  0.5 0.25 0  0.25 0.5 0  0 0.5 0  -0.25 0.25 0  -0.5 0 0  -0.75 -0.2500000000000001 0  -1 -0.5 0  0.25 0.25 0  0.25 0 0  0 0.25 0  -1 -0.75 0  -0.25 0 0  -0.5 -0.25 0  -0.75 -0.5 0  -0.9999999999999999 -1 0  0 0 0  -0.75 -0.75 0  -0.25 -0.25 0  -0.5 -0.5 0  -0.7499999999999999 -1 0  0 -0.25 0  -0.5 -0.75 0  -0.25 -0.5 0  -0.4999999999999999 -0.9999999999999999 0  0 -0.5 0  -0.25 -0.75 0  -0.2499999999999999 -0.9999999999999999 0  0 -0.75 0  0 -0.9999999999999999 0  0.375 0.375 0  0.375 0.25 0  0.375 0.125 0  0.25 0.375 0  0.125 0.375 0  -0.125 0.375 0  -0.375 0.125 0  -0.125 0.25 0  -0.25 0.125 0  0.25 0.125 0  0.125 0.25 0  0.125 0.125 0  0.125 0 0  -0.125 0.125 0  0 0.125 0  -0.375 -0.125 0  -0.125 0 0  -0.25 -0.125 0  -0.375 -0.25 0  -0.125 -0.125 0  0 -0.125 0  -0.375 -0.375 0  -0.125 -0.25 0  -0.125 -0.375 0  0.1875 0.0625 0  0.0625 0.1875 0  -0.0625 0.1875 0  -0.1875 0.0625 0  -0.1875 0 0  -0.1875 -0.0625 0  0.0625 0.0625 0  0.0625 0 0  -0.0625 0.0625 0  0 0.0625 0  -0.0625 0 0  -0.0625 -0.0625 0  0 -0.0625 0  -0.625 -0.625 0  -0.5 -0.625 0  -0.375 -0.5 0  -0.0625 -0.1875 0  -0.375 -0.625 0  -0.375 -0.75 0  -0.125 -0.5 0  -0.25 -0.625 0  -0.3749999999999999 -0.875 0  -0.3749999999999999 -0.9999999999999999 0  -0.125 -0.625 0  0 -0.625 0  -0.2499999999999999 -0.875 0  -0.125 -0.75 0  -0.1249999999999999 -0.875 0  -0.1249999999999999 -0.9999999999999999 0  0 -0.875 0  0.125 0.0625 0  0.0625 0.125 0  -0.0625 0.125 0  -0.125 0.0625 0  -0.125 -0.0625 0  -0.0625 -0.125 0  -0.375 0.875 0  -0.625 0.625 0  -0.375 0.75 0  -0.5 0.625 0  -0.875 0.375 0  -0.625 0.5 0  -0.75 0.375 0  -0.125 0.875 0  -0.375 0.625 0  -0.125 0.75 0  -0.25 0.625 0  -0.625 0.375 0  -0.375 0.5 0  -0.5 0.375 0  -0.875 0.125 0  -0.625 0.25 0  -0.75 0.125 0  0.625 0.125 0  0.625 0.25 0  0.625 0.375 0  0.125 0.625 0  -0.125 0.625 0  0 0.625 0  -0.375 0.375 0  -0.125 0.5 0  -0.25 0.375 0  -0.625 0.125 0  -0.375 0.25 0  -0.5 0.125 0  -0.625 0 0  0.5 0.125 0  -0.625 -0.125 0  0.03125 0.03125 0  0.03125 0 0  -0.03125 0.03125 0  0 0.03125 0  -0.03125 0 0  -0.03125 -0.03125 0  0 -0.03125 0  0.09375 0.03125 0  0.03125 0.09375 0  -0.03125 0.09375 0  0 0.09375 0  -0.09375 0.03125 0  -0.09375 0 0  -0.09375 -0.03125 0  -0.03125 -0.09375 0  0.0625 0.03125 0  0.03125 0.0625 0  -0.03125 0.0625 0  -0.0625 0.03125 0  -0.0625 -0.03125 0  -0.03125 -0.0625 0  -0.875 0.875 0  -0.625 1 0  -0.75 0.875 0  -0.875 0.75 0  -0.625 0.875 0  -0.875 0.625 0  0.875 0.875 0  1 0.1250000000000001 0  0.875 5.551115123125783e-17 0  1 0.3750000000000001 0  0.875 0.1250000000000001 0  0.875 0.2500000000000001 0  1 0.625 0  0.875 0.375 0  0.875 0.5 0  0.875 0.75 0  0.875 0.625 0  0.75 0.875 0  0.625 0.875 0  0.5 0.875 0  0.375 0.875 0  0.25 0.875 0  0.125 0.875 0  0.75 0.625 0  0.625 0.75 0  0.625 0.625 0  0.75 0.125 0  0.75 0.375 0  0.375 0.75 0  0.5 0.625 0  0.375 0.625 0  0.125 0.75 0  0.25 0.625 0  -0.875 -0.125 0  -0.75 -0.125 0  -0.875 -0.2500000000000001 0  0.5 0.375 0  0.375 0.5 0  0.4375 0.4375 0  0.125 0.5 0  0.3125 0.4375 0  0 0.375 0  0.0625 0.4375 0  -0.0625 0.4375 0  -0.375 0 0  -0.5 -0.125 0  -0.4375 0.0625 0  -0.4375 -0.0625 0  -0.875 -0.375 0  -0.625 -0.25 0  -0.75 -0.375 0  -0.875 -0.5 0  0.0625 0.3125 0  -0.0625 0.3125 0  -0.875 -0.625 0  -0.3125 0.0625 0  -0.3125 -0.0625 0  -0.625 -0.375 0  -0.5 -0.375 0  -0.625 -0.5 0  0.015625 0.015625 0  0.015625 0 0  -0.015625 0.015625 0  0 0.015625 0  -0.015625 0 0  -0.015625 -0.015625 0  0 -0.015625 0  0.046875 0.015625 0  0.015625 0.046875 0  -0.015625 0.046875 0  0 0.046875 0  -0.046875 0.015625 0  -0.046875 0 0  -0.046875 -0.015625 0  -0.015625 -0.046875 0  0.03125 0.015625 0  0.015625 0.03125 0  -0.015625 0.03125 0  -0.03125 0.015625 0  -0.03125 -0.015625 0  -0.015625 -0.03125 0  0.625 0 0  0.6875 0.0625 0  0.625 0.5 0  0.6875 0.4375 0  -0.1875 0.4375 0  -0.4375 0.1875 0  0.5625 0.4375 0  0.375 0 0  0.4375 0.0625 0  0.5625 0.0625 0  0.5 0.0625 0  0.4375 0.1875 0  0.5625 0.1875 0  -0.1875 0.3125 0  -0.3125 0.1875 0  -0.1875 0.25 0  -0.25 0.1875 0  -0.1875 0.1875 0  -0.3125 0.3125 0  -0.25 0.3125 0  -0.3125 0.25 0  0.3125 0.3125 0  0.3125 0.25 0  0.3125 0.1875 0  0.1875 0.3125 0  0.25 0.1875 0  0.1875 0.25 0  0.1875 0.1875 0  0.3125 0.0625 0  0.25 0.0625 0  -1 -0.875 0  -0.875 -0.75 0  -0.4375 -0.3125 0  -0.75 -0.625 0  -0.875 -0.875 0  -0.8749999999999999 -1 0  0.0078125 0.0078125 0  0.0078125 0 0  -0.0078125 0.0078125 0  0 0.0078125 0  -0.0078125 0 0  -0.0078125 -0.0078125 0  0 -0.0078125 0  -0.75 -0.875 0  -0.625 -0.75 0  -0.6875 -0.6875 0  -0.25 -0.375 0  -0.3125 -0.1875 0  -0.25 -0.1875 0  -0.3125 -0.25 0  -0.1875 -0.1875 0  -0.3125 -0.3125 0  -0.1875 -0.25 0  -0.1875 -0.3125 0  -0.625 -0.875 0  -0.6249999999999999 -1 0  0 -0.375 0  -0.0625 -0.25 0  -0.0625 -0.3125 0  -0.4999999999999999 -0.875 0  -0.5625 -0.6875 0  -0.4375 -0.8125 0  -0.3125 -0.4375 0  -0.1875 -0.4375 0  -0.1875 -0.5 0  -0.1875 -0.5625 0  -0.4374999999999999 -0.9375 0  -0.0625 -0.4375 0  -0.0625 -0.5 0  -0.0625 -0.5625 0  0.375 0.1875 0  0.3125 0.125 0  0.4375 0.125 0  0.125 0.3125 0  -0.125 0.3125 0  -0.1875 0.375 0  -0.3125 0.125 0  -0.375 0.1875 0  -0.125 0.1875 0  -0.1875 0.125 0  0.1875 0.125 0  0.21875 0.09375 0  0.125 0.1875 0  0.15625 0.09375 0  -0.3125 -0.125 0  -0.1875 -0.125 0  -0.375 -0.3125 0  -0.125 -0.1875 0  -0.09375 -0.15625 0  -0.125 -0.3125 0  -0.09375 -0.21875 0  -0.125 -0.4375 0  0.5625 0.125 0  0.0234375 0.0078125 0  0.0078125 0.0234375 0  -0.0078125 0.0234375 0  0 0.0234375 0  -0.0234375 0.0078125 0  -0.0234375 0 0  -0.0234375 -0.0078125 0  -0.0078125 -0.0234375 0  0.015625 0.0078125 0  0.0078125 0.015625 0  -0.0078125 0.015625 0  -0.015625 0.0078125 0  -0.015625 -0.0078125 0  -0.0078125 -0.015625 0  -1 0.625 0  -0.9375 0.6875 0  -0.375 1 0  -0.5 0.875 0  -0.4375 0.9375 0  -0.5625 0.9375 0  -0.625 0.75 0  -0.75 0.625 0  -0.6875 0.6875 0  -0.6875 0.8125 0  -0.8125 0.6875 0  -0.875 0.5 0  -1 0.375 0  -0.9375 0.4375 0  -0.9375 0.5625 0  -0.125 1 0  -0.25 0.875 0  -0.3125 0.9375 0  -0.1875 0.9375 0  -0.4375 0.8125 0  -0.5625 0.6875 0  -0.5625 0.8125 0  -0.6875 0.5625 0  -0.8125 0.4375 0  -0.8125 0.5625 0  -0.875 0.25 0  -1 0.125 0  -0.9375 0.3125 0  -0.9375 0.1875 0  0.125 1 0  0 0.875 0  -0.0625 0.9375 0  0.0625 0.9375 0  -0.3125 0.8125 0  -0.1875 0.8125 0  -0.3125 0.6875 0  -0.1875 0.75 0  -0.1875 0.6875 0  -0.4375 0.5625 0  -0.5625 0.4375 0  -0.4375 0.5 0  -0.5 0.4375 0  -0.4375 0.4375 0  -0.8125 0.3125 0  -0.6875 0.3125 0  -0.8125 0.1875 0  -0.75 0.1875 0  -0.6875 0.1875 0  -0.875 0 0  -1 -0.125 0  -0.9375 0.0625 0  -0.9375 -0.06250000000000001 0  0.1875 0.8125 0  -0.0625 0.8125 0  0.0625 0.6875 0  -0.0625 0.6875 0  0.0625 0.8125 0  0.0625 0.75 0  -0.3125 0.5625 0  -0.25 0.5625 0  -0.3125 0.5 0  -0.1875 0.5625 0  -0.3125 0.4375 0  -0.25 0.4375 0  -0.5625 0.3125 0  -0.5 0.3125 0  -0.5625 0.25 0  -0.4375 0.3125 0  -0.5625 0.1875 0  -0.4375 0.25 0  -0.8125 0.0625 0  -0.6875 0.0625 0  -0.6875 -0.06250000000000001 0  -0.8125 -0.06250000000000001 0  -0.75 -0.06250000000000001 0  0.4375 0.3125 0  0.4375 0.25 0  0.25 0.4375 0  0.1875 0.4375 0  0.1875 0.5625 0  0.1875 0.5 0  0.0625 0.5625 0  -0.0625 0.5625 0  0 0.5625 0  -0.0625 0.5 0  0.0625 0.5 0  -0.5625 0.0625 0  -0.5 0.0625 0  -0.5625 0 0  -0.5625 -0.06250000000000001 0  -0.5 -0.0625 0  -0.8125 -0.1875000000000001 0  0.1875 0 0  0.21875 0.03125 0  -0.0625 0.25 0  0.0625 0.25 0  0 0.1875 0  0.03125 0.21875 0  -0.03125 0.21875 0  0 0.3125 0  0.03125 0.28125 0  -0.03125 0.28125 0  -0.25 0.0625 0  -0.25 -0.0625 0  -0.21875 0.03125 0  -0.21875 -0.03125 0  -0.3125 0 0  -0.28125 0.03125 0  -0.4375 -0.1875 0  -0.4375 -0.25 0  -0.5625 -0.1875 0  -0.5 -0.1875 0  0.00390625 0.00390625 0  0.00390625 0 0  -0.00390625 0.00390625 0  0 0.00390625 0  -0.00390625 0 0  -0.00390625 -0.00390625 0  0 -0.00390625 0  0 -0.1875 0  -0.03125 -0.21875 0  0.375 0.3125 0  0.1875 0.375 0  0.125 0.4375 0  -0.09375 0.21875 0  -0.21875 0.09375 0  0.09375 0.21875 0  0.09375 0.28125 0  0.09375 0.15625 0  0.15625 0.03125 0  0.03125 0.15625 0  -0.03125 0.15625 0  0.03125 0.125 0  -0.375 -0.1875 0  -0.4375 -0.125 0  -0.21875 -0.09375 0  -0.03125 -0.15625 0  0.0625 0.15625 0  -0.125 0.8125 0  -0.3125 0.625 0  -0.625 0.3125 0  -0.375 0.4375 0  -0.4375 0.375 0  -0.8125 0.125 0  0.125 0.5625 0  -0.0625 0.625 0  -0.125 0.5625 0  -0.3125 0.375 0  -0.375 0.3125 0  -0.5625 0.125 0  -0.625 0.0625 0  -0.5625 -0.125 0  0.125 0.8125 0  -0.8125 -0.125 0  -0.03125 0.34375 0  -0.0625 0.375 0  -0.34375 0.03125 0  -0.375 0.0625 0  0.01171875 0.00390625 0  0.00390625 0.01171875 0  -0.00390625 0.01171875 0  0 0.01171875 0  -0.01171875 0.00390625 0  -0.01171875 0 0  -0.01171875 -0.00390625 0  -0.00390625 -0.01171875 0  0.0078125 0.00390625 0  0.00390625 0.0078125 0  -0.00390625 0.0078125 0  -0.0078125 0.00390625 0  -0.0078125 -0.00390625 0  -0.00390625 -0.0078125 0  -0.875 1 0  -1 0.875 0  -0.9375 0.9375 0  -0.8125 0.9375 0  -0.9375 0.8125 0  1 0.875 0  0.875 1 0  0.9375 0.9375 0  0.9375 0.06250000000000008 0  0.9375 0.1875000000000001 0  0.9375 0.3125000000000001 0  0.9375 0.8125 0  0.9375 0.75 0  0.9375 0.6875 0  0.625 1 0  0.8125 0.9375 0  0.75 0.9375 0  0.6875 0.9375 0  0.375 1 0  0.5625 0.9375 0  0.5 0.9375 0  0.4375 0.9375 0  0.3125 0.9375 0  0.25 0.9375 0  0.1875 0.9375 0  0.8125 0.8125 0  0.6875 0.8125 0  0.8125 2.775557561562891e-17 0  0.8125 0.06250000000000003 0  0.75 0.0625 0  0.6
[...]
<CellData  Scalars="w"> 
<DataArray  type="Float64"  Name="w"  format="ascii">3.3354434480922909e-08   2.5694025582702747e-08   3.5920289923483583e-08   2.9218973448068795e-08   3.5496061693796910e-08   2.5829211398649003e-08   4.0279785365504975e-08   3.0290767325504768e-08   5.0128441951891552e-08   2.7456951264819001e-08   5.0295781552234699e-08   4.0976348115911933e-08   3.6778435536122493e-08   4.3158030172107015e-08   6.7319558825199146e-08   4.6703403554809331e-08   2.4564153669742356e-07   7.0613490669625300e-08   7.6263382109614039e-08   2.2542103170208615e-07   4.3847866001044008e-08   6.1144786970278412e-08   2.4202937735393803e-07   5.6720336711299076e-08   4.0491014499779647e-08   2.3432262029526306e-07   5.8092083673893985e-08   4.7640057938616429e-08   7.3854083162182408e-08   1.9878175769894749e-08   6.2379762349235724e-08   9.4689538735913925e-08   7.9123905134130222e-08   1.0465162628419207e-07   6.7948940087702389e-08   9.6347094729242884e-08   5.8896168663180677e-07   1.4001719706566560e-07   1.1881026357405247e-07   5.5560468340966809e-07   1.6482241379078703e-07   2.4807825364625781e-07   6.7329401998807228e-08   2.8540189003821039e-08   6.6734340552757194e-08   6.6997805804085289e-08   9.6976673253653903e-08   7.4468193383315073e-08   5.8807196825626686e-08   6.7777027260396924e-08   5.5212521802816572e-08   4.9392382239056897e-08   1.2218320590245863e-07   9.2318723157582455e-08   5.5496495531716368e-08   8.1256859943058653e-08   1.2122316216820293e-07   1.8276901186078066e-07   7.9214010225350581e-08   1.0481918955262487e-07   6.8050840291346717e-08   9.6484277110242626e-08   7.3910661756336597e-08   1.9912006842677016e-08   6.2417732201170435e-08   9.4747163844280359e-08   9.7544489322130696e-08   7.5864113193941967e-08   5.8507392775735512e-08   6.8580728143885794e-08   6.7573372678742249e-08   2.8972495634630071e-08   6.7044042543212362e-08   6.7423650656936092e-08   5.5351360264144585e-07   1.6481261899182510e-07   2.4753083414494926e-07   5.8729726559052999e-07   1.3998822104378899e-07   1.1868785651161324e-07   5.5639430968516151e-08   8.1351148335176581e-08   1.2143558507223400e-07   1.8249717158781631e-07   5.5360499613322460e-08   4.9517907037474631e-08   1.2238325032325953e-07   9.2554864343074238e-08   5.0546309020493199e-08   4.0094369912528106e-08   7.5497189078095831e-08   5.6296793914863572e-08   4.4127978542520390e-08   6.5944951680521470e-08   5.4162601869953197e-08   5.7225109145384070e-08   5.9200663621666419e-07   1.4402548637533889e-07   1.1382346090406483e-07   5.9179835776976032e-07   1.4370918424155136e-07   1.1361008726995911e-07   4.6496339772569858e-08   6.9562916522273963e-08   5.3178295732148756e-08   5.7113723573127783e-08   6.0810525784817013e-08   4.0147691465128450e-08   7.4575894294004982e-08   5.6063185211149961e-08   8.4614824007929635e-08   6.0141277375443722e-08   1.0860637350284207e-07   7.5679592172257347e-08   8.4752795855085983e-08   6.0405443114779869e-08   1.0790006301440922e-07   7.5570643188186234e-08   3.2609986697548508e-08   7.6167879903980093e-08   4.1633738540304347e-08   3.2367951571795127e-08   2.8248014834667081e-08   4.8472500386031136e-08   2.6516437515310348e-08   1.9089284559912949e-08   9.7426258916985307e-08   9.4997113591438241e-08   9.3217156029928126e-08   6.3520755830321386e-08   3.8992686102307541e-08   5.1183969960422657e-08   1.3450464693513521e-07   9.6855512547855541e-09   2.4917444190808260e-08   9.4976767022232659e-09   7.1185462909090998e-09   3.7772972536291781e-09   5.1446846347054341e-09   1.2633058866662985e-08   9.5897880334318110e-10   2.4467781324530685e-09   9.4916865857714157e-10   7.0397273098508067e-10   3.7518211387568541e-10   5.1237583667082160e-10   1.2491625454442472e-09   9.5639414143477479e-11   2.4320164373751764e-10   9.5514610476887149e-11   7.0449070832463265e-11   3.6540986058981433e-11   5.1118713547826482e-11   1.2375482107391846e-10   8.5021925237014633e-12   2.3460328513550060e-11   1.1268992585242245e-11   7.6133970513871251e-12   3.1280173611268246e-11   1.9359441001320958e-11   1.6538668865905924e-07   3.2428727248957649e-06   1.7499326875957569e-08   1.0438801635618863e-08   2.5453790941155325e-08   2.1519296363063981e-08   1.8114029827550639e-08   1.2192261768338105e-08   1.5479786203595686e-08   1.3091486881515897e-08   1.1058281801028575e-08   1.2980847602519346e-08   1.7782443590709884e-08   2.2405350925120333e-08   7.9295613839127430e-09   1.1185655732021238e-08   5.3772220853151752e-08   1.0657955457636770e-07   8.0414627895109021e-08   2.0825768536010209e-07   2.7374374898403084e-08   4.9187208427544958e-08   2.4634506640205729e-08   1.8918649276105516e-08   9.2106475961909084e-08   9.7266183224294173e-08   9.3223735498593113e-08   7.0498447241485580e-08   3.8899153781872908e-08   4.9946007559833312e-08   1.3446403432254877e-07   9.6398565887034719e-09   2.4775531037805985e-08   9.4580915305839630e-09   7.0827935849837230e-09   3.7757099285999413e-09   5.1295705802126336e-09   1.2628557114775872e-08   9.5808516603229661e-10   2.4442344387580506e-09   9.4827594888766925e-10   7.0326066828301975e-10   3.7517487493706444e-10   5.1203235317837364e-10   1.2490444648734509e-09   9.5615769162353177e-11   2.4313984535974750e-10   9.5488906592381699e-11   7.0432890865495861e-11   3.6541738997291112e-11   5.1108062923107932e-11   1.2375078402615263e-10   8.5014505391621118e-12   2.3458032410100225e-11   1.1268061564877153e-11   7.6129367535138057e-12   3.1279936471438642e-11   1.9358544420210311e-11   1.6536841352998091e-07   3.2428031829651153e-06   1.5723008981739555e-08   1.1781883520846531e-08   1.2102836789634082e-07   2.0476900612301863e-08   1.6666151166846496e-08   1.5594309779928254e-08   3.0768325839905214e-08   6.3838853347587331e-08   5.6251950052151696e-08   2.1170659778235094e-07   1.2483473269317042e-07   1.4163516690553254e-07   1.0350550762978865e-07   1.6618870579196707e-07   6.2236023283313959e-08   3.7675198047669931e-08   1.8473308139701310e-07   1.2534267579838186e-07   1.5765300060516260e-07   1.3348349803381905e-07   9.8062460780819848e-08   2.2958384214024995e-07   5.8036029915690722e-08   5.8876896870447146e-08   2.9291629124606156e-08   4.7561841047700758e-08   1.6707892673388773e-08   3.2297682846710043e-08   3.9031254673402266e-08   2.6678795873380047e-08   9.3358254779881634e-08   9.9495522775916822e-08   2.2994104827470565e-07   5.7620167504475300e-08   5.8645831998174168e-08   3.0760167168454428e-08   9.1744320813786957e-08   1.5698279013461566e-08   3.4340972607247893e-08   3.8593916609812577e-08   2.7451402360389994e-08   9.3189821227457690e-08   1.4350363309876995e-07   1.0433067168086173e-07   1.6809807045689345e-07   6.2866251347628197e-08   3.8592317336422578e-08   1.8560735395007478e-07   1.2594471018278422e-07   1.5830583194219965e-07   1.3349225017004204e-07   1.9582554407961756e-07   1.9577815306299458e-07   2.2804746886162302e-07   5.3188111612123565e-08   1.7248944592128655e-08   2.0134298302079454e-08   3.6371546496317120e-08   6.7857316852557394e-08   3.4183642665346870e-08   5.0555086794245145e-08   9.0852860217415541e-09   1.0646190428961705e-08   7.5854543662991107e-09   1.2621156973159747e-08   1.9711738246782484e-08   2.0452813368263275e-08   7.7731839743578973e-08   1.9898179056682879e-07   1.9586066101301037e-07   2.3743560981009757e-07   6.8463610092111748e-08   5.2367616992860442e-08   8.4549296842337619e-08   6.9004471470073310e-08   3.1893375670302590e-08   5.3762396145671690e-08   5.6228511680862639e-08   6.5459521152680933e-08   8.0977186928260347e-08   8.5022079995352692e-08   1.1964732394200242e-08   1.1347394174182888e-08   1.1165591170109632e-07   1.7026068265189365e-08   3.1032105513051893e-08   1.5415650377875203e-08   4.2362092071771076e-08   6.3582988663491235e-08   6.2123888099367763e-08   1.6675213571142212e-07   1.2581679988252477e-07   1.0654679190381257e-07   6.9043101460840862e-08   3.2325942759462561e-08   1.3980574497852883e-07   4.5266894565915878e-08   6.1350279596214577e-08   2.3749791468870274e-08   3.7979638839856206e-08   2.6075779241256077e-08   3.8120333438201798e-08   2.6150648839542907e-08   5.9445872685365751e-08   1.0769621279989418e-07   3.8393473180051345e-08   3.2658826693385544e-08   5.2628637551005455e-08   4.4483408141769241e-08   9.3937159162363918e-08   4.1668658493883938e-08   1.8740824986730015e-07   2.7793050447224250e-08   3.2081488929808856e-08   3.8523563341420648e-08   4.3059768879842208e-08   2.1922275632623634e-08   6.1570036260532974e-08   1.3161753013480180e-07   8.6929583417306459e-08   1.5082929341758786e-07   6.8539368918492896e-08   4.5014679444170919e-08   1.4637630354789575e-07   4.8423646954177762e-08   1.9906536309323643e-08   1.5940077609857867e-07   1.5830617267668134e-07   1.5265168926447041e-07   6.3532072641868292e-08   6.2094553660950020e-08   1.6661305848599554e-07   1.2572542989665425e-07   1.1954074666010108e-08   1.1335817270485661e-08   1.1152762194530458e-07   1.7009584052218510e-08   3.1000206866288288e-08   1.5400766668322821e-08   4.2322019918958865e-08   2.7754196172842576e-08   3.2042423094098481e-08   3.8477436041734658e-08   4.2963109974623344e-08   2.1897708467809674e-08   6.1498612798247419e-08   1.3135065227291264e-07   3.8355166771743863e-08   3.2640114516762092e-08   5.2596516865249432e-08   4.4443804761263815e-08   9.3913964784285784e-08   4.1651037372805037e-08   1.8753008195589221e-07   2.3758391374556764e-08   3.7996308835853737e-08   2.6089600674015379e-08   3.8142899545877911e-08   2.6172435419286498e-08   5.9507220537891758e-08   1.0773519383428272e-07   1.0662745650864686e-07   6.9094506850965118e-08   3.2343347878422528e-08   1.3991331735746538e-07   4.5284743059350188e-08   6.1428546071376669e-08   4.8388333551813126e-08   1.9896028891430468e-08   1.5929610112843555e-07   1.5809780645697631e-07   1.5249196321638784e-07   8.6892298799678886e-08   1.5078676644041670e-07   6.8531158503827543e-08   4.4991886407820636e-08   1.4632915873418831e-07   9.8347514610526207e-08   1.0811731382777868e-07   8.6528222568045153e-08   1.2997012196321091e-07   6.7732343060948508e-08   7.2967505552020054e-08   5.8661416183763313e-08   1.4128448471846305e-07   3.5707036033678648e-07   6.2267591386547400e-08   4.7676629195035082e-08   3.6804490186623386e-07   3.6592118995308349e-07   3.0282193218063773e-08   2.3626834691840418e-08   3.0106746719901314e-08   3.6376308942988724e-08   3.5460913656821916e-08   3.8757031852683214e-08   3.3498333237623616e-08   4.3512184513067350e-08   3.0271043816888293e-08   2.3623287219033692e-08   3.0097764632784824e-08   3.6374639313051169e-08   3.5444712185268775e-08   3.8736949447269804e-08   3.3486295611510186e-08   4.3500023181148713e-08   3.5722961048127194e-07   6.2077471519716820e-08   4.7576607964191990e-08   3.6876975776721084e-07   3.6626784977977931e-07   9.8575689091443909e-08   1.0866403278521771e-07   8.6695859762834116e-08   1.3007420123224001e-07   6.7838450382111762e-08   7.3009472845148584e-08   5.8730353176692417e-08   1.4141740545204286e-07   7.1144143287639254e-08   5.6706971867486583e-08   7.2234123531043223e-08   9.9098943209439125e-08   5.0789644809321537e-08   4.3922166431092232e-08   5.5075325885873560e-08   4.1626438163695422e-08   7.1091030926591457e-08   5.6706635907284425e-08   7.2193895237905026e-08   9.9112877167598147e-08   5.0756602222904272e-08   4.3911150528480079e-08   5.5030483171451250e-08   4.1599584648241284e-08   7.4107278576549670e-08   1.9129593457461312e-09   7.9215792016992658e-08   1.2881031010917710e-08   8.8040873373462732e-08   1.1414502649061767e-07   1.0695881978852752e-07   1.2661659302139286e-07   5.4108771542475536e-08   5.3099950638300216e-09   5.3906490441849599e-08   6.8576211341634676e-09   8.1231670262456298e-09   1.4748664274077168e-08   1.1082757510902596e-08   1.3481399378002225e-08   9.6512135820047693e-08   1.3172955760218092e-08   1.1089266058210992e-08   1.5383984129479847e-07   1.1553615430294080e-07   1.7046423523406111e-07   3.8161830045975704e-08   1.7206880391925855e-08   1.1369084779607511e-07   1.8922376854539997e-07   6.8405231521868500e-08   3.8512245788645983e-08   2.0396635100394865e-07   7.9002656322769851e-08   9.6229197248689410e-08   7.2135169776997677e-08   1.5367042783579871e-08   8.9271102816332154e-09   1.4519206648574478e-08   2.5158192191808336e-08   1.1054549962592515e-07   1.5579484415031849e-08   2.7286139291665146e-08   1.7860799171497956e-08   4.0995158412406090e-08   1.0927492686600979e-07   9.1861001547924393e-08   4.7081821235299786e-07   3.2741533991126407e-07   1.2797544744310972e-08   1.2467800405913033e-08   1.3880874984093368e-08   1.7055764504079086e-08   1.1916361384179878e-08   2.8292151518012073e-08   1.2212490272492792e-08   1.0837558777931429e-08   6.7749430332188777e-08   8.5341302703022397e-08   7.9423750936673164e-08   1.8811923043049929e-07   1.1690863504686716e-08   7.3127104171082650e-09   1.4376055520005384e-07   2.7190817930980242e-07   1.1398424112220615e-07   7.9525854839454034e-08   1.2820714567497569e-09   3.3625352103839979e-07   4.1713690878950384e-07   3.4891884519366712e-07   2.2484188678906874e-07   1.0235652967792640e-07   6.7272017609096791e-08   1.0038228515600000e-07   7.0488456794080764e-08   5.9963376248624929e-08   9.7339212954070142e-08   7.3530320272686541e-08   1.1133682888465599e-07   1.6995604951776994e-07   1.8195119046123606e-07   2.9344119482041129e-07   3.3209600321078115e-07   2.7649434766799575e-08   1.7680365169186583e-08   7.4481390050369094e-08   5.2215125652434319e-08   9.8719110603626119e-08   1.5475522447208990e-08   1.6415081976556164e-08   2.4037828131023303e-08   2.7818531733542598e-08   1.5511165666937916e-08   1.7983482069489658e-08   1.5925895809446776e-08   3.1751945900097997e-08   5.7293724383988650e-08   5.1272003168861876e-08   1.0511945198737595e-07   1.2716023207555129e-07   6.1623275790907140e-09   1.0457468128828149e-08   1.0856459421277771e-08   1.7946725249495404e-08   6.2310892630592752e-10   1.0555726038211550e-09   1.0861528375913750e-09   1.7957703930280313e-09   6.2485279752923501e-11   1.0533102527306472e-10   1.0917287801053461e-10   1.7947036522265787e-10   6.5161516889149805e-12   1.0786495054098229e-11   1.4431833785363331e-11   1.8863992448610488e-11   2.9543862517904100e-07   1.4203926469515803e-06   1.4996805343782351e-11   1.8461823862201145e-11   4.4246393643479497e-11   4.5020498028468590e-11   1.3428438570215143e-10   4.4690576762590767e-10   4.4296403609367631e-10   1.3636816794216345e-09   4.4856445077341268e-09   4.4162040923413036e-09   1.3694857548185147e-08   4.5118629886026644e-08   4.2693369785097275e-08   1.3064568814756777e-07   3.4198276897638806e-08   3.8801079923123134e-08   2.5739638714914986e-08   3.0459240128804348e-08   3.4564422837218436e-08   4.2692724769799797e-08   1.7803051566784308e-08   1.9450821808491673e-08   5.5677604883973917e-08   5.7719953079102572e-08   4.5438539616988337e-08   4.1686865282400740e-08   5.8731477849324762e-08   6.2175495181837521e-08   3.9588346357640307e-08   1.7273162156351175e-08   8.8509029624007069e-09   8.9902653754685385e-08   6.7736001783676030e-08   1.4648214121285573e-08   2.6570552253336751e-08   1.8230536071666869e-08   1.2792639467902649e-08   3.3189247152866289e-08   1.4682356509818305e-08   1.1769598468898077e-07   2.2094666276844731e-08   2.4581366037066739e-08   5.1387411168695311e-08   2.1636209288331636e-08   3.0028507653866113e-08   3.3125316838344237e-08   2.3010263628024850e-08   2.3807135074235952e-08   2.9416899833651152e-08   3.3611025876623594e-08   3.1712328039379685e-08   3.0365627490427556e-08   4.7930568293988449e-08   4.4213828576212168e-08   4.6526482768237711e-08   4.8691915175668287e-08   7.7305768708554730e-08   8.9264995721745347e-08   5.2899213391896093e-08   5.4292940492238774e-08   7.7948696732918539e-08   7.4701173987049261e-08   7.5289869426686530e-08   8.8375730863428974e-08   7.2000157915665297e-08   7.2251821854887434e-08   4.5703559920025778e-08   4.3533632289344125e-08   1.3697887142741397e-07   1.2721421461849827e-07   1.4789863141786306e-07   1.5545148877531750e-07   1.3643743028668049e-07   1.3112680456253113e-07   2.0347627407668393e-07   1.9744563786580170e-07   9.1925300089501313e-09   9.0224583875586297e-09   1.1118134070473069e-07   9.1077344570052703e-09   1.2004727340020584e-08   6.8551899162462501e-09   1.1966887632527721e-08   8.2323887116247599e-09   7.6497772805645469e-09   1.1815130211960059e-08   1.9588756709923932e-08   7.9314291133272804e-09   7.6535192336507918e-09   1.3627627037484002e-08   1.8576290378899364e-08   1.5810933063039054e-08   1.5379041304891364e-08   1.4157585642638984e-08   1.6142852452227281e-08   1.4755226676970190e-08   1.4471722635728639e-08   1.1709002564540918e-08   1.1238417341035540e-08   2.1848083761901945e-08   2.0217531200179643e-08   2.0621433439217538e-08   2.1346492944130249e-08   2.1008055715608331e-08   1.9771779947988070e-08   2.9223348524292584e-08   2.8662477837768351e-08   2.2333340802720102e-08   2.3457505056044340e-08   2.6230132924112151e-08   2.6516867344173176e-08   2.2295129366381699e-08   4.0929256058809363e-08   1.8198316339270540e-08   2.2115431196088840e-08   3.7518236438751884e-08   3.5150934168341717e-08   3.9028774700151755e-08   3.5524552318952432e-08   3.3802616450636773e-08   3.6091806591080655e-08   3.9796102395276674e-08   3.1701314476299670e-08   1.3476982630570779e-08   1.3755688584276055e-08   1.3776308101867189e-08   1.3926910285476230e-08   1.1600621281830039e-08   1.2050237618056193e-08   1.3918697184177391e-08   1.4348534850893591e-08   1.8006112065485747e-08   1.9369687836995498e-08   1.7122044484862908e-08   1.7225168005192088e-08   2.5918468180468328e-08   2.6557516392413533e-08   1.9504720239139995e-08   2.0627539999645143e-08   2.0634081066919488e-08   1.9619319594543660e-08   5.3429069941303175e-08   1.2076397007503955e-08   1.2732444514984569e-08   1.1990722794890071e-08   1.4743858738679166e-08   5.2985960024456742e-08   6.4699278929826770e-08   6.0571654477405832e-08   6.7143235445771192e-08   1.9570712934809398e-08   2.4090424327407614e-08   2.2514777628874942e-08   1.8896699654463686e-08   1.7926277657279770e-08   2.3086458532363721e-08   1.8517972406539844e-08   1.6635085364886763e-08   2.4245078373476551e-08   2.3680908482113838e-08   2.3650798178391124e-08   1.8670694697758889e-08   6.8896929838921275e-08   8.2480844175156288e-08   1.5240914750888199e-07   4.0875999133308436e-07   1.2984419575676692e-07   3.3720310301271825e-08   1.4099117474231809e-08   3.2760153989311781e-07   4.4221017424515991e-08   3.9791423941087520e-08   1.5073429852216352e-08   1.3975997099644381e-08   2.1259777989453307e-08   1.1815200872753018e-08   2.5349233710382560e-08   1.6037573763411443e-08   2.1131129319792581e-08   2.3718567400189100e-08   1.1401291091706054e-08   1.4593630155432962e-08   9.8614343888527446e-09   1.1867417360384284e-08   5.1166798291139921e-08   1.9247625789580583e-08   2.4593671222092399e-08   8.1317201174539200e-08   1.9856673481065330e-07   3.1318755961207591e-08   7.5219348701513731e-08   7.7706599605789887e-08   8.3668269024257583e-08   4.6258549553981341e-08   4.7717973911137697e-08   2.2100912210758010e-07   3.3458768123480594e-07   2.1128921603419609e-07   9.8149832656081507e-08   1.0196620664446904e-07   2.6913793771081877e-08   5.4514019295683324e-08   6.1598351247392697e-08   4.4484031325562867e-08   1.5616660413037536e-08   8.3197689865155798e-08   6.1071634158687852e-08   9.0491296865638226e-08   8.1768703110589009e-08   7.7188794096254334e-09   2.5983974492757272e-08   3.1634685744952933e-09   8.0835311986057896e-09   6.8196705493134956e-09   8.9202298502041096e-09   7.7600473312099667e-08   2.1518275764084234e-08   3.5572101314027438e-08   2.0651501950421145e-08   1.4811254425620739e-08   1.7948480990934725e-07   2.0008826515091652e-08   1.8177723843050609e-08   2.4041269144961995e-07   6.8927598253505795e-08   3.8683332616193840e-08   8.4988416967026553e-08