<?xml version="1.0"?>
<VTKFile type="UnstructuredGrid"  version="0.1"  >
<UnstructuredGrid>
<Piece  NumberOfPoints="5863" NumberOfCells="11463">
<Points>
<DataArray  type="Float64"  NumberOfComponents="3"  format="ascii">-1 1 0  -0.75 1 0  -1 0.75 0  -0.5 1 0  -0.75 0.75 0  -1 0.5 0  -0.25 1 0  -0.5 0.75 0  -0.75 0.5 0  -1 0.25 0  1 1 0  1 1.110223024625157e-16 0  1 0.2500000000000001 0  1 0.5 0  1 0.75 0  0.75 1 0  0.5 1 0  0.25 1 0  0 1 0  -0.25 0.75 0  -0.5 0.5 0  -0.75 0.25 0  -1 0 0  0.75 0.75 0  0.75 0 0  0.75 0.25 0  0.75 0.5 0  0.5 0.75 0  0.25 0.75 0  0 0.75 0  -0.25 0.5 0  -0.5 0.25 0  -0.75 0 0  -1 -0.2500000000000001 0  0.5 0.5 0  0.5 0 0  0.5 0.25 0  0.25 0.5 0  0 0.5 0  -0.25 0.25 0  -0.5 0 0  -0.75 -0.2500000000000001 0  -1 -0.5 0  0.25 0.25 0  0.25 0 0  0 0.25 0  -1 -0.75 0  -0.25 0 0  -0.5 -0.25 0  -0.75 -0.5 0  -0.9999999999999999 -1 0  0 0 0  -0.75 -0.75 0  -0.25 -0.25 0  -0.5 -0.5 0  -0.7499999999999999 -1 0  0 -0.25 0  -0.5 -0.75 0  -0.25 -0.5 0  -0.4999999999999999 -0.9999999999999999 0  0 -0.5 0  -0.25 -0.75 0  -0.2499999999999999 -0.9999999999999999 0  0 -0.75 0  0 -0.9999999999999999 0  0.375 0.125 0  0.125 0.375 0  -0.125 0.375 0  -0.375 0.125 0  -0.125 0.25 0  -0.25 0.125 0  0.25 0.125 0  0.125 0.25 0  0.125 0.125 0  0.125 0 0  -0.125 0.125 0  0 0.125 0  -0.375 -0.125 0  -0.125 0 0  -0.25 -0.125 0  -0.125 -0.125 0  -0.125 -0.375 0  -0.375 -0.625 0  -0.125 -0.5 0  -0.25 -0.625 0  -0.3749999999999999 -0.875 0  -0.125 -0.625 0  0 -0.625 0  -0.2499999999999999 -0.875 0  -0.125 -0.75 0  -0.1249999999999999 -0.875 0  -0.1249999999999999 -0.9999999999999999 0  0 -0.875 0  -0.375 0.625 0  -0.625 0.375 0  -0.375 0.5 0  -0.5 0.375 0  -0.375 0.375 0  -0.25 0.375 0  -0.375 0.25 0  0.1875 0.0625 0  0.1875 0 0  0.0625 0.1875 0  -0.0625 0.1875 0  0 0.1875 0  -0.1875 0.0625 0  -0.1875 0 0  -0.1875 -0.0625 0  0 -0.125 0  0.0625 0.0625 0  0.0625 0 0  -0.0625 0.0625 0  0 0.0625 0  -0.0625 0 0  -0.0625 -0.0625 0  -0.125 -0.25 0  -0.1875 -0.1875 0  -0.0625 -0.1875 0  0.125 0.0625 0  0.0625 0.125 0  -0.0625 0.125 0  -0.125 0.0625 0  -0.125 -0.0625 0  0.875 0.375 0  0.125 0.875 0  0.625 0.625 0  0.75 0.375 0  0.625 0.125 0  0.625 0.25 0  0.625 0.5 0  0.625 0.375 0  0.375 0.625 0  0.125 0.75 0  0.25 0.625 0  0.125 0.625 0  -0.125 0.625 0  0 0.625 0  -0.125 0.5 0  -0.625 0.125 0  -0.5 0.125 0  -0.625 0 0  0.5 0.375 0  0.375 0.5 0  0.375 0.375 0  0.5 0.125 0  0.125 0.5 0  0.25 0.375 0  -0.625 -0.125 0  -0.5 -0.125 0  -0.625 -0.25 0  -0.625 -0.375 0  -0.375 -0.25 0  -0.5 -0.375 0  0 -0.0625 0  0.03125 0.03125 0  0.03125 0 0  -0.03125 0.03125 0  0 0.03125 0  -0.03125 0 0  -0.03125 -0.03125 0  -0.375 -0.375 0  0.09375 0.03125 0  0.03125 0.09375 0  -0.03125 0.09375 0  0 0.09375 0  -0.09375 0.03125 0  -0.09375 0 0  -0.09375 -0.03125 0  -0.03125 -0.09375 0  0.0625 0.03125 0  0.03125 0.0625 0  -0.03125 0.0625 0  -0.0625 0.03125 0  -0.0625 -0.03125 0  -0.0625 -0.125 0  -0.875 0.875 0  -0.625 1 0  -0.75 0.875 0  -0.875 0.75 0  -1 0.625 0  -0.625 0.875 0  -0.375 1 0  -0.5 0.875 0  -0.875 0.625 0  -0.625 0.75 0  -0.75 0.625 0  -0.875 0.5 0  -1 0.375 0  -0.375 0.875 0  -0.125 1 0  -0.25 0.875 0  -0.625 0.625 0  -0.375 0.75 0  -0.5 0.625 0  -0.875 0.375 0  -0.625 0.5 0  -0.75 0.375 0  -0.875 0.25 0  -1 0.125 0  0.875 0.1250000000000001 0  0.875 0.2500000000000001 0  -0.125 0.875 0  -0.875 0.125 0  -0.75 0.125 0  -0.875 0 0  -1 -0.125 0  0.75 0.125 0  -0.875 -0.125 0  -0.75 -0.125 0  -0.875 -0.2500000000000001 0  0 0.375 0  -0.0625 0.4375 0  -0.375 0 0  -0.4375 0.0625 0  -0.875 -0.375 0  -0.0625 0.3125 0  -0.875 -0.625 0  -0.3125 0.0625 0  -0.75 -0.625 0  -0.625 -0.5 0  0 -0.03125 0  0.015625 0.015625 0  0.015625 0 0  -0.015625 0.015625 0  0 0.015625 0  -0.015625 0 0  -0.015625 -0.015625 0  -0.625 -0.625 0  0.046875 0.015625 0  0.015625 0.046875 0  -0.015625 0.046875 0  0 0.046875 0  -0.046875 0.015625 0  -0.046875 0 0  -0.046875 -0.015625 0  -0.015625 -0.046875 0  0.03125 0.015625 0  0.015625 0.03125 0  -0.015625 0.03125 0  -0.03125 0.015625 0  -0.03125 -0.015625 0  -0.03125 -0.0625 0  1 0.875 0  0.875 0.875 0  1 0.625 0  0.875 0.5 0  0.875 0.75 0  0.875 0.625 0  0.625 1 0  0.75 0.875 0  0.625 0.875 0  0.5 0.875 0  0.375 0.875 0  -0.125 0.75 0  -0.25 0.625 0  -0.1875 0.6875 0  0.75 0.625 0  0.625 0.75 0  0.6875 0.6875 0  0.375 0.75 0  0.5 0.625 0  0.5625 0.6875 0  0.4375 0.6875 0  0.3125 0.6875 0  -0.1875 0.5625 0  0.375 0 0  0.4375 0.0625 0  0.375 0.25 0  0.4375 0.1875 0  0.5625 0.1875 0  0.4375 0.3125 0  0.5 0.1875 0  -0.1875 0.3125 0  -0.3125 0.1875 0  -0.1875 0.25 0  -0.25 0.1875 0  -0.1875 0.1875 0  0.3125 0.1875 0  0.1875 0.3125 0  0.25 0.1875 0  0.1875 0.25 0  0.1875 0.1875 0  0.3125 0.3125 0  0.3125 0.0625 0  0.25 0.0625 0  0.0625 0.3125 0  -0.4375 -0.3125 0  -0.875 -0.875 0  -0.8749999999999999 -1 0  0 -0.015625 0  0.0078125 0.0078125 0  0.0078125 0 0  -0.0078125 0.0078125 0  0 0.0078125 0  -0.0078125 0 0  -0.0078125 -0.0078125 0  -0.75 -0.875 0  -0.625 -0.75 0  -0.25 -0.375 0  -0.3125 -0.1875 0  -0.1875 -0.3125 0  -0.3125 -0.25 0  -0.3125 -0.3125 0  -0.5 -0.625 0  -0.375 -0.5 0  -0.4375 -0.5625 0  -0.4375 -0.4375 0  -0.625 -0.875 0  -0.6249999999999999 -1 0  0 -0.375 0  -0.0625 -0.3125 0  -0.0625 -0.25 0  -0.4999999999999999 -0.875 0  -0.375 -0.75 0  -0.4375 -0.8125 0  -0.1875 -0.4375 0  -0.3125 -0.5625 0  -0.1875 -0.5 0  -0.1875 -0.5625 0  -0.3125 -0.4375 0  -0.3749999999999999 -0.9999999999999999 0  -0.4374999999999999 -0.9375 0  -0.0625 -0.4375 0  0.3125 0.125 0  0.4375 0.125 0  0.125 0.3125 0  -0.125 0.1875 0  -0.1875 0.125 0  0.1875 0.125 0  0.125 0.1875 0  -0.125 -0.4375 0  -0.125 -0.3125 0  -0.375 -0.3125 0  0 -0.046875 0  0.0234375 0.0078125 0  0.0078125 0.0234375 0  -0.0078125 0.0234375 0  0 0.0234375 0  -0.0234375 0.0078125 0  -0.0234375 0 0  -0.0234375 -0.0078125 0  -0.0078125 -0.0234375 0  -0.0078125 -0.0390625 0  0.015625 0.0078125 0  0.0078125 0.015625 0  -0.0078125 0.015625 0  -0.015625 0.0078125 0  -0.015625 -0.0078125 0  -0.015625 -0.03125 0  -0.6875 0.4375 0  1 0.1250000000000001 0  0.875 5.551115123125783e-17 0  0.9375 0.06250000000000008 0  0.9375 0.1875000000000001 0  0.375 1 0  0.125 1 0  0.25 0.875 0  0.1875 0.9375 0  0.3125 0.9375 0  0 0.875 0  0.0625 0.9375 0  -0.0625 0.9375 0  -0.4375 0.4375 0  -0.625 0.25 0  -0.6875 0.3125 0  -0.6875 0.1875 0  -0.8125 0.3125 0  -0.75 0.3125 0  0.625 0 0  0.6875 0.0625 0  0.8125 0.06250000000000003 0  0.75 0.0625 0  0.6875 0.1875 0  0.1875 0.8125 0  0.3125 0.8125 0  0.0625 0.8125 0  -0.0625 0.8125 0  -0.1875 0.4375 0  -0.3125 0.5625 0  -0.3125 0.5 0  -0.3125 0.4375 0  -0.25 0.4375 0  -0.1875 0.5 0  -0.4375 0.1875 0  -0.5625 0.3125 0  -0.5 0.3125 0  -0.4375 0.3125 0  -0.4375 0.25 0  -0.5625 0.1875 0  -0.5 0.1875 0  -1 -0.375 0  0.5625 0.0625 0  0.5 0.0625 0  0.1875 0.4375 0  0.1875 0.5625 0  0.3125 0.4375 0  0.1875 0.5 0  0.25 0.4375 0  0.0625 0.4375 0  0.0625 0.5625 0  0.0625 0.5 0  0 0.4375 0  -0.3125 0.3125 0  -0.25 0.3125 0  -0.3125 0.25 0  -0.4375 -0.0625 0  -0.5625 0.0625 0  -0.5625 -0.06250000000000001 0  -0.5 -0.0625 0  -0.4375 0 0  -0.75 -0.375 0  -0.6875 -0.3125 0  -0.8125 -0.3125 0  -1 -0.625 0  -0.875 -0.5 0  -0.9375 -0.4375 0  -0.9375 -0.5625 0  -0.875 -0.75 0  -0.9375 -0.6875 0  -0.25 0.0625 0  -0.3125 -0.0625 0  -0.25 -0.0625 0  -0.21875 -0.03125 0  -0.3125 0 0  -0.28125 0.03125 0  -0.4375 -0.1875 0  -0.5625 -0.1875 0  -0.5 -0.1875 0  -0.6875 -0.4375 0  -0.8125 -0.4375 0  -0.8125 -0.5625 0  0 -0.0078125 0  0.00390625 0.00390625 0  0.00390625 0 0  -0.00390625 0.00390625 0  0 0.00390625 0  -0.00390625 0 0  -0.00390625 -0.00390625 0  -0.8125 -0.6875 0  -0.25 -0.1875 0  -0.1875 -0.25 0  -0.21875 -0.21875 0  0 -0.1875 0  -0.03125 -0.21875 0  0.125 0.4375 0  0.1875 0.375 0  0.0625 0.375 0  -0.1875 0.375 0  -0.125 0.4375 0  -0.375 0.1875 0  -0.4375 0.125 0  -0.3125 -0.125 0  -0.4375 -0.125 0  -0.375 -0.1875 0  -0.375 -0.0625 0  -0.34375 -0.15625 0  -0.1875 -0.125 0  -0.21875 -0.09375 0  -0.21875 -0.15625 0  -0.28125 -0.15625 0  -0.15625 -0.09375 0  -0.15625 -0.15625 0  -0.09375 -0.15625 0  -0.6875 0.375 0  -0.375 0.4375 0  -0.4375 0.375 0  -0.3125 0.375 0  -0.375 0.3125 0  -0.03125 -0.15625 0  -0.15625 -0.21875 0  -0.09375 -0.21875 0  -0.125 -0.1875 0  0.5625 0.125 0  0.6875 0.125 0  0.125 0.5625 0  -0.5625 0.125 0  0.3125 0.375 0  -0.5625 -0.125 0  -0.34375 0.03125 0  -0.375 0.0625 0  0 -0.0234375 0  0.01171875 0.00390625 0  0.01171875 0 0  0.00390625 0.01171875 0  -0.00390625 0.01171875 0  0 0.01171875 0  -0.01171875 0.00390625 0  -0.01171875 0 0  -0.01171875 -0.00390625 0  -0.00390625 -0.01171875 0  -0.00390625 -0.01953125 0  0.0078125 0.00390625 0  0.00390625 0.0078125 0  -0.00390625 0.0078125 0  -0.0078125 0.00390625 0  -0.0078125 -0.00390625 0  -0.0078125 -0.015625 0  -0.875 1 0  -1 0.875 0  -0.9375 0.9375 0  -0.8125 0.9375 0  -0.9375 0.8125 0  -0.4375 0.6875 0  -0.4375 0.8125 0  -0.5625 0.6875 0  -0.4375 0.75 0  -0.5 0.6875 0  -0.6875 0.5625 0  1 0.3750000000000001 0  0.9375 0.3125000000000001 0  0.9375 0.2500000000000001 0  0.9375 0.4375 0  -0.3125 0.6875 0  -0.25 0.6875 0  -0.4375 0.5625 0  -0.5625 0.4375 0  -0.4375 0.5 0  -0.5 0.4375 0  -0.5625 0.5625 0  -0.5 0.5625 0  -0.5625 0.5 0  -0.8125 0.1875 0  0.8125 0.3125 0  0.75 0.3125 0  0.6875 0.25 0  0.6875 0.3125 0  0.8125 0.4375 0  0.6875 0.5625 0  0.6875 0.5 0  0.6875 0.4375 0  0.1875 0.6875 0  0.0625 0.75 0  0.0625 0.6875 0  -0.0625 0.6875 0  0 0.6875 0  -0.6875 0.0625 0  -0.6875 0 0  -0.6875 -0.06250000000000001 0  -0.8125 0.0625 0  -0.75 0.0625 0  -0.8125 -0.06250000000000001 0  -0.75 -0.06250000000000001 0  0.5625 0.5625 0  0.5625 0.5 0  0.5625 0.4375 0  0.4375 0.5625 0  0.5 0.4375 0  0.4375 0.5 0  0.4375 0.4375 0  0.5 0.5625 0  0.5625 0.25 0  0.5625 0.3125 0  0.5 0.3125 0  0.3125 0.5625 0  0.25 0.5625 0  0.3125 0.5 0  -0.0625 0.5625 0  0 0.5625 0  -0.0625 0.5 0  -0.6875 -0.1875000000000001 0  -0.8125 -0.1875000000000001 0  -0.75 -0.1875000000000001 0  0.3125 0.25 0  0.28125 0.21875 0  0.3125 0 0  0.28125 0.03125 0  -0.0625 0.25 0  0.0625 0.25 0  0.03125 0.21875 0  -0.03125 0.21875
[...]
<CellData  Scalars="w"> 
<DataArray  type="Float64"  Name="w"  format="ascii">6.8668437316015864e-11   7.2082146375553268e-11   6.8294655010515633e-11   7.3465416005132898e-11   6.6280324264975401e-11   6.2536021986931906e-11   6.6330344764043684e-11   7.0845013355359159e-11   1.3103313225578041e-10   5.9683713390212268e-11   3.1317144996984597e-10   5.3709593138916478e-11   5.7463365793680714e-11   5.3674974437221825e-11   4.8251893320038204e-11   1.2583984521239975e-10   6.9371538429339655e-11   3.7453064048965815e-10   6.6399240501372741e-11   7.1872360175679383e-11   6.6041687745565775e-11   6.6848093918273281e-11   4.3444778567443824e-10   5.9710472083839661e-11   1.4263029822830801e-10   6.8765626576921791e-11   1.3585348803861545e-10   2.7980741262984057e-10   6.8663414954071261e-11   7.2073150496934310e-11   6.8289204891189538e-11   7.3462230577976807e-11   6.6278302586648153e-11   6.2536105444232015e-11   6.6328446219354081e-11   7.0845186492846545e-11   1.3102891237137112e-10   5.9682157807969568e-11   3.1314910556805889e-10   5.3708953343934265e-11   5.7463383503810956e-11   5.3674328852709679e-11   4.8251894151622280e-11   1.2581759326767183e-10   6.9361542478456509e-11   3.7448621527826667e-10   6.6384629611102048e-11   7.1857378672834523e-11   6.6026669874365269e-11   6.6828193312642620e-11   4.3440913312326618e-10   5.9708964348028077e-11   1.4262459077497714e-10   6.8755718884101599e-11   1.3583762028981231e-10   2.7978638089191295e-10   7.5033995890582569e-11   7.6239416519090872e-11   7.5600618862037639e-11   8.4174967231929627e-11   7.1635902040730901e-11   7.0019845410050854e-11   7.3609700441707429e-11   8.2892772981022941e-11   8.8324473176386458e-11   8.5185556493718399e-11   8.9885110569516663e-11   7.9486379728180740e-11   9.3687591447799330e-11   9.0882959693995315e-11   9.4411945346477193e-11   1.0098285134495394e-10   8.0499504128344844e-11   7.9887479052814959e-11   8.5517719413945516e-11   9.6949507084532642e-11   8.4390996268642464e-11   8.4347887077906700e-11   8.6799921697050549e-11   9.6579556804301591e-11   9.2134465833264146e-11   9.5054763564306453e-11   9.0448579252797041e-11   8.1175712855026786e-11   9.8786551220148015e-11   1.0108862849465381e-10   9.6779905587046737e-11   1.0399746605634434e-10   8.2338844652779521e-11   8.7500753108949235e-11   8.3298353706664596e-11   8.6325918361078706e-11   7.7977621291934736e-11   7.0180473945902659e-11   7.8531072445356870e-11   8.1710807217879660e-11   9.2255359296717107e-11   8.6687167309480242e-11   9.1123564973788159e-11   8.7705629988097321e-11   9.5559534924821419e-11   8.9436547743055472e-11   9.6038154899707491e-11   9.9267838258352250e-11   9.8035706015119318e-11   9.2343015045569034e-11   9.8134197516760267e-11   1.0262115800642509e-10   1.0362734900954592e-10   1.0984937335206406e-10   1.0410833805216419e-10   1.0922800415513211e-10   9.7288634643533198e-11   1.0356031204305137e-10   9.7036066400866342e-11   9.3127928435842808e-11   1.0115954349558189e-10   1.0801374772652853e-10   1.0251582331294792e-10   1.0631329651126705e-10   8.2313055001346492e-11   8.7475224574755437e-11   8.3272414337793018e-11   8.6292127781204557e-11   7.7950945623767319e-11   7.0155793107272570e-11   7.8505420675723314e-11   8.1678236554955847e-11   9.2221594614368776e-11   8.6654612305753011e-11   9.1089920651324727e-11   8.7681309438163491e-11   9.5515149542736731e-11   8.9395626719220752e-11   9.5995387656911659e-11   9.9213355696033883e-11   9.8015194706388907e-11   9.2319277188687717e-11   9.8114926528270250e-11   1.0258982450779105e-10   1.0361145168146260e-10   1.0984145362480106e-10   1.0409470780969687e-10   1.0920221112005950e-10   9.7256631422885886e-11   1.0353035451067010e-10   9.7002280914161122e-11   9.3105017483462086e-11   1.0111408160440495e-10   1.0796784179804569e-10   1.0247007364046812e-10   1.0625120095565543e-10   7.4997182113586181e-11   7.6197806742943931e-11   7.5564744213505727e-11   8.4135027831841153e-11   7.1604730274601985e-11   6.9994487035496538e-11   7.3579431854165461e-11   8.2859406410340331e-11   8.8279089221021421e-11   8.5146632394877884e-11   8.9838339860394371e-11   7.9445338213301411e-11   9.3637442456138715e-11   9.0841046535860334e-11   9.4362510869609794e-11   1.0092645700288856e-10   8.0453699673027622e-11   7.9842395887674617e-11   8.5471062193752049e-11   9.6894912463270185e-11   8.4346842139767400e-11   8.4308751400420234e-11   8.6755146948626400e-11   9.6527812065417791e-11   9.2083267567826545e-11   9.5001408197724362e-11   9.0397684659876354e-11   8.1131329224808917e-11   9.8727812507741252e-11   1.0102618893896524e-10   9.6723467603834539e-11   1.0392971726070694e-10   8.4124654481123181e-11   8.8785084733876569e-11   8.4459697720056042e-11   8.8338751724020797e-11   8.0351019434481256e-11   8.4518968360589169e-11   8.0335329945907800e-11   7.6807608669249829e-11   9.3186729758876531e-11   8.8800424992499966e-11   9.3587069115188963e-11   8.8419242281765251e-11   9.8547801836696552e-11   9.3607595472327485e-11   9.8565757478438257e-11   1.0412660750869238e-10   7.9842801554512505e-11   7.5408468137232374e-11   7.9913181640330367e-11   8.3396784644902946e-11   7.6457235478318133e-11   7.2093030095700155e-11   7.6177541503587348e-11   7.3488146530718201e-11   7.9223680944035142e-11   7.5988672556910356e-11   7.9367161197795495e-11   8.4058367255164746e-11   7.5355227811100457e-11   7.2015346011828905e-11   7.6177852547656990e-11   6.8020962373104379e-11   8.4115139391537614e-11   8.8779780014104300e-11   8.4451077437471086e-11   8.8322998921607141e-11   8.0347164653605437e-11   8.4519486297398853e-11   8.0331253107430510e-11   7.6807901383195724e-11   9.3174243907807509e-11   8.8795421299857786e-11   9.3576026259929573e-11   8.8404336735958186e-11   9.8541022388397214e-11   9.3608415255892610e-11   9.8559398813555767e-11   1.0412784832128695e-10   7.9830767746356531e-11   7.5394761281156557e-11   7.9901740027070597e-11   8.3378719676358915e-11   7.6450570070799059e-11   7.2084389124102171e-11   7.6170352190651331e-11   7.3485146670844691e-11   7.9204069343230373e-11   7.5975170804904027e-11   7.9348397853582965e-11   8.4040767213397074e-11   7.5335094362148170e-11   7.2000988038747181e-11   7.6157411944459362e-11   6.8001756949587372e-11   2.9368630436998598e-10   1.3256408726271442e-10   3.2370138137981266e-10   8.0166416238774103e-11   9.4626163687917107e-11   1.1708353987716254e-10   1.3095876444744398e-10   1.2455135270220226e-10   1.3745719180600510e-10   1.3652121303270900e-10   1.1376831077307750e-10   1.3662055387685670e-10   1.4332765971703628e-10   1.5315291312892308e-10   1.0277579517512004e-10   7.6334412895773761e-11   8.9080661850603684e-11   1.1518665558013160e-10   1.1825768968993707e-10   8.3316096451420660e-11   7.7208857051060531e-11   1.1394937265209665e-10   1.2096726304470867e-10   1.4250936892907210e-10   1.3651795671873289e-10   1.3080350430232279e-10   1.2944070572487334e-10   9.3815073478061252e-11   3.2850690578706322e-11   5.2923190269714882e-11   1.4293913934322864e-10   5.0105073307384504e-11   2.1065902396124641e-11   1.3264287097611746e-10   1.4682857192327342e-10   1.3665796501486167e-10   1.3935602935261076e-10   1.2447110191458307e-10   1.2330343283598243e-10   1.3124710271457704e-10   1.2782243821268202e-10   1.5596528291797401e-10   1.4613991375729499e-10   1.5319401971260047e-10   1.5905593137505406e-10   1.5132082207972912e-10   1.4275902495960526e-10   1.6600795587542646e-10   1.5543547341104523e-10   2.0565149524010809e-10   1.8632286635381668e-10   1.8130759552023287e-10   1.6335678038933020e-10   1.4518316909487997e-10   2.4724617761081401e-11   6.1320679482714778e-11   1.4855951991477249e-10   1.9265774668236630e-10   1.6900654716797812e-10   5.6773884913446685e-11   2.2908794687574151e-11   1.1061429436092311e-10   3.5810062011721324e-11   6.0063797342041883e-11   1.8091706593927849e-10   1.2162081966352035e-10   1.6504069845122034e-10   1.6964640642958527e-10   1.9381264872458977e-10   2.4207006423056477e-10   2.1196723100375830e-10   2.1062726800083755e-10   6.3597986465472812e-11   3.0616955942854816e-11   2.5639057282179373e-10   4.2583059137700684e-11   2.8675848383070737e-11   4.3670233281660971e-11   3.5176249152200058e-11   2.4738547738971317e-10   2.1411934014311989e-10   2.3346921946293444e-10   2.1798562191780852e-10   2.4415788475448116e-10   7.2887289656064808e-11   4.3717726721547863e-11   2.1921322810910128e-10   1.4317137180303995e-10   2.3740625095209145e-10   1.9996008533835636e-10   2.1724367444611865e-10   2.0728702046163270e-10   3.7741082168390561e-11   6.5864991017317373e-11   2.9183272022315224e-11   3.4802459514412343e-11   3.2483304774601815e-11   4.2462425947400799e-11   2.4574394785455709e-11   3.1670685949122486e-11   1.9354408853220425e-10   2.0458982557535851e-10   1.9976564474556104e-10   2.0221198827640088e-10   1.8758264387458012e-10   1.8600142583793641e-10   1.8523711593389828e-10   1.8488639662646144e-10   2.4667461524900811e-10   2.9496258123331843e-10   2.3970807557271256e-10   2.7018719699309323e-10   2.6710244183665033e-10   3.2673078189122323e-10   3.0558741546805621e-10   2.7098195061758492e-10   2.7481511945697037e-10   2.8852759145452349e-10   2.7455192574407671e-10   2.6293179276349219e-10   2.9594165929773800e-10   3.1158809438176262e-10   2.9349539375137421e-10   3.2036193894324293e-10   3.0558987034393387e-11   2.2684731606128656e-11   3.4540942122207772e-11   2.7133252960384277e-11   3.1909104222775374e-11   6.2317365017948109e-11   2.5999925041025970e-11   3.3248909553667345e-11   5.3000537563035455e-11   4.1206824902145976e-11   2.2694020268498252e-10   3.4062880340971059e-11   3.6148067640323900e-11   2.5558842096100797e-11   2.9096506852816563e-11   1.8388000329544107e-10   2.9553110264998705e-11   4.5006796525627080e-11   1.8739476717560838e-10   2.0224067719428745e-10   2.1007415487257547e-10   2.0381836442618164e-10   2.0557606190558105e-10   1.7968794306804761e-10   9.0608619958719800e-11   8.8368994133394004e-11   9.7273900858033667e-11   1.0754031178170652e-10   8.7198868580001997e-11   8.8471001107701380e-11   9.7967676472197941e-11   1.1183410793239838e-10   1.1376889043411057e-10   1.1502891386026231e-10   1.1246052980905007e-10   1.0161322851050744e-10   3.4157104460146334e-10   1.3073336065449461e-10   6.2387518092048799e-10   8.5850290976588668e-11   9.3303327950693417e-11   1.0682236314639174e-10   1.1590998532401285e-10   3.4309557071140066e-10   1.2896419107034125e-10   3.1488788262054401e-10   1.3593880188907794e-10   1.2176178537031562e-10   1.1630534180523957e-10   1.0279529547384318e-10   1.9093369259217185e-10   3.4593190235092366e-10   6.1403601369593654e-10   1.1231175993189996e-10   1.2460225000167663e-10   1.1632281249389091e-10   1.1813802400898291e-10   1.0312875663993880e-10   9.2495089575778109e-11   1.0706669477440648e-10   1.0925539229353406e-10   1.2463703261431428e-10   1.2029172196330312e-10   1.2493191360081288e-10   1.3212222269292135e-10   1.1774264022412332e-10   1.2319467934652212e-10   1.2836228126493013e-10   1.8206431013967165e-10   6.1646899246675205e-10   3.6584481158162896e-10   1.4950366155911318e-10   1.4798188418076935e-10   1.6404730682489997e-10   1.5335897814175838e-10   1.5764661126071573e-10   1.2948496127409102e-10   1.5231109755151036e-10   1.3035002116926434e-10   2.1415087487920736e-10   1.3640285249807345e-10   1.5289696834866569e-10   1.4526344292840212e-10   1.5543219017727358e-10   1.5077764191356719e-10   1.7322428326167894e-10   1.6230687409487614e-10   1.5929864301498203e-10   1.6439368706529131e-10   1.7210680877853472e-10   1.7069985976654498e-10   1.5613102555454927e-10   1.8085539120261677e-10   1.8934141475894924e-10   1.5604910721416508e-10   1.6150880201144941e-10   3.5902994625729185e-11   6.2762189319153230e-11   1.5180272605662981e-10   3.4449896089464513e-11   9.2454096142482546e-11   1.5318649024165342e-11   3.2373568542588042e-11   6.8250907098051027e-10   3.9887050244521438e-10   1.5843876332548605e-10   6.7039527668786806e-10   1.9351105784875431e-10   3.5547346330282178e-10   1.2953543366159471e-10   1.6683457189523932e-10   1.2784972031351378e-10   1.5406380702275606e-10   1.2275677904985982e-10   1.4362195159128451e-10   1.2827286310415015e-10   1.2195906620646997e-10   1.8133187619346856e-10   1.7944657826298839e-10   1.7566925273844231e-10   1.9231112353543087e-10   1.6694396594189172e-10   1.6770579250497229e-10   1.6002348097393401e-10   1.4208662507126976e-10   2.0681515641088856e-10   1.8911129310961709e-10   1.9942839544898075e-10   1.9936813343421092e-10   1.8447272543648281e-10   1.7650490793600745e-10   2.1905970627599097e-10   5.7464193892866946e-11   2.5851875900768784e-11   1.7059750882277429e-10   1.6921830175610443e-10   1.7578523794336635e-10   1.9093419257864310e-10   1.5798777102582693e-10   1.5757867291908399e-10   1.6178323131689560e-10   1.5331141800011618e-10   1.7844819691314810e-10   1.6418258346974263e-10   1.8264683045798639e-10   1.8479600563808918e-10   1.7509753870816820e-10   1.6029808274025889e-10   1.7010415496355867e-10   1.6745691321098418e-10   7.2377819894560880e-10   1.3736564139713052e-10   1.5865503280533126e-10   1.2353945183763943e-10   1.1094580014270049e-10   1.4858452648453222e-10   1.3443688881949617e-10   1.5998180252749255e-10   1.3278331038258074e-10   1.6739996051137411e-10   4.1252631842118241e-10   1.5016808574509189e-10   1.3789608019322362e-10   1.6469174399236908e-10   1.5726164462843654e-10   1.7341156027911123e-10   1.5614041829509757e-10   1.8767788717989373e-10   1.8284257358774467e-10   1.9744359422313516e-10   2.1480300965478516e-10   2.0337337937883182e-10   1.9757153895270668e-10   1.7570232196186876e-10   1.8792732909855202e-10   1.6820384936477322e-10   1.6897678989399798e-10   1.7143151900969102e-10   1.8203182233993160e-10   1.7274234772550112e-10   1.6554981228412264e-10   2.9191134478824747e-10   1.3275690755676950e-10   3.2399114510039141e-10   8.3074760560901789e-11   9.3506422511254731e-11   1.1917041000170366e-10   1.3114590372323201e-10   1.2467403168537652e-10   1.3658675093719567e-10   1.3824496901561215e-10   1.1460087779556500e-10   1.3574426978337252e-10   1.4225849878798872e-10   1.4927915014012927e-10   1.5839268542451284e-10   1.3304222980751326e-10   8.7603622969727559e-11   2.6467628699129209e-11   1.3433798762298162e-11   1.2942576760250229e-11   2.2958201776627934e-11   1.5247192018560518e-11   3.2737719230728198e-12   5.9225145832058736e-11   2.2397024451425040e-11   2.5419002880495747e-11   5.8417735906599084e-11   2.2434268624481408e-11   1.4195703209359863e-10   1.2764639689496050e-10   1.4405547055955124e-10   1.5522866953219225e-10   1.3844382681245381e-10   1.2613698769527789e-10   1.3419372773197328e-10   1.2811932579697796e-10   1.1226357390460637e-10   1.2454052041710260e-10   1.1627768853790614e-10   1.1811508426935380e-10   1.0309246375017298e-10   9.2459437610826794e-11   1.0702548852451272e-10   1.0923007009515532e-10   1.2460240907573671e-10   1.2025918079270026e-10   1.2488581378473531e-10   1.3203971961728169e-10   1.1772857747783894e-10   1.2318911209545338e-10   1.2832177082705659e-10   1.8211700760785882e-10   3.6546487821450849e-10   1.4946581127770381e-10   6.1595174740415097e-10   1.5311566076627617e-10   1.5776200640470798e-10   1.4773263461347873e-10   1.6345291316390223e-10   1.3636453692744554e-10   1.5298468602984806e-10   1.4520783325980778e-10   1.5520636212029559e-10   1.2945877062867829e-10   1.5233759163104797e-10   1.3031507183827928e-10   2.1408503638820738e-10   9.0568845043989157e-11   8.8249758405100094e-11   9.7235474136891182e-11   1.0756071522260779e-10   8.7168355831930641e-11   8.8437588618149342e-11   9.7942336397734266e-11   1.1182112912256086e-10   1.1389537526225763e-10   1.1503616858787099e-10   1.1275715637419023e-10   1.0167212080386653e-10   3.4164293024233832e-10   1.3073232500890722e-10   6.2344972886596804e-10   8.9493562786718111e-11   9.3761483317723283e-11   1.0747171340031844e-10   1.1703182038984999e-10   9.4381318823953225e-11   8.9121690516996521e-11   1.0670285106775510e-10   1.2061462771240832e-10   1.3627798362618849e-10   1.2424525923116415e-10   1.1700604689735463e-10   1.0223522062925602e-10   1.9127063386198041e-10   3.4712326678186166e-10   6.1374236621980632e-10   2.7051552016131796e-10   2.9846300858264447e-10   2.6838324997492439e-10   2.5355179041527556e-10   2.8424526062517872e-10   3.3164260503314433e-10   2.9301127451450877e-10   2.9459930629705581e-10   2.7276696671197803e-10   2.9247323564637724e-10   2.7224500797874878e-10   2.4909762904760031e-10   2.9608664093205097e-10   3.1351365724166694e-10   2.9344741044058064e-10   3.2053004936688314e-10   2.4850486165695801e-10   2.2566021256279171e-10   2.4225948628197023e-10   2.3134491499065100e-10   2.5748364678592449e-10   2.3271376883908549e-10   2.6214384306324991e-10   2.6796883301516579e-10   2.1436030336211788e-10   2.2263631170525997e-10   2.0957631811751499e-10   2.2977041200307681e-10   1.9602524785071731e-10   2.0248174021226207e-10   1.9381923466048523e-10   1.7726379455484959e-10   2.4055352996924803e-10   2.4210493255008405e-10   2.3291483775684864e-10   2.1142411937526373e-10   2.6505445767246688e-10   2.6836210343378305e-10   2.5554077778611710e-10   2.8252528798150639e-10   2.2885946088753641e-10   2.5159397561172005e-10   2.1939896522682234e-10   2.1908531433945583e-10   2.2757402962195515e-10   2.5095808033146162e-10   2.3611875333020559e-10   2.3280593992416853e-10   2.2234963780099363e-10   2.1806189717821973e-10   2.2997088857054951e-10   2.0955000521770002e-10   2.4523734799737610e-10   2.3982890429156331e-10   2.5100120598887116e-10   2.7623553252938520e-10   1.9439315671926490e-10   2.1364000776331450e-10   2.0064611091590963e-10   2.0375938092513664e-10   1.9009066692693270e-10   2.0820650001509100e-10   1.8671281319218788e-10   1.8180721808333871e-10   1.8251439361311149e-10   1.8170775328173909e-10   1.7645580731015778e-10   1.9298617384837717e-10   1.6734696180089681e-10   1.6739216964149737e-10   1.5987531558252466e-10   1.4152558953653394e-10   2.0699635626933220e-10   1.8997173373902663e-10   1.9985059433662902e-10   2.0017316867972167e-10   2.0509544058180358e-10   1.8776960197895736e-10   2.1595646448197524e-10   2.1265433366441995e-10   1.7112026427454770e-10   1.6968179283616142e-10   1.7647187579547371e-10   1.9212220719936102e-10   1.5807832236723413e-10   1.5774420049227347e-10   1.6192976462230134e-10   1.5323472625041505e-10   1.7926611747406354e-10   1.6448753747315513e-10   1.8355479801788591e-10   1.8586136540839271e-10   1.7565051129204312e-10   1.6039594687090433e-10   1.7028721675838166e-10   1.6643551978529330e-10   1.5018910246001909e-10   1.6866264129393941e-10   1.6724135726312544e-10   1.8126558423887453e-10   1.6309259165120911e-10   1.7201878132601918e-10   1.6805489199498848e-10   1.5503448700115766e-10   1.7682782352635481e-10   1.7864718508106377e-10   1.8014692337926030e-10   1.7320507976598357e-10   1.9083337936889936e-10   1.9415850352524346e-10   2.0249370043662944e-10   2.1983742809836431e-10   6.5026759102533016e-10   3.7736654518318920e-10   1.9051817530862224e-10   6.5613265471668622e-10   1.9387899222936102e-10   3.5461354905785604e-10   3.5838523225083511e-10   1.8807894103451221e-10   7.1688323666865175e-10   1.3061497614589269e-10   1.4479763613368372e-10   1.1857735369153251e-10   1.1093220073278623e-10   1.2252338712087239e-10   1.2204375762033248e-10   1.2653055688411942e-10   3.2929176169061990e-10   1.1820665674578643e-10   1.2483184230586059e-10   1.1736553773449700e-10   1.1279708303752831e-10   2.2273823747913848e-10   1.2681644928048714e-10   6.0223359982758496e-10   1.5454323552428215e-10   1.4224656568424334e-10   1.5276998987893787e-10   1.6135074484874436e-10   1.1118659702419935e-10   1.0389563504458746e-10   1.1350402380164156e-10   1.1417685605976722e-10   1.1017397641689766e-10   1.0243250265302938e-10   1.0775832980106331e-10