<?xml version="1.0"?>
<VTKFile type="UnstructuredGrid"  version="0.1"  >
<UnstructuredGrid>
<Piece  NumberOfPoints="11379" NumberOfCells="22411">
<Points>
<DataArray  type="Float64"  NumberOfComponents="3"  format="ascii">-1 1 0  -0.75 1 0  -1 0.75 0  -0.5 1 0  -0.75 0.75 0  -1 0.5 0  -0.25 1 0  -0.5 0.75 0  -0.75 0.5 0  -1 0.25 0  1 1 0  1 1.110223024625157e-16 0  1 0.2500000000000001 0  1 0.5 0  1 0.75 0  0.75 1 0  0.5 1 0  0.25 1 0  0 1 0  -0.25 0.75 0  -0.5 0.5 0  -0.75 0.25 0  -1 0 0  0.75 0.75 0  0.75 0 0  0.75 0.25 0  0.75 0.5 0  0.5 0.75 0  0.25 0.75 0  0 0.75 0  -0.25 0.5 0  -0.5 0.25 0  -0.75 0 0  -1 -0.2500000000000001 0  0.5 0.5 0  0.5 0 0  0.5 0.25 0  0.25 0.5 0  0 0.5 0  -0.25 0.25 0  -0.5 0 0  -0.75 -0.2500000000000001 0  -1 -0.5 0  0.25 0.25 0  0.25 0 0  0 0.25 0  -1 -0.75 0  -0.25 0 0  -0.5 -0.25 0  -0.75 -0.5 0  -0.9999999999999999 -1 0  0 0 0  -0.75 -0.75 0  -0.25 -0.25 0  -0.5 -0.5 0  -0.7499999999999999 -1 0  0 -0.25 0  -0.5 -0.75 0  -0.25 -0.5 0  -0.4999999999999999 -0.9999999999999999 0  0 -0.5 0  -0.25 -0.75 0  -0.2499999999999999 -0.9999999999999999 0  0 -0.75 0  0 -0.9999999999999999 0  0.375 0.125 0  0.125 0.375 0  -0.125 0.375 0  -0.375 0.125 0  -0.125 0.25 0  -0.25 0.125 0  0.25 0.125 0  0.125 0.25 0  0.125 0.125 0  0.125 0 0  -0.125 0.125 0  0 0.125 0  -0.375 -0.125 0  -0.125 0 0  -0.25 -0.125 0  -0.125 -0.125 0  -0.125 -0.375 0  -0.375 -0.625 0  -0.125 -0.5 0  -0.25 -0.625 0  -0.3749999999999999 -0.875 0  -0.125 -0.625 0  0 -0.625 0  -0.2499999999999999 -0.875 0  -0.125 -0.75 0  -0.1249999999999999 -0.875 0  -0.1249999999999999 -0.9999999999999999 0  0 -0.875 0  -0.375 0.625 0  -0.625 0.375 0  -0.375 0.5 0  -0.5 0.375 0  -0.375 0.375 0  -0.25 0.375 0  -0.375 0.25 0  0.1875 0.0625 0  0.1875 0 0  0.0625 0.1875 0  -0.0625 0.1875 0  0 0.1875 0  -0.1875 0.0625 0  -0.1875 0 0  -0.1875 -0.0625 0  0 -0.125 0  0.0625 0.0625 0  0.0625 0 0  -0.0625 0.0625 0  0 0.0625 0  -0.0625 0 0  -0.0625 -0.0625 0  -0.125 -0.25 0  -0.1875 -0.1875 0  -0.0625 -0.1875 0  0.125 0.0625 0  0.0625 0.125 0  -0.0625 0.125 0  -0.125 0.0625 0  -0.125 -0.0625 0  0.875 0.375 0  0.125 0.875 0  0.625 0.625 0  0.75 0.375 0  0.625 0.125 0  0.625 0.25 0  0.625 0.5 0  0.625 0.375 0  0.375 0.625 0  0.125 0.75 0  0.25 0.625 0  0.125 0.625 0  -0.125 0.625 0  0 0.625 0  -0.125 0.5 0  -0.625 0.125 0  -0.5 0.125 0  -0.625 0 0  0.5 0.375 0  0.375 0.5 0  0.375 0.375 0  0.5 0.125 0  0.125 0.5 0  0.25 0.375 0  -0.625 -0.125 0  -0.5 -0.125 0  -0.625 -0.25 0  -0.625 -0.375 0  -0.375 -0.25 0  -0.5 -0.375 0  0 -0.0625 0  0.03125 0.03125 0  0.03125 0 0  -0.03125 0.03125 0  0 0.03125 0  -0.03125 0 0  -0.03125 -0.03125 0  -0.375 -0.375 0  0.09375 0.03125 0  0.03125 0.09375 0  -0.03125 0.09375 0  0 0.09375 0  -0.09375 0.03125 0  -0.09375 0 0  -0.09375 -0.03125 0  -0.03125 -0.09375 0  0.0625 0.03125 0  0.03125 0.0625 0  -0.03125 0.0625 0  -0.0625 0.03125 0  -0.0625 -0.03125 0  -0.0625 -0.125 0  -0.875 0.875 0  -0.625 1 0  -0.75 0.875 0  -0.875 0.75 0  -1 0.625 0  -0.625 0.875 0  -0.375 1 0  -0.5 0.875 0  -0.875 0.625 0  -0.625 0.75 0  -0.75 0.625 0  -0.875 0.5 0  -1 0.375 0  -0.375 0.875 0  -0.125 1 0  -0.25 0.875 0  -0.625 0.625 0  -0.375 0.75 0  -0.5 0.625 0  -0.875 0.375 0  -0.625 0.5 0  -0.75 0.375 0  -0.875 0.25 0  -1 0.125 0  0.875 0.1250000000000001 0  0.875 0.2500000000000001 0  -0.125 0.875 0  -0.875 0.125 0  -0.75 0.125 0  -0.875 0 0  -1 -0.125 0  0.75 0.125 0  -0.875 -0.125 0  -0.75 -0.125 0  -0.875 -0.2500000000000001 0  0 0.375 0  -0.0625 0.4375 0  -0.375 0 0  -0.4375 0.0625 0  -0.875 -0.375 0  -0.0625 0.3125 0  -0.875 -0.625 0  -0.3125 0.0625 0  -0.75 -0.625 0  -0.625 -0.5 0  0 -0.03125 0  0.015625 0.015625 0  0.015625 0 0  -0.015625 0.015625 0  0 0.015625 0  -0.015625 0 0  -0.015625 -0.015625 0  -0.625 -0.625 0  0.046875 0.015625 0  0.015625 0.046875 0  -0.015625 0.046875 0  0 0.046875 0  -0.046875 0.015625 0  -0.046875 0 0  -0.046875 -0.015625 0  -0.015625 -0.046875 0  0.03125 0.015625 0  0.015625 0.03125 0  -0.015625 0.03125 0  -0.03125 0.015625 0  -0.03125 -0.015625 0  -0.03125 -0.0625 0  1 0.875 0  0.875 0.875 0  1 0.625 0  0.875 0.5 0  0.875 0.75 0  0.875 0.625 0  0.625 1 0  0.75 0.875 0  0.625 0.875 0  0.5 0.875 0  0.375 0.875 0  -0.125 0.75 0  -0.25 0.625 0  -0.1875 0.6875 0  0.75 0.625 0  0.625 0.75 0  0.6875 0.6875 0  0.375 0.75 0  0.5 0.625 0  0.5625 0.6875 0  0.4375 0.6875 0  0.3125 0.6875 0  -0.1875 0.5625 0  0.375 0 0  0.4375 0.0625 0  0.375 0.25 0  0.4375 0.1875 0  0.5625 0.1875 0  0.4375 0.3125 0  0.5 0.1875 0  -0.1875 0.3125 0  -0.3125 0.1875 0  -0.1875 0.25 0  -0.25 0.1875 0  -0.1875 0.1875 0  0.3125 0.1875 0  0.1875 0.3125 0  0.25 0.1875 0  0.1875 0.25 0  0.1875 0.1875 0  0.3125 0.3125 0  0.3125 0.0625 0  0.25 0.0625 0  0.0625 0.3125 0  -0.4375 -0.3125 0  -0.875 -0.875 0  -0.8749999999999999 -1 0  0 -0.015625 0  0.0078125 0.0078125 0  0.0078125 0 0  -0.0078125 0.0078125 0  0 0.0078125 0  -0.0078125 0 0  -0.0078125 -0.0078125 0  -0.75 -0.875 0  -0.625 -0.75 0  -0.25 -0.375 0  -0.3125 -0.1875 0  -0.1875 -0.3125 0  -0.3125 -0.25 0  -0.3125 -0.3125 0  -0.5 -0.625 0  -0.375 -0.5 0  -0.4375 -0.5625 0  -0.4375 -0.4375 0  -0.625 -0.875 0  -0.6249999999999999 -1 0  0 -0.375 0  -0.0625 -0.3125 0  -0.0625 -0.25 0  -0.4999999999999999 -0.875 0  -0.375 -0.75 0  -0.4375 -0.8125 0  -0.1875 -0.4375 0  -0.3125 -0.5625 0  -0.1875 -0.5 0  -0.1875 -0.5625 0  -0.3125 -0.4375 0  -0.3749999999999999 -0.9999999999999999 0  -0.4374999999999999 -0.9375 0  -0.0625 -0.4375 0  0.3125 0.125 0  0.4375 0.125 0  0.125 0.3125 0  -0.125 0.1875 0  -0.1875 0.125 0  0.1875 0.125 0  0.125 0.1875 0  -0.125 -0.4375 0  -0.125 -0.3125 0  -0.375 -0.3125 0  0 -0.046875 0  0.0234375 0.0078125 0  0.0078125 0.0234375 0  -0.0078125 0.0234375 0  0 0.0234375 0  -0.0234375 0.0078125 0  -0.0234375 0 0  -0.0234375 -0.0078125 0  -0.0078125 -0.0234375 0  -0.0078125 -0.0390625 0  0.015625 0.0078125 0  0.0078125 0.015625 0  -0.0078125 0.015625 0  -0.015625 0.0078125 0  -0.015625 -0.0078125 0  -0.015625 -0.03125 0  -0.6875 0.4375 0  1 0.1250000000000001 0  0.875 5.551115123125783e-17 0  0.9375 0.06250000000000008 0  0.9375 0.1875000000000001 0  0.375 1 0  0.125 1 0  0.25 0.875 0  0.1875 0.9375 0  0.3125 0.9375 0  0 0.875 0  0.0625 0.9375 0  -0.0625 0.9375 0  -0.4375 0.4375 0  -0.625 0.25 0  -0.6875 0.3125 0  -0.6875 0.1875 0  -0.8125 0.3125 0  -0.75 0.3125 0  0.625 0 0  0.6875 0.0625 0  0.8125 0.06250000000000003 0  0.75 0.0625 0  0.6875 0.1875 0  0.1875 0.8125 0  0.3125 0.8125 0  0.0625 0.8125 0  -0.0625 0.8125 0  -0.1875 0.4375 0  -0.3125 0.5625 0  -0.3125 0.5 0  -0.3125 0.4375 0  -0.25 0.4375 0  -0.1875 0.5 0  -0.4375 0.1875 0  -0.5625 0.3125 0  -0.5 0.3125 0  -0.4375 0.3125 0  -0.4375 0.25 0  -0.5625 0.1875 0  -0.5 0.1875 0  -1 -0.375 0  0.5625 0.0625 0  0.5 0.0625 0  0.1875 0.4375 0  0.1875 0.5625 0  0.3125 0.4375 0  0.1875 0.5 0  0.25 0.4375 0  0.0625 0.4375 0  0.0625 0.5625 0  0.0625 0.5 0  0 0.4375 0  -0.3125 0.3125 0  -0.25 0.3125 0  -0.3125 0.25 0  -0.4375 -0.0625 0  -0.5625 0.0625 0  -0.5625 -0.06250000000000001 0  -0.5 -0.0625 0  -0.4375 0 0  -0.75 -0.375 0  -0.6875 -0.3125 0  -0.8125 -0.3125 0  -1 -0.625 0  -0.875 -0.5 0  -0.9375 -0.4375 0  -0.9375 -0.5625 0  -0.875 -0.75 0  -0.9375 -0.6875 0  -0.25 0.0625 0  -0.3125 -0.0625 0  -0.25 -0.0625 0  -0.21875 -0.03125 0  -0.3125 0 0  -0.28125 0.03125 0  -0.4375 -0.1875 0  -0.5625 -0.1875 0  -0.5 -0.1875 0  -0.6875 -0.4375 0  -0.8125 -0.4375 0  -0.8125 -0.5625 0  0 -0.0078125 0  0.00390625 0.00390625 0  0.00390625 0 0  -0.00390625 0.00390625 0  0 0.00390625 0  -0.00390625 0 0  -0.00390625 -0.00390625 0  -0.8125 -0.6875 0  -0.25 -0.1875 0  -0.1875 -0.25 0  -0.21875 -0.21875 0  0 -0.1875 0  -0.03125 -0.21875 0  0.125 0.4375 0  0.1875 0.375 0  0.0625 0.375 0  -0.1875 0.375 0  -0.125 0.4375 0  -0.375 0.1875 0  -0.4375 0.125 0  -0.3125 -0.125 0  -0.4375 -0.125 0  -0.375 -0.1875 0  -0.375 -0.0625 0  -0.34375 -0.15625 0  -0.1875 -0.125 0  -0.21875 -0.09375 0  -0.21875 -0.15625 0  -0.28125 -0.15625 0  -0.15625 -0.09375 0  -0.15625 -0.15625 0  -0.09375 -0.15625 0  -0.6875 0.375 0  -0.375 0.4375 0  -0.4375 0.375 0  -0.3125 0.375 0  -0.375 0.3125 0  -0.03125 -0.15625 0  -0.15625 -0.21875 0  -0.09375 -0.21875 0  -0.125 -0.1875 0  0.5625 0.125 0  0.6875 0.125 0  0.125 0.5625 0  -0.5625 0.125 0  0.3125 0.375 0  -0.5625 -0.125 0  -0.34375 0.03125 0  -0.375 0.0625 0  0 -0.0234375 0  0.01171875 0.00390625 0  0.01171875 0 0  0.00390625 0.01171875 0  -0.00390625 0.01171875 0  0 0.01171875 0  -0.01171875 0.00390625 0  -0.01171875 0 0  -0.01171875 -0.00390625 0  -0.00390625 -0.01171875 0  -0.00390625 -0.01953125 0  0.0078125 0.00390625 0  0.00390625 0.0078125 0  -0.00390625 0.0078125 0  -0.0078125 0.00390625 0  -0.0078125 -0.00390625 0  -0.0078125 -0.015625 0  -0.875 1 0  -1 0.875 0  -0.9375 0.9375 0  -0.8125 0.9375 0  -0.9375 0.8125 0  -0.4375 0.6875 0  -0.4375 0.8125 0  -0.5625 0.6875 0  -0.4375 0.75 0  -0.5 0.6875 0  -0.6875 0.5625 0  1 0.3750000000000001 0  0.9375 0.3125000000000001 0  0.9375 0.2500000000000001 0  0.9375 0.4375 0  -0.3125 0.6875 0  -0.25 0.6875 0  -0.4375 0.5625 0  -0.5625 0.4375 0  -0.4375 0.5 0  -0.5 0.4375 0  -0.5625 0.5625 0  -0.5 0.5625 0  -0.5625 0.5 0  -0.8125 0.1875 0  0.8125 0.3125 0  0.75 0.3125 0  0.6875 0.25 0  0.6875 0.3125 0  0.8125 0.4375 0  0.6875 0.5625 0  0.6875 0.5 0  0.6875 0.4375 0  0.1875 0.6875 0  0.0625 0.75 0  0.0625 0.6875 0  -0.0625 0.6875 0  0 0.6875 0  -0.6875 0.0625 0  -0.6875 0 0  -0.6875 -0.06250000000000001 0  -0.8125 0.0625 0  -0.75 0.0625 0  -0.8125 -0.06250000000000001 0  -0.75 -0.06250000000000001 0  0.5625 0.5625 0  0.5625 0.5 0  0.5625 0.4375 0  0.4375 0.5625 0  0.5 0.4375 0  0.4375 0.5 0  0.4375 0.4375 0  0.5 0.5625 0  0.5625 0.25 0  0.5625 0.3125 0  0.5 0.3125 0  0.3125 0.5625 0  0.25 0.5625 0  0.3125 0.5 0  -0.0625 0.5625 0  0 0.5625 0  -0.0625 0.5 0  -0.6875 -0.1875000000000001 0  -0.8125 -0.1875000000000001 0  -0.75 -0.1875000000000001 0  0.3125 0.25 0  0.28125 0.21875 0  0.3125 0 0  0.28125 0.03125 0  -0.0625 0.25 0  0.0625 0.25 0  0.03125 0.21875 0  -0.03125 0.2187
[...]
<CellData  Scalars="w"> 
<DataArray  type="Float64"  Name="w"  format="ascii">6.9033802827887662e-11   7.1785606266778945e-11   6.8770081765501542e-11   7.2322376531040354e-11   6.5834840301949225e-11   6.4883805194395851e-11   6.5864241116171951e-11   6.8996711813491848e-11   4.9530340127978552e-11   6.3770555204533338e-11   5.1528685719996028e-11   1.0160604123766689e-11   6.6579157929838540e-12   5.1994738623712387e-11   5.9757716292915637e-11   5.1877904809981374e-11   4.6517762755453848e-11   1.2836183052330218e-11   1.0323942579992904e-11   6.7818786312955993e-11   8.6120939952755517e-12   7.0642018582493818e-12   8.5935763072788785e-12   7.1107199267253055e-12   5.8101614998803302e-11   7.6339664798700866e-11   5.7570310687509705e-11   6.5843509387551674e-11   7.2981729340418639e-12   1.3095826011799196e-11   1.0569666440581568e-11   7.5419244125363357e-12   6.3732973895858110e-11   5.8262539744825851e-11   6.2163004565449303e-11   6.2509162700407423e-11   6.4714170498737686e-11   6.2951325661740337e-11   6.9034017900853898e-11   7.1785975480287806e-11   6.8770312407444714e-11   7.2322496226938173e-11   6.5834944825505718e-11   6.4883803492395523e-11   6.5864338570292684e-11   6.8996703469430592e-11   4.9530422290717926e-11   6.3770631848393258e-11   5.1528779819390880e-11   1.0160641940607090e-11   6.6579442292322367e-12   5.1994767332059383e-11   5.9757714093795103e-11   5.1877935673225960e-11   4.6517762702544410e-11   1.2836264129176834e-11   1.0324070594377715e-11   6.7819231022982406e-11   8.6121567552518853e-12   7.0642453124858713e-12   8.5936497397602550e-12   7.1107726076993966e-12   5.8102459765783270e-11   7.6340477206101099e-11   5.7571110037826196e-11   6.5844891110925568e-11   7.2982070618363768e-12   1.3095846398104065e-11   1.0569744069678286e-11   7.5419587853009040e-12   6.3733050674483768e-11   5.8262710300007113e-11   6.2163456173870663e-11   6.2509451158183402e-11   6.4714509842833804e-11   6.2951487340008195e-11   7.4836845025060617e-11   7.6039725836124276e-11   7.5392563452554620e-11   8.4025298220007263e-11   7.1375199518903611e-11   6.9480646771437131e-11   7.3338085531106966e-11   8.2786408461151938e-11   8.8098991416867600e-11   8.5068130423861424e-11   8.9630628249469303e-11   7.9281411211994219e-11   9.3423082833029265e-11   9.0901055608054251e-11   9.4261590882481520e-11   1.0132224992664367e-10   8.0463774037543576e-11   7.9706231430549387e-11   8.5412067995000970e-11   9.6730935893790587e-11   8.4581432475720339e-11   8.4758528106842567e-11   8.6921632381884067e-11   9.6750083665997909e-11   9.1714502150333239e-11   9.4817120795014809e-11   9.0109831879546482e-11   8.0990151935567703e-11   9.7868791072609734e-11   1.0049059427670582e-10   9.6067211858037858e-11   1.0198131355601585e-10   8.2571326614383355e-11   8.7728605655503858e-11   8.3506295111358341e-11   8.6386938868315698e-11   7.7854643582551556e-11   6.9539209197431212e-11   7.8488830320031088e-11   8.1587198846232040e-11   9.2491193397600174e-11   8.6786131470186832e-11   9.1344061558772785e-11   8.7933558608429985e-11   9.5886053162615806e-11   8.9442787339024914e-11   9.6415877892828515e-11   9.9522771628886472e-11   9.8084078215194217e-11   9.2509565826239669e-11   9.8174112754875725e-11   1.0267045069567585e-10   1.0359676091286161e-10   1.1104605715926839e-10   1.0406783063138262e-10   1.1035404816602621e-10   9.7510738259876219e-11   1.0357337744350531e-10   9.7293283989778157e-11   9.3289461258171019e-11   1.0180283738643674e-10   1.0915624552243573e-10   1.0323749906108754e-10   1.0994600364136827e-10   8.2571686246361770e-11   8.7727586135588815e-11   8.3506401370641901e-11   8.6387201965141819e-11   7.7856306116261389e-11   6.9541325198531395e-11   7.8490206379118441e-11   8.1589789087435951e-11   9.2486650994201342e-11   8.6785747742958749e-11   9.1340540323705843e-11   8.7932619872256857e-11   9.5879633361059773e-11   8.9444033323412044e-11   9.6407000235481214e-11   9.9522084369617356e-11   9.8089142757095360e-11   9.2508693035271059e-11   9.8179766277937944e-11   1.0266881219865124e-10   1.0361058146452171e-10   1.1104387246616536e-10   1.0408228066530721e-10   1.1040813513350659e-10   9.7503493778109654e-11   1.0357174524269208e-10   9.7285077399947722e-11   9.3288481215140039e-11   1.0178101136055919e-10   1.0910560031685436e-10   1.0321147029930652e-10   1.0992211162340662e-10   7.4843102728289843e-11   7.6049892345765297e-11   7.5398382679443107e-11   8.4030304060868564e-11   7.1378963150641899e-11   6.9482862605369792e-11   7.3341388447593183e-11   8.2788918526876273e-11   8.8107162828893532e-11   8.5071985295013137e-11   8.9639226233385668e-11   7.9290409354129373e-11   9.3429079967655977e-11   9.0901740146837290e-11   9.4265494985299739e-11   1.0132181001094544e-10   8.0485692649214907e-11   7.9721395919893544e-11   8.5431184179971710e-11   9.6748436732650506e-11   8.4613099554105575e-11   8.4807756646398066e-11   8.6950587164227189e-11   9.6774579261264511e-11   9.1726630231076803e-11   9.4834572188519205e-11   9.0123749301434057e-11   8.1004184833073088e-11   9.7880358276475751e-11   1.0050314737573691e-10   9.6078059752570152e-11   1.0199940726755118e-10   8.4126386273286405e-11   8.8743413551709133e-11   8.4472599288972278e-11   8.8477916038607298e-11   8.0086073458952820e-11   8.4357962892733532e-11   8.0074644480640656e-11   7.6164474113610009e-11   9.3211256339654494e-11   8.8756763670829775e-11   9.3611137819746292e-11   8.8545530215489311e-11   9.8521639281413729e-11   9.3573515414179116e-11   9.8538845033490684e-11   1.0409130760730314e-10   8.0098674476816047e-11   7.6482768551211717e-11   8.0125079026573185e-11   8.3718116382339908e-11   7.6197381331619693e-11   7.1910761232598697e-11   7.5871440847772637e-11   7.2334638422218471e-11   7.9823793652679612e-11   7.6990693068219760e-11   7.9986195192743701e-11   8.4361407364897258e-11   7.5932426571011573e-11   7.5951748412762926e-11   7.6660184344122101e-11   6.6738274151172678e-11   8.4126839145106830e-11   8.8744123916414819e-11   8.4473030546671464e-11   8.8478358159220077e-11   8.0086237256585917e-11   8.4357938991627613e-11   8.0074816815752895e-11   7.6164459166046175e-11   9.3213651237563986e-11   8.8757444735008081e-11   9.3613658085625413e-11   8.8546077636895827e-11   9.8525216725199750e-11   9.3573458794592526e-11   9.8542256700782969e-11   1.0409108857939488e-10   8.0098994337591951e-11   7.6483265224987331e-11   8.0125396853613883e-11   8.3718221230625965e-11   7.6197609776389062e-11   7.1911107699874479e-11   7.5871699030204058e-11   7.2334751864486555e-11   7.9824314315662110e-11   7.6991151606185233e-11   7.9986653645897868e-11   8.4361415048306200e-11   7.5933507697268322e-11   7.5952498196946961e-11   7.6661234181491167e-11   6.6739546010161090e-11   1.1473362880558148e-11   1.2499540560808598e-11   4.6346764975565991e-12   1.8904737863247870e-11   2.1053502712791949e-12   2.1976715813840147e-12   2.0236248498165487e-12   2.0809650277042789e-12   2.0417666598071303e-12   5.0457174102015952e-12   1.8481225721207300e-12   5.5190581317970900e-12   4.6034729222031138e-12   1.3955228925821234e-11   7.3380183463595221e-12   8.9327886606720169e-12   1.9449496502669696e-12   5.3723528403869183e-12   1.9233459532122719e-12   1.4122203125385746e-12   1.9708721347379103e-12   1.9933447369200115e-12   2.0200557753653107e-12   2.0936479393503462e-12   1.9557280717564284e-12   1.7878233556985939e-12   2.1077722095867548e-12   2.0680234150709580e-12   2.0671792963229395e-12   2.0946708244894406e-12   2.1183036813152268e-12   2.1354520277738017e-12   2.0141728399466590e-12   2.0147645261802187e-12   2.0335403405570920e-12   2.1000301986098236e-12   2.0836129318364873e-12   1.9784432245071999e-12   1.9055404832216468e-12   1.4774183343970232e-12   2.1779250437214546e-12   2.2408686655791721e-12   2.1758469588759712e-12   2.1492175565416563e-12   2.2359840507333512e-12   2.3028596294904016e-12   2.1507050215359754e-12   2.1886127618334983e-12   2.3405968862130703e-12   2.4675265297637389e-12   2.0437593247345879e-12   2.1371931933395097e-12   6.4878221613741249e-12   2.7496888004734671e-12   1.5045888664078364e-11   7.4497666738693947e-11   7.0647287577693371e-12   4.1139442562480930e-11   8.4257273063336287e-11   1.7142691022466388e-11   1.3110106065943396e-11   4.5165969224612427e-11   5.1636564270588257e-12   1.7683834121707184e-11   1.1427634466902399e-10   4.3582247702709470e-11   1.7476081740543324e-11   2.0137019484461341e-12   2.0468918149905914e-12   2.1826349955645417e-12   2.2964307348880126e-12   2.2742489082540445e-12   6.5391203670272741e-12   2.8184643658990255e-12   2.0981950416450110e-12   1.9368185435662948e-12   1.8564898679720048e-12   1.9851496358096512e-12   2.0422935486826448e-12   1.9347074443477368e-12   1.7026440584822156e-12   1.7671374107045393e-12   5.5896726352178918e-12   1.3159074148111375e-11   5.9224651613163764e-12   2.5727368785960179e-12   2.2486142364242947e-11   2.5305284580422381e-12   6.9295030185263388e-12   2.8647492367547796e-12   2.5585010215530966e-12   2.0759866371993275e-12   2.2274784984672360e-12   2.4831484117508162e-12   2.3732214493524229e-12   1.2854215168825868e-11   2.2045082900582658e-12   2.2143509133192015e-12   2.1431450886130606e-12   2.1813394235992417e-12   2.6734580975252981e-12   2.4823206325847589e-12   2.3964792671519094e-12   2.2786615500169713e-12   2.1401379003305368e-12   2.2062413011424750e-12   2.1581194051691471e-12   2.1260513931073558e-12   2.1762962530157157e-12   2.2285179941285904e-12   2.1228928911229381e-12   2.1557687395258096e-12   1.8188981195619454e-12   2.0205672837612739e-12   2.0702547921066859e-12   2.2257143070421321e-12   1.3285063533890404e-11   4.9213144697315279e-12   2.0096558670273079e-12   2.0547088722253676e-12   2.0568891709510669e-12   2.0864410596581862e-12   2.1572531265686795e-12   1.9855799730539143e-12   1.8745510257328664e-12   2.0881001471533973e-12   2.0569874079899482e-12   2.3222125930221701e-12   2.3594461419889159e-12   2.4134956070137032e-12   2.4978940511160099e-12   2.2499326776376478e-12   2.2818497983137438e-12   2.2707037057407160e-12   2.2036055794596894e-12   2.4140814247826984e-12   2.3367951874417395e-12   2.4959326003393183e-12   2.4639441612106876e-12   2.4373593488920837e-12   2.3797333106788923e-12   2.3802035368928073e-12   2.3064296811415197e-12   2.3767250957460631e-12   2.3568206578677797e-12   2.3699752431180775e-12   2.4349351663602703e-12   2.3150021885111324e-12   2.2809794718207664e-12   2.2358627543470774e-12   2.1742768296665989e-12   2.2229607398356439e-12   2.3324183506456396e-12   2.5133695665570870e-12   2.6534101534679900e-12   2.2480767642639655e-12   2.4317916900108816e-12   3.0773261501342706e-12   2.8228612049530568e-12   2.8669082266783981e-12   2.8596998519556157e-12   2.9147249413277956e-12   2.9857599363883488e-12   2.6050852721536932e-12   2.9073980844091427e-12   3.0565575749034726e-12   3.2849126668389181e-12   2.8230095942829798e-12   2.8235700943826790e-12   2.7691408862186724e-12   2.8724858870348649e-12   2.7480888502967006e-12   2.7069290768706123e-12   2.7209555055702770e-12   2.7337940070810878e-12   3.2699926361850447e-12   3.6789842639646131e-12   3.0461197871431086e-12   3.0950064697177088e-12   3.1666617735161620e-12   3.0209794862734148e-12   3.3129296415352991e-12   3.3337707945739225e-12   2.9156046178453741e-12   3.2261079307717794e-12   3.1437133958944196e-12   3.1480993773377860e-12   3.3465547343852926e-12   3.1078316685869388e-12   3.5177964709244228e-12   3.4350365494102419e-12   3.2585029265967522e-12   3.1100010055133297e-12   2.4836775848367999e-12   2.6491163199794097e-12   3.0801261726715079e-12   2.8622344934793722e-12   1.4494187633649654e-11   1.4862554772898357e-11   7.1300538678283781e-12   2.9624943121127614e-12   2.5807470918106586e-11   2.9730525148615376e-12   8.1341399283651128e-12   2.6973298745902892e-12   2.8474098468910471e-12   2.4416909114951621e-12   2.5445363410106897e-12   7.6510074034064241e-12   3.1351604851581136e-12   1.6138668603922887e-11   2.5679578891452811e-12   2.6431321947885553e-12   2.5794537157313984e-12   2.5585825439696486e-12   2.6285575567327143e-12   2.7304858536289460e-12   2.4978454872778032e-12   2.6098465816556865e-12   3.8988453436631267e-12   3.7314671254964053e-12   3.8707911973779608e-12   4.0422628942824620e-12   3.9437377114109135e-12   3.7352687815886057e-12   3.9744765321379736e-12   4.0696513994134806e-12   3.6546567127561693e-12   3.6573156021176550e-12   3.5651327469088932e-12   3.8501599763503249e-12   3.4581786721330111e-12   3.4669309485914449e-12   3.3978827514373346e-12   3.2311304126358588e-12   4.0904394037160319e-12   6.4800749819192199e-12   4.0067384256380635e-12   5.7914957482804790e-12   4.0362705455920786e-12   4.1607085590071078e-12   4.0235063253255990e-12   3.7910065038993488e-12   2.0258519136962021e-11   2.2634921503807982e-11   3.0847939770058241e-11   3.3236840295609184e-11   3.5898290864867516e-12   3.6135890362316021e-12   3.6512325653741976e-12   3.4770112521521542e-12   3.8095050649297453e-12   3.8145889269193575e-12   3.9197213467339647e-12   4.2230353046295137e-12   3.3524252337411097e-12   3.5278229773155406e-12   3.4114961497422379e-12   3.3885445090330609e-12   3.3612447812984959e-12   3.5338781256952889e-12   3.2933641179481609e-12   3.2906006512942995e-12   3.7115083758263729e-12   3.6586592207059787e-12   3.5804161497268874e-12   3.4442756789136204e-12   4.0215869313245069e-12   1.2051103232785984e-11   3.9193392774021561e-12   1.0486559916524925e-11   3.5482606899484252e-12   3.6195123208455338e-12   3.4992302232583639e-12   3.4977034702246119e-12   3.5978078260050406e-12   3.9415053429029200e-12   3.6571708308917380e-12   3.4735781997815621e-12   3.6140600955604701e-12   3.3843428610563018e-12   3.7996340527102221e-12   3.5946021832447742e-12   3.4288317078515788e-12   3.3364314104421755e-12   3.4177983432336679e-12   3.4870325354687221e-12   3.4659232944807845e-12   3.4482836821757575e-12   3.4967978134282212e-12   3.5569401302657042e-12   3.3115661534472429e-12   3.2859673914165949e-12   3.3713366196129799e-12   3.2165259237687133e-12   2.8189306499994115e-11   6.2419559156890998e-12   1.0612927468973432e-11   2.4977869765324807e-11   9.5700180196990507e-12   9.0547198516245225e-12   3.1657998310584411e-11   3.1766639827551315e-11   1.9966641454200693e-11   3.2071436673813482e-11   3.1337895762603356e-12   3.1625836702284104e-12   3.1001459352773438e-12   2.9578660194734229e-12   3.3053869386004670e-12   3.3066783697641827e-12   3.2510069540354016e-12   3.4196906678941824e-12   3.0700347927542928e-12   3.2131137105947990e-12   3.0336011718041402e-12   3.0053184740975600e-12   3.0951450612020165e-12   3.2442005150842081e-12   3.1483373678635372e-12   3.1683666206475237e-12   3.0113319486832385e-12   2.9681108970180798e-12   3.0569167951114688e-12   2.9236968581507097e-12   3.1527716513379758e-12   3.0943392740120510e-12   3.1625436350459361e-12   3.1818109716808739e-12   2.8206064795284318e-12   2.9464693119655990e-12   2.8604474096009191e-12   2.8967656004546774e-12   2.7840147587023071e-12   2.9079384304848914e-12   2.7631020230995240e-12   2.7261360867579165e-12   4.3548342922443913e-12   4.2056549911543915e-12   4.4009628299967039e-12   4.1977315867748149e-12   4.5409005053593186e-12   4.4031076258617231e-12   4.5532417863365591e-12   4.7737042750716571e-12   3.9832607972924583e-12   4.1943992332107962e-12   4.0323553389722548e-12   4.1784170115331169e-12   3.8726159716290167e-12   4.0730557056990635e-12   3.8569004086154125e-12   3.7662150247622935e-12   4.4910721472640515e-12   4.5734040936995048e-12   4.4512886993971628e-12   4.0293958932211343e-12   4.7383544947666000e-12   4.7730312645152081e-12   4.6766614390477236e-12   5.0052703264847342e-12   4.4869074735041922e-12   4.6253789596926876e-12   4.5764788106758660e-12   4.2057545692912810e-12   4.3986167814556417e-12   4.7308690464152645e-12   4.5561057268027731e-12   4.9584822208501465e-12   4.4475408359878354e-12   4.2413681300950386e-12   4.4142089795084662e-12   4.2774557046808101e-12   4.5398096271009689e-12   4.3620431176516797e-12   4.5496838840983137e-12   4.7204343249679730e-12   4.1086655501982087e-12   4.2319172148180565e-12   4.0796319742082722e-12   4.2722137954038681e-12   3.9227102059331461e-12   4.0338467474569087e-12   3.9142765740210941e-12   3.7340407865269954e-12   4.6782462840459527e-12   4.8530461083529413e-12   4.6737801921392320e-12   4.4816259554620540e-12   4.8061734529573931e-12   4.8565966999984763e-12   4.8418234640093316e-12   1.2012309596949989e-11   4.6524695863707256e-12   4.8343249299343019e-12   4.6510900769155013e-12   4.4582168182162972e-12   4.8491501181237779e-12   5.0213570202930077e-12   4.8370272096829626e-12   5.0504783067787600e-12   1.6070146484472117e-11   2.2944890102190205e-11   2.5195632574969124e-11   2.6456480989631542e-11   2.1877910736997998e-11   6.5891677842080900e-12   6.9286906379621133e-12   2.1360247977578926e-11   1.1532603653483290e-11   7.1122855829738358e-12   3.8143591231659138e-12   9.8342772954532584e-12   3.8308430447394989e-12   9.5537178078731690e-12   3.6773787798800679e-12   3.5284734292365858e-12   3.6379826372969035e-12   3.5933048333634434e-12   1.7380000562173970e-11   3.5313707315015496e-11   1.9470399052051590e-11   2.9580985110462497e-11   3.3191880877147303e-12   3.6247090395077811e-12   3.2814955552651269e-12   3.2332090838308594e-12   3.3681251664452680e-12   6.0634031769350570e-12   3.4329489811818612e-12   5.9472501256874543e-12   3.3574892290515299e-12   3.5230990185249146e-12   3.3549960680770430e-12   3.1938718815458710e-12   3.4678061420037514e-12   3.5090242979579835e-12   3.4414591233540908e-12   3.5801475270758869e-12   3.1632785575197053e-12   3.0221881828475168e-12   3.1258235438231477e-12   3.0800579143572662e-12   3.1875536262553259e-12   3.0574389105346477e-12   3.2321531677816350e-12   3.2103508818454891e-12   2.9585028761991627e-12   3.0009509553001640e-12   2.9241104557308890e-12   3.0621691213947191e-12   2.8311625083517886e-12   2.8714930639244552e-12   2.8134395273189006e-12   2.6928538556545194e-12   9.3791417880756523e-11   7.7713209740508802e-11   9.8029699064645467e-11   8.8311135735930189e-11   8.6159158204883249e-11   8.8880546854266499e-11   9.4837016692802991e-11   9.6524977270659549e-11   3.3096066335823216e-11   5.8896160494485483e-12   3.1911940882471830e-12   9.1454064123381199e-11   1.4642383450635086e-11   2.9769853093543959e-11   7.4031978552738777e-11   1.6326876034344343e-12   4.6709355264999407e-12   1.8189281326724739e-12   5.6152252561974639e-12   3.0278568919793844e-12   5.5308135852616662e-12   9.6692604548371666e-12   9.5522654361175532e-12   2.2515176778330008e-11   1.1025450233321730e-11   1.7516434376816794e-11   6.9859376672930899e-11   9.8921367908477435e-11   7.7806374253233397e-11   1.7704508535312666e-11   3.0212433293940279e-11   1.9596994340351921e-11   1.5136109037398068e-11   6.2378715626319374e-12   1.7442084712444181e-11   7.8467981819131543e-11   2.3145398322636319e-11   3.2063228724313413e-11   8.6254764240564074e-11   3.7589278330861730e-11   6.3104925660876253e-12   3.1040863653099793e-12   9.9327281996562563e-11   1.0789335084748639e-10   3.0247999074439326e-12   2.8318984016792994e-12   1.0670718039423869e-11   1.8150593700527935e-12   4.8246044403821356e-12   1.9758902873482658e-12   5.9583359469569386e-12   1.0161261066948457e-11   1.1440225941426526e-11   2.4631275841564278e-11   1.8838490473951964e-11   1.0235885626109267e-10   1.5529251573754591e-11   2.7422896153017245e-11   7.8537391685672053e-11   1.3000575316327844e-11   3.1518575965603294e-11   1.0578899821754066e-10   9.2841795847912933e-11   1.0977779635067467e-10   1.0971580678562502e-10   2.0849092941677137e-12   1.9175599234921117e-12   2.0031040741534139e-12   2.0652843104128722e-12   2.7781414499900542e-12   6.2333153561607411e-12   1.1519163269070723e-11   1.9204440132331435e-12   1.7979142168905161e-12