<?xml version="1.0"?>
<VTKFile type="UnstructuredGrid"  version="0.1"  >
<UnstructuredGrid>
<Piece  NumberOfPoints="15725" NumberOfCells="31027">
<Points>
<DataArray  type="Float64"  NumberOfComponents="3"  format="ascii">-1 1 0  -0.75 1 0  -1 0.75 0  -0.5 1 0  -0.75 0.75 0  -1 0.5 0  -0.25 1 0  -0.5 0.75 0  -0.75 0.5 0  -1 0.25 0  1 1 0  1 1.110223024625157e-16 0  1 0.2500000000000001 0  1 0.5 0  1 0.75 0  0.75 1 0  0.5 1 0  0.25 1 0  0 1 0  -0.25 0.75 0  -0.5 0.5 0  -0.75 0.25 0  -1 0 0  0.75 0.75 0  0.75 0 0  0.75 0.25 0  0.75 0.5 0  0.5 0.75 0  0.25 0.75 0  0 0.75 0  -0.25 0.5 0  -0.5 0.25 0  -0.75 0 0  -1 -0.2500000000000001 0  0.5 0.5 0  0.5 0 0  0.5 0.25 0  0.25 0.5 0  0 0.5 0  -0.25 0.25 0  -0.5 0 0  -0.75 -0.2500000000000001 0  -1 -0.5 0  0.25 0.25 0  0.25 0 0  0 0.25 0  -1 -0.75 0  -0.25 0 0  -0.5 -0.25 0  -0.75 -0.5 0  -0.9999999999999999 -1 0  0 0 0  -0.75 -0.75 0  -0.25 -0.25 0  -0.5 -0.5 0  -0.7499999999999999 -1 0  0 -0.25 0  -0.5 -0.75 0  -0.25 -0.5 0  -0.4999999999999999 -0.9999999999999999 0  0 -0.5 0  -0.25 -0.75 0  -0.2499999999999999 -0.9999999999999999 0  0 -0.75 0  0 -0.9999999999999999 0  0.375 0.125 0  0.125 0.375 0  -0.125 0.375 0  -0.375 0.125 0  -0.125 0.25 0  -0.25 0.125 0  0.25 0.125 0  0.125 0.25 0  0.125 0.125 0  0.125 0 0  -0.125 0.125 0  0 0.125 0  -0.375 -0.125 0  -0.125 0 0  -0.25 -0.125 0  -0.125 -0.125 0  -0.125 -0.375 0  -0.375 -0.625 0  -0.125 -0.5 0  -0.25 -0.625 0  -0.3749999999999999 -0.875 0  -0.125 -0.625 0  0 -0.625 0  -0.2499999999999999 -0.875 0  -0.125 -0.75 0  -0.1249999999999999 -0.875 0  -0.1249999999999999 -0.9999999999999999 0  0 -0.875 0  -0.375 0.625 0  -0.625 0.375 0  -0.375 0.5 0  -0.5 0.375 0  -0.375 0.375 0  -0.25 0.375 0  -0.375 0.25 0  0.1875 0.0625 0  0.1875 0 0  0.0625 0.1875 0  -0.0625 0.1875 0  0 0.1875 0  -0.1875 0.0625 0  -0.1875 0 0  -0.1875 -0.0625 0  0 -0.125 0  0.0625 0.0625 0  0.0625 0 0  -0.0625 0.0625 0  0 0.0625 0  -0.0625 0 0  -0.0625 -0.0625 0  -0.125 -0.25 0  -0.1875 -0.1875 0  -0.0625 -0.1875 0  0.125 0.0625 0  0.0625 0.125 0  -0.0625 0.125 0  -0.125 0.0625 0  -0.125 -0.0625 0  0.875 0.375 0  0.125 0.875 0  0.625 0.625 0  0.75 0.375 0  0.625 0.125 0  0.625 0.25 0  0.625 0.5 0  0.625 0.375 0  0.375 0.625 0  0.125 0.75 0  0.25 0.625 0  0.125 0.625 0  -0.125 0.625 0  0 0.625 0  -0.125 0.5 0  -0.625 0.125 0  -0.5 0.125 0  -0.625 0 0  0.5 0.375 0  0.375 0.5 0  0.375 0.375 0  0.5 0.125 0  0.125 0.5 0  0.25 0.375 0  -0.625 -0.125 0  -0.5 -0.125 0  -0.625 -0.25 0  -0.625 -0.375 0  -0.375 -0.25 0  -0.5 -0.375 0  0 -0.0625 0  0.03125 0.03125 0  0.03125 0 0  -0.03125 0.03125 0  0 0.03125 0  -0.03125 0 0  -0.03125 -0.03125 0  -0.375 -0.375 0  0.09375 0.03125 0  0.03125 0.09375 0  -0.03125 0.09375 0  0 0.09375 0  -0.09375 0.03125 0  -0.09375 0 0  -0.09375 -0.03125 0  -0.03125 -0.09375 0  0.0625 0.03125 0  0.03125 0.0625 0  -0.03125 0.0625 0  -0.0625 0.03125 0  -0.0625 -0.03125 0  -0.0625 -0.125 0  -0.875 0.875 0  -0.625 1 0  -0.75 0.875 0  -0.875 0.75 0  -1 0.625 0  -0.625 0.875 0  -0.375 1 0  -0.5 0.875 0  -0.875 0.625 0  -0.625 0.75 0  -0.75 0.625 0  -0.875 0.5 0  -1 0.375 0  -0.375 0.875 0  -0.125 1 0  -0.25 0.875 0  -0.625 0.625 0  -0.375 0.75 0  -0.5 0.625 0  -0.875 0.375 0  -0.625 0.5 0  -0.75 0.375 0  -0.875 0.25 0  -1 0.125 0  0.875 0.1250000000000001 0  0.875 0.2500000000000001 0  -0.125 0.875 0  -0.875 0.125 0  -0.75 0.125 0  -0.875 0 0  -1 -0.125 0  0.75 0.125 0  -0.875 -0.125 0  -0.75 -0.125 0  -0.875 -0.2500000000000001 0  0 0.375 0  -0.0625 0.4375 0  -0.375 0 0  -0.4375 0.0625 0  -0.875 -0.375 0  -0.0625 0.3125 0  -0.875 -0.625 0  -0.3125 0.0625 0  -0.75 -0.625 0  -0.625 -0.5 0  0 -0.03125 0  0.015625 0.015625 0  0.015625 0 0  -0.015625 0.015625 0  0 0.015625 0  -0.015625 0 0  -0.015625 -0.015625 0  -0.625 -0.625 0  0.046875 0.015625 0  0.015625 0.046875 0  -0.015625 0.046875 0  0 0.046875 0  -0.046875 0.015625 0  -0.046875 0 0  -0.046875 -0.015625 0  -0.015625 -0.046875 0  0.03125 0.015625 0  0.015625 0.03125 0  -0.015625 0.03125 0  -0.03125 0.015625 0  -0.03125 -0.015625 0  -0.03125 -0.0625 0  1 0.875 0  0.875 0.875 0  1 0.625 0  0.875 0.5 0  0.875 0.75 0  0.875 0.625 0  0.625 1 0  0.75 0.875 0  0.625 0.875 0  0.5 0.875 0  0.375 0.875 0  -0.125 0.75 0  -0.25 0.625 0  -0.1875 0.6875 0  0.75 0.625 0  0.625 0.75 0  0.6875 0.6875 0  0.375 0.75 0  0.5 0.625 0  0.5625 0.6875 0  0.4375 0.6875 0  0.3125 0.6875 0  -0.1875 0.5625 0  0.375 0 0  0.4375 0.0625 0  0.375 0.25 0  0.4375 0.1875 0  0.5625 0.1875 0  0.4375 0.3125 0  0.5 0.1875 0  -0.1875 0.3125 0  -0.3125 0.1875 0  -0.1875 0.25 0  -0.25 0.1875 0  -0.1875 0.1875 0  0.3125 0.1875 0  0.1875 0.3125 0  0.25 0.1875 0  0.1875 0.25 0  0.1875 0.1875 0  0.3125 0.3125 0  0.3125 0.0625 0  0.25 0.0625 0  0.0625 0.3125 0  -0.4375 -0.3125 0  -0.875 -0.875 0  -0.8749999999999999 -1 0  0 -0.015625 0  0.0078125 0.0078125 0  0.0078125 0 0  -0.0078125 0.0078125 0  0 0.0078125 0  -0.0078125 0 0  -0.0078125 -0.0078125 0  -0.75 -0.875 0  -0.625 -0.75 0  -0.25 -0.375 0  -0.3125 -0.1875 0  -0.1875 -0.3125 0  -0.3125 -0.25 0  -0.3125 -0.3125 0  -0.5 -0.625 0  -0.375 -0.5 0  -0.4375 -0.5625 0  -0.4375 -0.4375 0  -0.625 -0.875 0  -0.6249999999999999 -1 0  0 -0.375 0  -0.0625 -0.3125 0  -0.0625 -0.25 0  -0.4999999999999999 -0.875 0  -0.375 -0.75 0  -0.4375 -0.8125 0  -0.1875 -0.4375 0  -0.3125 -0.5625 0  -0.1875 -0.5 0  -0.1875 -0.5625 0  -0.3125 -0.4375 0  -0.3749999999999999 -0.9999999999999999 0  -0.4374999999999999 -0.9375 0  -0.0625 -0.4375 0  0.3125 0.125 0  0.4375 0.125 0  0.125 0.3125 0  -0.125 0.1875 0  -0.1875 0.125 0  0.1875 0.125 0  0.125 0.1875 0  -0.125 -0.4375 0  -0.125 -0.3125 0  -0.375 -0.3125 0  0 -0.046875 0  0.0234375 0.0078125 0  0.0078125 0.0234375 0  -0.0078125 0.0234375 0  0 0.0234375 0  -0.0234375 0.0078125 0  -0.0234375 0 0  -0.0234375 -0.0078125 0  -0.0078125 -0.0234375 0  -0.0078125 -0.0390625 0  0.015625 0.0078125 0  0.0078125 0.015625 0  -0.0078125 0.015625 0  -0.015625 0.0078125 0  -0.015625 -0.0078125 0  -0.015625 -0.03125 0  -0.6875 0.4375 0  1 0.1250000000000001 0  0.875 5.551115123125783e-17 0  0.9375 0.06250000000000008 0  0.9375 0.1875000000000001 0  0.375 1 0  0.125 1 0  0.25 0.875 0  0.1875 0.9375 0  0.3125 0.9375 0  0 0.875 0  0.0625 0.9375 0  -0.0625 0.9375 0  -0.4375 0.4375 0  -0.625 0.25 0  -0.6875 0.3125 0  -0.6875 0.1875 0  -0.8125 0.3125 0  -0.75 0.3125 0  0.625 0 0  0.6875 0.0625 0  0.8125 0.06250000000000003 0  0.75 0.0625 0  0.6875 0.1875 0  0.1875 0.8125 0  0.3125 0.8125 0  0.0625 0.8125 0  -0.0625 0.8125 0  -0.1875 0.4375 0  -0.3125 0.5625 0  -0.3125 0.5 0  -0.3125 0.4375 0  -0.25 0.4375 0  -0.1875 0.5 0  -0.4375 0.1875 0  -0.5625 0.3125 0  -0.5 0.3125 0  -0.4375 0.3125 0  -0.4375 0.25 0  -0.5625 0.1875 0  -0.5 0.1875 0  -1 -0.375 0  0.5625 0.0625 0  0.5 0.0625 0  0.1875 0.4375 0  0.1875 0.5625 0  0.3125 0.4375 0  0.1875 0.5 0  0.25 0.4375 0  0.0625 0.4375 0  0.0625 0.5625 0  0.0625 0.5 0  0 0.4375 0  -0.3125 0.3125 0  -0.25 0.3125 0  -0.3125 0.25 0  -0.4375 -0.0625 0  -0.5625 0.0625 0  -0.5625 -0.06250000000000001 0  -0.5 -0.0625 0  -0.4375 0 0  -0.75 -0.375 0  -0.6875 -0.3125 0  -0.8125 -0.3125 0  -1 -0.625 0  -0.875 -0.5 0  -0.9375 -0.4375 0  -0.9375 -0.5625 0  -0.875 -0.75 0  -0.9375 -0.6875 0  -0.25 0.0625 0  -0.3125 -0.0625 0  -0.25 -0.0625 0  -0.21875 -0.03125 0  -0.3125 0 0  -0.28125 0.03125 0  -0.4375 -0.1875 0  -0.5625 -0.1875 0  -0.5 -0.1875 0  -0.6875 -0.4375 0  -0.8125 -0.4375 0  -0.8125 -0.5625 0  0 -0.0078125 0  0.00390625 0.00390625 0  0.00390625 0 0  -0.00390625 0.00390625 0  0 0.00390625 0  -0.00390625 0 0  -0.00390625 -0.00390625 0  -0.8125 -0.6875 0  -0.25 -0.1875 0  -0.1875 -0.25 0  -0.21875 -0.21875 0  0 -0.1875 0  -0.03125 -0.21875 0  0.125 0.4375 0  0.1875 0.375 0  0.0625 0.375 0  -0.1875 0.375 0  -0.125 0.4375 0  -0.375 0.1875 0  -0.4375 0.125 0  -0.3125 -0.125 0  -0.4375 -0.125 0  -0.375 -0.1875 0  -0.375 -0.0625 0  -0.34375 -0.15625 0  -0.1875 -0.125 0  -0.21875 -0.09375 0  -0.21875 -0.15625 0  -0.28125 -0.15625 0  -0.15625 -0.09375 0  -0.15625 -0.15625 0  -0.09375 -0.15625 0  -0.6875 0.375 0  -0.375 0.4375 0  -0.4375 0.375 0  -0.3125 0.375 0  -0.375 0.3125 0  -0.03125 -0.15625 0  -0.15625 -0.21875 0  -0.09375 -0.21875 0  -0.125 -0.1875 0  0.5625 0.125 0  0.6875 0.125 0  0.125 0.5625 0  -0.5625 0.125 0  0.3125 0.375 0  -0.5625 -0.125 0  -0.34375 0.03125 0  -0.375 0.0625 0  0 -0.0234375 0  0.01171875 0.00390625 0  0.01171875 0 0  0.00390625 0.01171875 0  -0.00390625 0.01171875 0  0 0.01171875 0  -0.01171875 0.00390625 0  -0.01171875 0 0  -0.01171875 -0.00390625 0  -0.00390625 -0.01171875 0  -0.00390625 -0.01953125 0  0.0078125 0.00390625 0  0.00390625 0.0078125 0  -0.00390625 0.0078125 0  -0.0078125 0.00390625 0  -0.0078125 -0.00390625 0  -0.0078125 -0.015625 0  -0.875 1 0  -1 0.875 0  -0.9375 0.9375 0  -0.8125 0.9375 0  -0.9375 0.8125 0  -0.4375 0.6875 0  -0.4375 0.8125 0  -0.5625 0.6875 0  -0.4375 0.75 0  -0.5 0.6875 0  -0.6875 0.5625 0  1 0.3750000000000001 0  0.9375 0.3125000000000001 0  0.9375 0.2500000000000001 0  0.9375 0.4375 0  -0.3125 0.6875 0  -0.25 0.6875 0  -0.4375 0.5625 0  -0.5625 0.4375 0  -0.4375 0.5 0  -0.5 0.4375 0  -0.5625 0.5625 0  -0.5 0.5625 0  -0.5625 0.5 0  -0.8125 0.1875 0  0.8125 0.3125 0  0.75 0.3125 0  0.6875 0.25 0  0.6875 0.3125 0  0.8125 0.4375 0  0.6875 0.5625 0  0.6875 0.5 0  0.6875 0.4375 0  0.1875 0.6875 0  0.0625 0.75 0  0.0625 0.6875 0  -0.0625 0.6875 0  0 0.6875 0  -0.6875 0.0625 0  -0.6875 0 0  -0.6875 -0.06250000000000001 0  -0.8125 0.0625 0  -0.75 0.0625 0  -0.8125 -0.06250000000000001 0  -0.75 -0.06250000000000001 0  0.5625 0.5625 0  0.5625 0.5 0  0.5625 0.4375 0  0.4375 0.5625 0  0.5 0.4375 0  0.4375 0.5 0  0.4375 0.4375 0  0.5 0.5625 0  0.5625 0.25 0  0.5625 0.3125 0  0.5 0.3125 0  0.3125 0.5625 0  0.25 0.5625 0  0.3125 0.5 0  -0.0625 0.5625 0  0 0.5625 0  -0.0625 0.5 0  -0.6875 -0.1875000000000001 0  -0.8125 -0.1875000000000001 0  -0.75 -0.1875000000000001 0  0.3125 0.25 0  0.28125 0.21875 0  0.3125 0 0  0.28125 0.03125 0  -0.0625 0.25 0  0.0625 0.25 0  0.03125 0.21875 0  -0.03125 0.2187
[...]
<CellData  Scalars="w"> 
<DataArray  type="Float64"  Name="w"  format="ascii">1.0851904296865697e-12   1.1122829518169645e-12   1.0849869025976359e-12   1.0621560783360680e-12   1.1068682070626737e-12   1.1357487344420195e-12   1.1095757290406244e-12   1.1303675437679766e-12   1.0865311772541866e-12   1.1103815315097269e-12   1.0864249823809396e-12   1.0603961908107302e-12   1.1131193794258493e-12   1.1382765397974399e-12   1.1121472933569247e-12   1.1393589395476350e-12   1.0124672224496241e-12   1.0371180781134509e-12   1.0133864166675164e-12   1.0379679622823036e-12   9.8944855224008422e-13   1.0131451516194092e-12   9.8940259959398709e-13   9.6724935306013647e-13   1.0615319956523669e-12   1.0371589423502303e-12   1.0624449415226236e-12   1.0379904811916472e-12   1.0869563678582972e-12   1.0619058842666945e-12   1.0870005296469537e-12   1.1130175937682374e-12   9.0756211219814686e-13   9.1861189677888614e-13   9.0723859233439042e-13   8.4596082667999305e-13   9.2424382846903584e-13   9.4069820934718716e-13   9.2362786644693566e-13   9.4530258797068930e-13   8.7042195872707551e-13   9.1964349564728404e-13   8.6914938647947434e-13   8.4556600809203340e-13   2.1116321227313578e-12   9.3256547564456004e-13   4.9185841533792059e-12   8.9094982715486280e-13   8.7170345120674290e-13   8.9186669251082561e-13   8.2595004952242210e-13   9.0571448294686666e-13   8.8687633062468867e-13   9.0574536292515569e-13   9.2555048115654021e-13   8.0710123111117822e-13   8.7164982570943261e-13   8.0646064337012290e-13   8.2427142783998761e-13   7.9228093250789510e-13   8.5935268988986616e-13   7.9145638554084531e-13   7.2465873305924750e-13   1.0514091737127397e-12   2.0613358777136510e-12   1.0564795279233666e-12   1.9250661275134349e-12   1.0680431278274747e-12   1.0369676532548148e-12   1.0673542143597588e-12   1.1022515823021463e-12   4.4488336602764891e-12   6.8460199071659164e-12   6.0134762000577724e-12   7.0264928006371951e-12   1.0716007961204553e-12   1.0989582074947864e-12   1.0703150567039800e-12   1.0150380103303749e-12   1.0980609913154605e-12   1.1213374853687117e-12   1.0929687089753321e-12   1.1248949129398267e-12   1.0137720832513633e-12   1.1048595808917885e-12   9.9985059359908009e-13   1.0053515729596908e-12   1.0305594417948658e-12   1.1129926343902993e-12   1.0253828980445748e-12   1.0364869201589037e-12   6.8464776897682928e-12   9.3375680239141896e-13   2.1780849429671541e-12   2.3476175788466995e-12   1.9965160717128240e-12   4.1988068953511312e-12   9.6628385367838211e-13   9.4094369107246072e-13   9.6544848983903617e-13   9.4535056550147103e-13   9.8822600343755930e-13   1.0186477204997572e-12   9.8810619832055713e-13   9.5780456752977817e-13   1.0829290520978237e-12   1.0287289709236186e-12   1.0841307899706156e-12   1.0981976234845178e-12   1.0628118095996522e-12   1.0385714099493741e-12   1.0657798529183035e-12   1.0234652445417049e-12   9.7808291213252347e-13   1.0378351273215005e-12   9.8342924298444712e-13   1.0232146040038563e-12   9.8492657051522823e-13   1.0205384726027540e-12   9.8341619973737348e-13   9.5936288293585943e-13   1.0851799449964830e-12   1.1122743178912306e-12   1.0849761739690968e-12   1.0621483288149359e-12   1.1068542980340531e-12   1.1357368659112888e-12   1.1095620198899445e-12   1.1303498820466233e-12   1.0865250852587477e-12   1.1103726056327352e-12   1.0864187492052592e-12   1.0603882562896724e-12   1.1131153119436057e-12   1.1382698263920241e-12   1.1121428939618174e-12   1.1393567808442845e-12   1.0124638574538561e-12   1.0371162840765384e-12   1.0133832167567576e-12   1.0379625159328571e-12   9.8944707969318361e-13   1.0131452405121146e-12   9.8940109430362903e-13   9.6724940922994583e-13   1.0615280413784789e-12   1.0371571857644743e-12   1.0624412230585851e-12   1.0379851417328752e-12   1.0869543312574020e-12   1.0619060106749809e-12   1.0869985376942506e-12   1.1130177647800886e-12   9.0755943228730367e-13   9.1860766300370566e-13   9.0723585839515358e-13   8.4595798584351106e-13   9.2424175442711154e-13   9.4069457513376124e-13   9.2362574874773655e-13   9.4530138279490824e-13   8.7041759274804918e-13   9.1963925317972981e-13   8.6914496917001086e-13   8.4556314850579333e-13   2.1116181873190470e-12   9.3255921800092310e-13   4.9185385119339582e-12   8.9094832301624257e-13   8.7170286501192936e-13   8.9186520638848346e-13   8.2594837002225659e-13   9.0571358441343940e-13   8.8687634482019669e-13   9.0574447994109038e-13   9.2555051198776954e-13   8.0710039939647137e-13   8.7164922575126587e-13   8.0645981161265853e-13   8.2426971716295920e-13   7.9228066095973205e-13   8.5935269683224198e-13   7.9145610753828384e-13   7.2465873342106925e-13   1.0513885253949026e-12   2.0612973701668101e-12   1.0564585372848004e-12   1.9250225583971580e-12   1.0680228056479492e-12   1.0369513128002640e-12   1.0673342829501523e-12   1.1022324772905072e-12   4.4487671556763030e-12   6.8459291771732337e-12   6.0133704994363549e-12   7.0263812756711114e-12   1.0715757693891987e-12   1.0989281334367569e-12   1.0702894890017430e-12   1.0150133196458074e-12   1.0980363146778310e-12   1.1213076270711197e-12   1.0929441804165969e-12   1.1248711306684895e-12   1.0137434703506089e-12   1.1048290889500922e-12   9.9982149174190287e-13   1.0053265088589151e-12   1.0305263171775252e-12   1.1129571240760365e-12   1.0253492772707364e-12   1.0364487666407118e-12   6.8464080728062445e-12   9.3375067442307355e-13   2.1780682178293215e-12   2.3475889960400464e-12   1.9964908957031528e-12   4.1987653830553559e-12   9.6628121248627810e-13   9.4094013779360984e-13   9.6544574891730505e-13   9.4534938590895611e-13   9.8822156524928168e-13   1.0186409718188025e-12   9.8810166237154078e-13   9.5779914693128931e-13   1.0829133412857474e-12   1.0287124597511780e-12   1.0841154857016947e-12   1.0981784381166825e-12   1.0627996352496320e-12   1.0385622798663519e-12   1.0657677825664405e-12   1.0234526508540391e-12   9.7807277195164424e-13   1.0378257594880567e-12   9.8341929341689205e-13   1.0232018073126160e-12   9.8491922962385396e-13   1.0205318315520776e-12   9.8340867617687605e-13   9.5935751306112597e-13   1.1439291742922528e-12   1.1379315176558340e-12   1.1826370028028219e-12   1.2963084345834983e-12   1.1748792246991459e-12   1.1783767873480006e-12   1.1970002391293400e-12   1.2918548381682122e-12   1.2572716423027442e-12   1.2858236754815532e-12   1.2462345577624578e-12   1.1541490717490759e-12   1.2980816073629309e-12   1.3173159585381233e-12   1.2871577099507909e-12   1.3299576566242637e-12   1.1003771603138947e-12   1.1085316166178067e-12   1.1118901266317413e-12   1.2010182246262015e-12   1.0725557868759381e-12   1.0626209915226556e-12   1.0958473467698624e-12   1.1982905252775771e-12   1.2374398829392748e-12   1.2095394282139434e-12   1.2468745758531691e-12   1.1388183798572616e-12   1.2669988342979928e-12   1.2469790197355344e-12   1.2704491686630964e-12   1.3106195066103267e-12   1.3832668068536563e-12   1.3373512827208801e-12   1.3891566968289985e-12   1.4070923125490183e-12   1.3651184399101816e-12   1.3220080237776446e-12   1.3535258699265560e-12   1.3343209041858809e-12   1.3683073668266681e-12   1.3501261244075012e-12   1.3745237124113645e-12   1.4205863524435160e-12   1.3349188793208669e-12   1.3058919433428033e-12   1.3463431950580225e-12   1.2270926555487254e-12   1.4231505930343072e-12   1.4714335713339462e-12   1.4358155753621907e-12   1.4551512549131817e-12   1.4031428887896732e-12   1.4497415927975992e-12   1.3983561730960820e-12   1.3777385492758130e-12   1.4978539753620565e-12   1.4767709333553321e-12   1.5116395707706346e-12   1.4616069571192991e-12   1.5496312491493490e-12   1.5268631769040906e-12   1.5555450573744761e-12   1.6091322950769824e-12   1.2454633677234797e-12   1.2429290636455251e-12   1.2836444303689286e-12   1.3832766572610413e-12   1.2115037664651575e-12   1.2108525841664582e-12   1.2719791434718091e-12   1.3967055960733836e-12   1.4343206992634289e-12   1.4049841205968329e-12   1.4470640220308253e-12   1.3170669637161872e-12   1.4712233163449156e-12   1.4561323086591558e-12   1.4814911751777675e-12   1.5333049201432094e-12   1.2723117514776098e-12   1.2783354289724228e-12   1.3621699452185015e-12   1.4972082189525161e-12   1.3090818194707130e-12   1.2990625773637954e-12   1.3701211420302801e-12   1.4732385886529430e-12   1.4549498705754803e-12   1.4841744173745348e-12   1.4285090923981112e-12   1.3270096066032267e-12   1.5093895420815699e-12   1.5225803371159436e-12   1.4907277375742966e-12   1.5456571304581657e-12   1.4768352158412342e-12   1.4278040982045875e-12   1.4613634052842986e-12   1.4450180769311536e-12   1.4916051437553064e-12   1.4394354863974864e-12   1.5016734304589114e-12   1.5159036734554780e-12   1.4029111198653652e-12   1.4197326098160321e-12   1.3881959614439650e-12   1.4372546557013482e-12   1.3552084136177352e-12   1.3845055968191626e-12   1.3376310207050305e-12   1.2402377137523166e-12   1.5213204175183693e-12   1.5751173666041256e-12   1.5127704191272841e-12   1.4949861870565406e-12   1.5380886527094856e-12   1.5938391419861871e-12   1.5550383100589763e-12   1.5704937178002386e-12   1.5391625375921132e-12   1.5589442068756206e-12   1.5320115086866355e-12   1.4802188484476460e-12   1.5928326201113314e-12   1.6148709860044164e-12   1.5778067062043627e-12   1.6327205949362560e-12   1.2962547785799767e-12   1.2581266212534016e-12   1.2979910760749065e-12   1.3219875445730032e-12   1.3306419289863025e-12   1.3709547482187480e-12   1.3372543817288977e-12   1.3629391067660053e-12   1.2899774015312790e-12   1.3297573146777402e-12   1.2876110736262731e-12   1.2652648209378127e-12   1.3119922756445739e-12   1.3534208201770998e-12   1.3208353143677435e-12   1.3424545009858565e-12   1.1894336286586057e-12   1.2260544700028020e-12   1.1969906894738492e-12   1.2175572292803547e-12   1.1564704932146125e-12   1.0704844797538349e-12   1.1629045688817831e-12   1.1899784824172018e-12   1.2572504386294965e-12   1.2200091982301906e-12   1.2491508393296648e-12   1.2282086249054555e-12   1.2775024283650620e-12   1.2377990237409421e-12   1.2806340989841799e-12   1.3008303720663109e-12   1.4239596290350146e-12   1.3988363880789209e-12   1.4269076153985086e-12   1.4729657323491329e-12   1.3794079053629333e-12   1.3560625247247302e-12   1.3890441840677420e-12   1.3458875498430880e-12   1.4344100472186157e-12   1.3903591246515482e-12   1.4365655460649603e-12   1.4636955371863166e-12   1.4070624916397993e-12   1.3648734351121701e-12   1.3998453223307979e-12   1.3722844916680182e-12   1.4621777030314205e-12   1.4863379285009772e-12   1.4516553679113528e-12   1.4996754205638069e-12   1.4157285666480907e-12   1.4380937054467984e-12   1.4118946848735239e-12   1.3670454191188352e-12   1.5407237101734726e-12   1.4906320055471172e-12   1.5292119281056777e-12   1.5029806458950149e-12   1.5661307037643131e-12   1.5141733842809771e-12   1.5710067996974952e-12   1.5954143864542176e-12   1.4897668382192632e-12   1.5342102078382816e-12   1.4946478969744765e-12   1.5283908945791127e-12   1.4502438959039302e-12   1.4078256945857307e-12   1.4511691310858419e-12   1.4827639772246933e-12   1.5762056475407407e-12   1.5294172968577051e-12   1.5708573363608809e-12   1.5347694249168704e-12   1.6123557426134819e-12   1.5632515305047407e-12   1.6134970783484765e-12   1.6497143567793903e-12   1.6230409378912050e-12   1.5766406108615030e-12   1.6233093493638483e-12   1.6644215930850843e-12   1.6686970296945659e-12   1.7169127713002368e-12   1.6706900435645769e-12   1.7145059735699180e-12   1.6193471289492332e-12   1.6683794430844406e-12   1.6187234884884487e-12   1.5802430367211340e-12   1.6580356300320413e-12   1.7096950193297890e-12   1.6639019276860729e-12   1.7025822496478790e-12   1.5538605760009999e-12   1.5223596867454346e-12   1.5625193175949365e-12   1.5135721963719750e-12   1.6040847092723250e-12   1.5702880659251425e-12   1.6058911083247929e-12   1.6574153321829821e-12   1.4740759505954430e-12   1.5207205048692880e-12   1.4819715090222276e-12   1.5111699811276018e-12   1.4446549349667393e-12   1.4891878945549265e-12   1.4431776161158566e-12   1.4136974666131242e-12   1.5965217285147998e-12   1.6278028192593571e-12   1.5938637418360147e-12   1.5425492730453271e-12   1.6492739986116682e-12   1.6834782373804752e-12   1.6397659764652062e-12   1.6935353310811267e-12   1.5849488594930759e-12   1.6390751073650026e-12   1.5811986485837694e-12   1.5527237780979079e-12   1.6126747993239779e-12   1.6697933307684829e-12   1.6253153137064131e-12   1.6513121289094323e-12   1.2962012023854774e-12   1.2580751908719829e-12   1.2979392833060509e-12   1.3219189211346327e-12   1.3305915572667104e-12   1.3709127473967774e-12   1.3372036943919993e-12   1.3628652961901234e-12   1.2899142669492366e-12   1.3296865992419760e-12   1.2875472358024034e-12   1.2652123964650271e-12   1.3119177667326168e-12   1.3533311933271297e-12   1.3207580555489426e-12   1.3423694853263997e-12   1.1893868945239402e-12   1.2260046452430140e-12   1.1969431273913890e-12   1.2175041343823536e-12   1.1564248206698557e-12   1.0704426432014562e-12   1.1628593582785201e-12   1.1899288301921023e-12   1.2571919815809015e-12   1.2199562300075220e-12   1.2490938100297942e-12   1.2281595185048682e-12   1.2774374226648738e-12   1.2377419586840489e-12   1.2805684901768080e-12   1.3007612229145647e-12   1.4238171527596539e-12   1.3987291904846762e-12   1.4267639722536846e-12   1.4727746053483148e-12   1.3793010910363995e-12   1.3559733170963135e-12   1.3889317213199488e-12   1.3458000938576131e-12   1.4342946493200989e-12   1.3902568437788638e-12   1.4364568404921410e-12   1.4635174026724821e-12   1.4069943463991028e-12   1.3648028112696904e-12   1.3997780414347968e-12   1.3722462206779702e-12   1.4619947702876666e-12   1.4861655502250282e-12   1.4514845202890644e-12   1.4994108793900130e-12   1.4156020293665022e-12   1.4379825076226555e-12   1.4117756675325836e-12   1.3669579165610556e-12   1.5403952111427483e-12   1.4904370783500318e-12   1.5289088120478173e-12   1.5027068352256455e-12   1.5659179345219641e-12   1.5140549709267513e-12   1.5707282610289822e-12   1.5954356798299052e-12   1.4898315929715576e-12   1.5343208370694145e-12   1.4947196309749046e-12   1.5284902781777347e-12   1.4502604011624262e-12   1.4078055702758812e-12   1.4511896675799126e-12   1.4827727752822408e-12   1.5764182961575642e-12   1.5295231557527721e-12   1.5710547774421821e-12   1.5348783508855397e-12   1.6127252542807532e-12   1.5633755802049753e-12   1.6138686125224349e-12   1.6503427984804066e-12   1.6231153265554548e-12   1.5767573035963994e-12   1.6233803817481951e-12   1.6645466389397813e-12   1.6687063945045511e-12   1.7168892419219425e-12   1.6706958908931787e-12   1.7144753135506176e-12   1.6195720211097164e-12   1.6684985256996722e-12   1.6189600838287287e-12   1.5803625279301209e-12   1.6585354380057744e-12   1.7099264040041799e-12   1.6644295554826873e-12   1.7039094500446260e-12   1.5536939104131577e-12   1.5223434064879052e-12   1.5623461869623321e-12   1.5133730524935232e-12   1.6041407858772083e-12   1.5704343794483244e-12   1.6060138628303225e-12   1.6581341403200973e-12   1.4739767822416376e-12   1.5206831205886815e-12   1.4818699929528029e-12   1.5109538172806077e-12   1.4446167815326782e-12   1.4892036898177000e-12   1.4431313030674550e-12   1.4136800747686866e-12   1.5960600822434789e-12   1.6267284396121758e-12   1.5933467573256446e-12   1.5421673004132809e-12   1.6489325627968617e-12   1.6818343637589933e-12   1.6394424126577065e-12   1.6941688395629660e-12   1.5843036869918780e-12   1.6378433677857727e-12   1.5806091173429159e-12   1.5523015082237002e-12   1.6121342360421385e-12   1.6682125320309511e-12   1.6247425936252140e-12   1.6514568764229121e-12   1.1438869495179738e-12   1.1378852441326791e-12   1.1825934684501409e-12   1.2962600968815287e-12   1.1748418209855415e-12   1.1783447240203693e-12   1.1969617139286372e-12   1.2918135502565776e-12   1.2572181011722069e-12   1.2857747051506523e-12   1.2461825419496463e-12   1.1541023974841783e-12   1.2980223783359206e-12   1.3172631658617549e-12   1.2870989811852453e-12   1.3298886786152877e-12   1.1003292924134621e-12   1.1084836877253684e-12   1.1118425434405849e-12   1.2009653474288618e-12   1.0725100927776279e-12   1.0625786150624231e-12   1.0958018340372682e-12   1.1982400555099143e-12   1.2373858298727779e-12   1.2094862209788799e-12   1.2468200093884246e-12   1.1387698842825184e-12   1.2669391645226987e-12   1.2469207743669010e-12   1.2703881316738092e-12   1.3105484063698733e-12   1.3832193628599931e-12   1.3373055988321952e-12   1.3891052426445204e-12   1.4070587469906385e-12   1.3650554816395514e-12   1.3219525182576489e-12   1.3534626690624815e-12   1.3342484930134373e-12   1.3682737775559499e-12   1.3500822308519409e-12   1.3744889750174929e-12   1.4205574367778066e-12   1.3348825872019617e-12   1.3058488939486083e-12   1.3463086808418538e-12   1.2270594804747324e-12   1.4230919270064399e-12   1.4713643809310258e-12   1.4357607057561063e-12   1.4551283980477754e-12   1.4030577772358710e-12   1.4496276324849134e-12   1.3982785294585592e-12   1.3776481203952540e-12   1.4978347256846194e-12   1.4766877551250313e-12   1.5116352707222582e-12   1.4615811387267831e-12   1.5496499163888157e-12   1.5267511557664655e-12   1.5555503323981959e-12   1.6092142458562062e-12   1.2454365664798057e-12   1.2429004889724360e-12   1.2836177353517710e-12   1.3832497033183665e-12   1.2114774324528272e-12   1.2108242952578781e-12   1.2719528222887264e-12   1.3966795477087572e-12   1.4342914230918728e-12   1.4049585319681328e-12   1.4470337818208428e-12   1.3170389028103792e-12   1.4711944677306625e-12   1.4561103071802457e-12   1.4814647701319296e-12   1.5332795215494605e-12   1.2722806475291952e-12   1.2783046746903980e-12   1.3621378618335560e-12   1.4971700448188258e-12   1.3090528979289651e-12   1.2990411204506190e-12   1.3700914516108643e-12   1.4732020193921795e-12   1.4549163048043063e-12   1.4841380661383184e-12   1.4284753130760472e-12   1.3269794811700642e-12   1.5093520409876598e-12   1.5225366843951699e-12   1.4906933236323072e-12   1.5456170534142948e-12   1.4768276257793981e-12   1.4277848663639113e-12   1.4613524170661612e-12   1.4450037208577329e-12   1.4915905816933668e-12   1.4394132240852423e-12   1.5016644835304453e-12   1.5158811971115918e-12   1.4028872079050112e-12   1.4197111252297820e-12   1.3881691071680992e-12   1.4372385758814920e-12   1.3551792685056791e-12   1.3844784681332277e-12   1.3376019894252409e-12   1.2402084589891679e-12   1.5213410920576374e-12   1.5751820794960105e-12   1.5127821228483202e-12   1.4949940338840191e-12   1.5380940963689547e-12   1.5938701859897874e-12   1.5550437228327300e-12   1.5704739103853331e-12   1.5392130865438782e-12   1.5589991862198829e-12   1.5320539209540090e-12   1.4802174513315199e-12   1.5929785194122289e-12   1.6150109932465214e-12   1.5779168250218658e-12   1.6330468555856799e-12   1.3174115567209689e-12   1.3484214365764416e-12   1.3172296426035126e-12   1.2824628205944892e-12   1.3528147188127036e-12   1.3857115235431577e-12   1.3514371058931843e-12   1.3873905190256011e-12   1.3145354512699355e-12   1.3511639047594782e-12   1.3141203491866194e-12   1.2849719845234304e-12   1.3439065155326550e-12   1.3823823870241310e-12   1.3479874142140595e-12   1.3774472264472177e-12   1.2852847509618106e-12   1.2548974175537546e-12   1.2865443230855446e-12   1.2535283601104364e-12   1.3187973266585263e-12   1.2866480770213989e-12   1.3188612398959860e-12   1.3529090229462008e-12   1.2235810084285172e-12   1.2548381894770700e-12   1.2247328143174701e-12   1.2533613638366275e-12   1.1952070556693196e-12   1.2248394261612508e-12   1.1951523540968850e-12   1.1671106353355353e-12   1.4591969800376860e-12   1.4191471529345010e-12   1.4594159434674469e-12   1.4950617929356491e-12   1.4239105290006203e-12   1.3859106198344974e-12   1.4224028247838664e-12   1.3874595684986685e-12   1.4555946535550441e-12   1.4221468387683170e-12   1.4560987949731737e-12