<?xml version="1.0"?>
<VTKFile type="UnstructuredGrid"  version="0.1"  >
<UnstructuredGrid>
<Piece  NumberOfPoints="3201" NumberOfCells="6144">
<Points>
<DataArray  type="Float64"  NumberOfComponents="3"  format="ascii">-1 1 0  -0.7500000000000002 1 0  -1 0.75 0  -0.5000000000000002 1 0  -0.4687317158419215 0.4687317158419215 0  -1 0.5000000000000002 0  -0.2500000000000001 1 0  -0.167322142694602 0.250983214041903 0  -0.250983214041903 0.167322142694602 0  -1 0.2500000000000001 0  1 1 0  0.9999999999979623 1.110223024622894e-16 0  1 0.2500000000000002 0  1 0.5000000000000002 0  1 0.75 0  0.75 1 0  0.5000000000000002 1 0  0.2500000000000001 1 0  0 0.9999999999979623 0  -0.02996239294911606 0.08988717884734818 0  -0.02199800931582472 0.02199800931582472 0  -0.08988717884734816 0.02996239294911605 0  -0.9999999999979623 0 0  0.4687317158419215 0.4687317158419215 0  0.0563135147094726 0 0  0.08988717884734816 0.02996239294911605 0  0.250983214041903 0.167322142694602 0  0.167322142694602 0.250983214041903 0  0.02996239294911605 0.08988717884734816 0  0 0.0563135147094726 0  -0.001332765915716535 0.00266553183143307 0  -0.00266553183143307 0.001332765915716535 0  -0.0563135147094726 0 0  -1 -0.2500000000000002 0  0.02199800931582472 0.02199800931582472 0  0.0009765624999999977 0 0  0.00266553183143307 0.001332765915716535 0  0.001332765915716535 0.00266553183143307 0  0 0.0009765624999999977 0  -2.157918606448279e-05 2.157918606448279e-05 0  -0.0009765624999999977 0 0  -0.08988717884734818 -0.02996239294911606 0  -1 -0.5000000000000002 0  2.157918606448279e-05 2.157918606448279e-05 0  9.536743164062467e-07 0 0  0 9.536743164062467e-07 0  -1 -0.7500000000000002 0  -9.536743164062467e-07 0 0  -0.00266553183143307 -0.001332765915716535 0  -0.250983214041903 -0.167322142694602 0  -1 -1 0  0 0 0  -0.4687317158419215 -0.4687317158419215 0  -2.157918606448279e-05 -2.157918606448279e-05 0  -0.02199800931582472 -0.02199800931582472 0  -0.7499999999999999 -1 0  0 -9.536743164062467e-07 0  -0.167322142694602 -0.250983214041903 0  -0.001332765915716535 -0.00266553183143307 0  -0.4999999999999993 -0.9999999999999986 0  0 -0.0009765624999999977 0  -0.02996239294911605 -0.08988717884734816 0  -0.2499999999999996 -0.9999999999999987 0  0 -0.0563135147094726 0  0 -0.9999999999979609 0  -0.8750000000000002 1 0  -1 0.8750000000000001 0  -0.8750000000000001 0.8750000000000001 0  -0.6250000000000002 1 0  -0.6093658579209609 0.7343658579209609 0  -0.7343658579209608 0.6093658579209608 0  -1 0.6250000000000001 0  -0.4843658579209609 0.734365857920961 0  -0.3750000000000002 1 0  -0.3336610713473011 0.6254916070209517 0  -0.734365857920961 0.4843658579209609 0  -0.3180269292682618 0.3598574649419123 0  -0.3598574649419123 0.3180269292682618 0  -0.6254916070209517 0.3336610713473012 0  -1 0.3750000000000002 0  -0.2086610713473011 0.6254916070209517 0  -0.1250000000000001 0.9999999999989814 0  -0.1399811964745581 0.5449435894236743 0  -0.2091526783682525 0.2091526783682525 0  -0.09864226782185904 0.1704351964446256 0  -0.09466007600521337 0.1364906116788639 0  -0.6254916070209517 0.2086610713473011 0  -0.1364906116788639 0.09466007600521338 0  -0.1704351964446256 0.09864226782185904 0  -0.5449435894236743 0.1399811964745581 0  -0.9999999999989814 0.1250000000000001 0  1 0.8750000000000001 0  0.8750000000000001 1 0  0.7343658579209609 0.7343658579209609 0  0.9999999999989814 0.1250000000000002 0  0.5281567573537175 5.551115123114471e-17 0  1 0.3750000000000002 0  0.5281567573547366 0.1250000000000001 0  0.5449435894236743 0.1399811964745581 0  1 0.6250000000000001 0  0.5449435894236743 0.2649811964745581 0  0.6254916070209517 0.3336610713473012 0  0.7343658579209608 0.6093658579209608 0  0.6254916070209515 0.4586610713473011 0  0.6250000000000001 1 0  0.6093658579209608 0.7343658579209608 0  0.4586610713473011 0.6254916070209515 0  0.3750000000000002 1 0  0.3336610713473012 0.6254916070209517 0  0.2649811964745581 0.5449435894236743 0  0.1250000000000001 0.9999999999989814 0  0.1399811964745581 0.5449435894236743 0  0.1250000000000001 0.5281567573547366 0  -0.01498119647455803 0.5449435894226552 0  0 0.5281567573537175 0  -0.02598020113247039 0.05594259408158644 0  -0.01498119647455803 0.07310034677841039 0  -0.0156475794324163 0.04627635533939062 0  -0.05594259408158644 0.02598020113247038 0  -0.01166538761577062 0.01233177057362889 0  -0.01233177057362889 0.01166538761577062 0  -0.5449435894226552 0.01498119647455803 0  -0.04627635533939062 0.01564757943241629 0  -0.07310034677841037 0.01498119647455803 0  -0.5281567573537175 0 0  -0.9999999999989814 -0.1250000000000001 0  0.3598574649419123 0.3180269292682618 0  0.3180269292682618 0.3598574649419123 0  0.2453648625788731 0.2453648625788731 0  0.07310034677841037 0.01498119647455803 0  0.0286450386047363 0 0  0.1704351964446256 0.09864226782185904 0  0.04543187067367408 0.01498119647455803 0  0.04627635533939062 0.01564757943241629 0  0.1364906116788639 0.09466007600521338 0  0.1268243729366681 0.0843274543051593 0  0.09864226782185904 0.1704351964446256 0  0.09466007600521338 0.1364906116788639 0  0.0843274543051593 0.1268243729366681 0  0.01498119647455803 0.07310034677841037 0  0.01564757943241629 0.04627635533939062 0  0.01498119647455803 0.04543187067367408 0  -0.0006663829578582675 0.02948952327045283 0  0 0.0286450386047363 0  -0.001999148873574802 0.001999148873574802 0  -0.0006663829578582675 0.001821047165716534 0  -0.0006771725508905089 0.001343555508748776 0  -0.02948952327045283 0.0006663829578582675 0  -0.001343555508748776 0.0006771725508905089 0  -0.001821047165716534 0.0006663829578582675 0  -0.5281567573547366 -0.1250000000000001 0  -0.0286450386047363 0 0  -0.07310034677841039 -0.01498119647455803 0  -0.5449435894236743 -0.1399811964745581 0  -1 -0.3750000000000002 0  0.01233177057362889 0.01166538761577062 0  0.01166538761577062 0.01233177057362889 0  0.0110097942509446 0.0110097942509446 0  0.001821047165716534 0.0006663829578582675 0  0.0004887580871582019 0 0  0.001343555508748776 0.0006771725508905089 0  0.001333242752874738 0.0006663829578582675 0  0.0006663829578582675 0.001821047165716534 0  0.0006771725508905089 0.001343555508748776 0  0.0006663829578582675 0.001333242752874738 0  -1.078959303224139e-05 0.0004990708430322403 0  0 0.0004887580871582019 0  -0.0004990708430322403 1.078959303224139e-05 0  -1.078959303224139e-05 1.126643019044452e-05 0  -1.126643019044452e-05 1.078959303224139e-05 0  -0.04543187067367409 -0.01498119647455803 0  -0.0004887580871582019 0 0  -0.001821047165716534 -0.0006663829578582675 0  -0.5449435894236743 -0.2649811964745581 0  -0.04627635533939062 -0.0156475794324163 0  -0.1704351964446256 -0.09864226782185904 0  -1 -0.6250000000000002 0  -0.6254916070209517 -0.3336610713473011 0  1.126643019044452e-05 1.078959303224139e-05 0  1.078959303224139e-05 1.126643019044452e-05 0  1.078959303224139e-05 1.078959303224139e-05 0  4.768371582031234e-07 0 0  -4.768371582031234e-07 4.768371582031234e-07 0  0 4.768371582031234e-07 0  -0.6254916070209516 -0.4586610713473011 0  -1 -0.8750000000000002 0  -0.7343658579209609 -0.6093658579209609 0  -0.001333242752874738 -0.0006663829578582675 0  -4.768371582031234e-07 0 0  -1.126643019044452e-05 -1.078959303224139e-05 0  -0.1268243729366681 -0.08432745430515928 0  -0.001343555508748776 -0.0006771725508905089 0  -0.01233177057362889 -0.01166538761577062 0  -0.3598574649419123 -0.3180269292682618 0  -0.1364906116788639 -0.09466007600521337 0  -0.7343658579209608 -0.7343658579209609 0  -0.875 -1 0  -1.078959303224139e-05 -1.078959303224139e-05 0  0 -4.768371582031234e-07 0  -0.2453648625788731 -0.2453648625788731 0  -0.6093658579209607 -0.7343658579209608 0  -0.3180269292682617 -0.3598574649419122 0  -0.0110097942509446 -0.0110097942509446 0  -1.078959303224139e-05 -1.126643019044452e-05 0  -0.0006771725508905089 -0.001343555508748776 0  -0.09466007600521335 -0.1364906116788639 0  -0.01166538761577062 -0.01233177057362889 0  -0.4586610713473009 -0.6254916070209515 0  -0.6249999999999996 -0.9999999999999993 0  -0.0006663829578582675 -0.001333242752874738 0  0 -0.0004887580871582019 0  -0.08432745430515927 -0.126824372936668 0  -0.3336610713473006 -0.6254916070209507 0  -0.09864226782185902 -0.1704351964446256 0  -0.0006663829578582675 -0.001821047165716534 0  -0.01564757943241629 -0.04627635533939062 0  -0.2649811964745576 -0.5449435894236734 0  -0.3749999999999994 -0.9999999999999987 0  -0.01498119647455803 -0.04543187067367408 0  0 -0.0286450386047363 0  -0.1399811964745578 -0.5449435894236734 0  -0.01498119647455803 -0.07310034677841037 0  -0.1249999999999998 -0.5281567573547357 0  -0.1249999999999998 -0.9999999999989797 0  0 -0.5281567573537167 0  -0.9375000000000002 1 0  -1 0.9375000000000002 0  -0.9375000000000002 0.9375000000000002 0  -0.8125000000000002 1 0  -0.8125000000000002 0.9375000000000002 0  -0.6875000000000002 1 0  -0.6796829289604805 0.8671829289604805 0  -1 0.8125 0  -0.9375 0.8125 0  -0.8046829289604804 0.7421829289604804 0  -0.8671829289604804 0.6796829289604804 0  -1 0.6875 0  -0.5625000000000002 1 0  -0.5546829289604805 0.8671829289604807 0  -0.4921829289604805 0.8671829289604807 0  -0.4375000000000002 1 0  -0.4168305356736507 0.8127458035104761 0  -0.5390487868814412 0.6015487868814412 0  -0.6015487868814411 0.5390487868814411 0  -0.4765487868814412 0.6015487868814412 0  -0.4011963935946113 0.5471116614314366 0  -0.6015487868814412 0.4765487868814412 0  -0.3933793225550916 0.4142945903919169 0  -0.4142945903919169 0.3933793225550916 0  -0.5471116614314366 0.4011963935946113 0  -0.8671829289604807 0.5546829289604804 0  -1 0.5625000000000002 0  -0.8671829289604807 0.4921829289604805 0  -0.8127458035104761 0.4168305356736507 0  -1 0.4375000000000002 0  -0.3125000000000001 1 0  -0.2918305356736506 0.8127458035104761 0  -0.2293305356736506 0.8127458035104761 0  -0.1875000000000001 0.9999999999994909 0  -0.1949905982372791 0.7724717947118374 0  -0.2504916070209516 0.4382374105314274 0  -0
[...]
<CellData  Scalars="mu"> 
<DataArray  type="Float64"  Name="mu"  format="ascii">2.0710678118654829e-01   2.0710678118664169e-01   2.0710678118654829e-01   2.0710678118654829e-01   2.0710678118654902e-01   2.0710678118655046e-01   2.0710678118654877e-01   2.0710678118654774e-01   2.0710678118664150e-01   2.0710678118654732e-01   2.0710678118654807e-01   2.0710678118654732e-01   2.0710678118654807e-01   2.0710678118654774e-01   2.0710678118654788e-01   2.0710678118654649e-01   2.0710678118654752e-01   2.0710678118654677e-01   2.0710678118654752e-01   2.0710678118654752e-01   2.0710678118654752e-01   2.0710678118654752e-01   2.0710678118654752e-01   2.0710678118654752e-01   2.0710678118654677e-01   2.0710678118654752e-01   2.0710678118654677e-01   2.0710678118654677e-01   2.0710678118654677e-01   2.0710678118654752e-01   2.0710678118654677e-01   2.0710678118654752e-01   2.0710678118654902e-01   2.0710678118654902e-01   2.0710678118654902e-01   2.0710678118654752e-01   2.0710678118654902e-01   2.0710678118655046e-01   2.0710678118654902e-01   2.0710678118654752e-01   2.0710678118654752e-01   2.0710678118654752e-01   2.0710678118654752e-01   2.0710678118654902e-01   2.0710678118654752e-01   2.0710678118654752e-01   2.0710678118654752e-01   2.0710678118645209e-01   2.0710678118654902e-01   2.0710678118654902e-01   2.0710678118654902e-01   2.0710678118654752e-01   2.0710678118654902e-01   2.0710678118654902e-01   2.0710678118654902e-01   2.0710678118654752e-01   2.0710678118654752e-01   2.0710678118654752e-01   2.0710678118654752e-01   2.0710678118654902e-01   2.0710678118654752e-01   2.0710678118654752e-01   2.0710678118654752e-01   2.0710678118664150e-01   1.7039121018108480e-01   1.5972139501819227e-01   1.7039121018110301e-01   1.5972139501819260e-01   1.5972139501819255e-01   1.7039121018108502e-01   1.5972139501817537e-01   1.7039121018110284e-01   1.7039121018108494e-01   1.5972139501817520e-01   1.7039121018108494e-01   1.5972139501819274e-01   1.5972139501817514e-01   1.7039121018108494e-01   1.5972139501819224e-01   1.7039121018108686e-01   1.5972139501819210e-01   1.7039121018108494e-01   1.5972139501819210e-01   1.7039121018110284e-01   1.7039121018108494e-01   1.5972139501819210e-01   1.7039121018108494e-01   1.5972139501817562e-01   1.5972139501819269e-01   1.7039121018108494e-01   1.5972139501817550e-01   1.7039121018108461e-01   1.7039121018110340e-01   1.5972139501819269e-01   1.7039121018110318e-01   1.5972139501818414e-01   1.7039121018110284e-01   1.5972139501817534e-01   1.7039121018108461e-01   1.5972139501817628e-01   1.5972139501815863e-01   1.7039121018110326e-01   1.5972139501817562e-01   1.7039121018110284e-01   1.7039121018110470e-01   1.5972139501819241e-01   1.7039121018108636e-01   1.5972139501817648e-01   1.5972139501817664e-01   1.7039121018110318e-01   1.5972139501819374e-01   1.7039121018110506e-01   1.5972139501815794e-01   1.7039121018110318e-01   1.5972139501817503e-01   1.7039121018110395e-01   1.7039121018108494e-01   1.5972139501819210e-01   1.7039121018106670e-01   1.5972139501819269e-01   1.5972139501815907e-01   1.7039121018112163e-01   1.5972139501817620e-01   1.7039121018110409e-01   1.7039121018108530e-01   1.5972139501820978e-01   1.7039121018112174e-01   1.5972139501817562e-01   1.7039121018110506e-01   1.5972139501819374e-01   1.7039121018108680e-01   1.5972139501817520e-01   1.5972139501817664e-01   1.7039121018110506e-01   1.5972139501819374e-01   1.7039121018108480e-01   1.7039121018110301e-01   1.5972139501819227e-01   1.7039121018108480e-01   1.5972139501817664e-01   1.5972139501817520e-01   1.7039121018112124e-01   1.5972139501819227e-01   1.7039121018108494e-01   1.5972139501819374e-01   1.7039121018108680e-01   1.5972139501819374e-01   1.7039121018112083e-01   1.7039121018112233e-01   1.5972139501814164e-01   1.7039121018108611e-01   1.5972139501817539e-01   1.5972139501817520e-01   1.7039121018108447e-01   1.5972139501817520e-01   1.7039121018112327e-01   1.7039121018110301e-01   1.5972139501819260e-01   1.7039121018108480e-01   1.5972139501817503e-01   1.7039121018108494e-01   1.5972139501819227e-01   1.7039121018108494e-01   1.5972139501819241e-01   1.5972139501817503e-01   1.7039121018108480e-01   1.5972139501817503e-01   1.7039121018108494e-01   1.7039121018110293e-01   1.5972139501817520e-01   1.7039121018110293e-01   1.5972139501817537e-01   1.5972139501819216e-01   1.7039121018110301e-01   1.5972139501819224e-01   1.7039121018108686e-01   1.5972139501819241e-01   1.7039121018110315e-01   1.5972139501817545e-01   1.7039121018110326e-01   1.7039121018110318e-01   1.5972139501817562e-01   1.7039121018110318e-01   1.5972139501819210e-01   1.5972139501819227e-01   1.7039121018108480e-01   1.5972139501817520e-01   1.7039121018108494e-01   1.7039121018110318e-01   1.5972139501817503e-01   1.7039121018110318e-01   1.5972139501818414e-01   1.4960323526272931e-01   2.1719829896019974e-01   1.4960323526270827e-01   2.1719829896018378e-01   2.1719829896019960e-01   1.4960323526272901e-01   2.1719829896016921e-01   1.4960323526272898e-01   1.4960323526270766e-01   2.1719829896016921e-01   1.4960323526271813e-01   2.1719829896018358e-01   2.1719829896018439e-01   1.4960323526271851e-01   2.1719829896019960e-01   1.4960323526272898e-01   2.1719829896016840e-01   1.4960323526272890e-01   2.1719829896019879e-01   1.4960323526271851e-01   1.4960323526272923e-01   2.1719829896019960e-01   1.4960323526272923e-01   2.1719829896019879e-01   2.1719829896018358e-01   1.4960323526271843e-01   2.1719829896018358e-01   1.4960323526270805e-01   1.4960323526272931e-01   2.1719829896016940e-01   1.4960323526271874e-01   2.1719829896018378e-01   1.4960323526271874e-01   2.1719829896018378e-01   1.4960323526272931e-01   2.1719829896016940e-01   2.1719829896019960e-01   1.4960323526272898e-01   2.1719829896019960e-01   1.4960323526271851e-01   1.4960323526271813e-01   2.1719829896019960e-01   1.4960323526272862e-01   2.1719829896019879e-01   2.1719829896018439e-01   1.4960323526272898e-01   2.1719829896018439e-01   1.4960323526270805e-01   2.1719829896018358e-01   1.4960323526271851e-01   2.1719829896016840e-01   1.4960323526272890e-01   1.4960323526270769e-01   2.1719829896016840e-01   1.4960323526271813e-01   2.1719829896018439e-01   2.1719829896018358e-01   1.4960323526271843e-01   2.1719829896018358e-01   1.4960323526271851e-01   1.4960323526272376e-01   2.1719829896019135e-01   1.4960323526272376e-01   2.1719829896018439e-01   1.1309610705111775e-01   1.1588261140449577e-01   1.1309610705111819e-01   1.1588261140449516e-01   1.1588261140449567e-01   1.1309610705111829e-01   1.1588261140449563e-01   1.1309610705111817e-01   1.1309610705111819e-01   1.1588261140449536e-01   1.1309610705111797e-01   1.1588261140449556e-01   1.1588261140449552e-01   1.1309610705111744e-01   1.1588261140449552e-01   1.1309610705111797e-01   1.1588261140449586e-01   1.1309610705111829e-01   1.1588261140449586e-01   1.1309610705111825e-01   1.1309610705111831e-01   1.1588261140449493e-01   1.1309610705111833e-01   1.1588261140449498e-01   1.1588261140449593e-01   1.1309610705111785e-01   1.1588261140449546e-01   1.1309610705111804e-01   1.1309610705111781e-01   1.1588261140449586e-01   1.1309610705111803e-01   1.1588261140449552e-01   1.1309610705111642e-01   1.1588261140449670e-01   1.1309610705111819e-01   1.1588261140449396e-01   1.1588261140449420e-01   1.1309610705111833e-01   1.1588261140449602e-01   1.1309610705111822e-01   1.1309610705111819e-01   1.1588261140449486e-01   1.1309610705111731e-01   1.1588261140449579e-01   1.1588261140449477e-01   1.1309610705111829e-01   1.1588261140449517e-01   1.1309610705111814e-01   1.1588261140449564e-01   1.1309610705111640e-01   1.1588261140449570e-01   1.1309610705111832e-01   1.1309610705111837e-01   1.1588261140449584e-01   1.1309610705111661e-01   1.1588261140449584e-01   1.1588261140449602e-01   1.1309610705111822e-01   1.1588261140449602e-01   1.1309610705111661e-01   1.1309610705111661e-01   1.1588261140449765e-01   1.1309610705112014e-01   1.1588261140449464e-01   2.0675116636235075e-01   1.4332365458051594e-01   2.0675116636235363e-01   1.4332365458051616e-01   1.4332365458051613e-01   8.6427402506326023e-02   1.4332365458051616e-01   8.6427402506326523e-02   2.0675116636234805e-01   1.4332365458051644e-01   2.0675116636235061e-01   1.4332365458051602e-01   1.4332365458051943e-01   8.6427402506328771e-02   1.4332365458052052e-01   8.6427402506326828e-02   1.4332365458051619e-01   8.6427402506326009e-02   1.4332365458051602e-01   8.6427402506326523e-02   8.6427402506324247e-02   5.3791181945724548e-02   8.6427402506326842e-02   5.3791181945723077e-02   1.4332365458051619e-01   8.6427402506326606e-02   1.4332365458051607e-01   8.6427402506326634e-02   8.6427402506326620e-02   5.3791181945724555e-02   8.6427402506326662e-02   5.3791181945724187e-02   2.0675116636234805e-01   1.4332365458051943e-01   2.0675116636235408e-01   1.4332365458052049e-01   1.4332365458051244e-01   8.6427402506325510e-02   1.4332365458051161e-01   8.6427402506326551e-02   2.0675116636235960e-01   1.4332365458051260e-01   2.0675116636234792e-01   1.4332365458051619e-01   1.4332365458051230e-01   8.6427402506328688e-02   1.4332365458051216e-01   8.6427402506329354e-02   1.4332365458052004e-01   8.6427402506328632e-02   1.4332365458050433e-01   8.6427402506328993e-02   8.6427402506328813e-02   5.3791181945720065e-02   8.6427402506329076e-02   5.3791181945720135e-02   1.4332365458051982e-01   8.6427402506329187e-02   1.4332365458050422e-01   8.6427402506338513e-02   8.6427402506328493e-02   5.3791181945731854e-02   8.6427402506319098e-02   5.3791181945720537e-02   1.3776410375647141e-01   1.2532097103257916e-01   1.3776410375646619e-01   1.2532097103257889e-01   1.2532097103257889e-01   1.3776410375646644e-01   1.2532097103257880e-01   1.3776410375646617e-01   1.3776410375647172e-01   1.2532097103257916e-01   1.3776410375647163e-01   1.2532097103257880e-01   1.2532097103257908e-01   1.3776410375646653e-01   1.2532097103257903e-01   1.3776410375647249e-01   1.2532097103257883e-01   1.3776410375646908e-01   1.2532097103257647e-01   1.3776410375646886e-01   1.3776410375647136e-01   1.2532097103257903e-01   1.3776410375647136e-01   1.2532097103257883e-01   1.2532097103257683e-01   1.3776410375647166e-01   1.2532097103257683e-01   1.3776410375647150e-01   1.3776410375646900e-01   1.2532097103257897e-01   1.3776410375646900e-01   1.2532097103257767e-01   1.3776410375646644e-01   1.2532097103258377e-01   1.3776410375647691e-01   1.2532097103258455e-01   1.2532097103257908e-01   1.3776410375646636e-01   1.2532097103258383e-01   1.3776410375646617e-01   1.3776410375646733e-01   1.2532097103257431e-01   1.3776410375647258e-01   1.2532097103257497e-01   1.2532097103258463e-01   1.3776410375646653e-01   1.2532097103257511e-01   1.3776410375647258e-01   1.2532097103257916e-01   1.3776410375647691e-01   1.2532097103257916e-01   1.3776410375646742e-01   1.3776410375647175e-01   1.2532097103257431e-01   1.3776410375646653e-01   1.2532097103257894e-01   1.2532097103258447e-01   1.3776410375646636e-01   1.2532097103258455e-01   1.3776410375646742e-01   1.3776410375646733e-01   1.2532097103257431e-01   1.3776410375646733e-01   1.2532097103258463e-01   1.7349960242665308e-01   1.1942067407125348e-01   1.7349960242665621e-01   1.1942067407125316e-01   1.1942067407125341e-01   7.6398686420385845e-02   1.1942067407125341e-01   7.6398686420382847e-02   1.7349960242665427e-01   1.1942067407125465e-01   1.7349960242665291e-01   1.1942067407125348e-01   1.1942067407125474e-01   7.6398686420382958e-02   1.1942067407125463e-01   7.6398686420383485e-02   1.1942067407125460e-01   7.6398686420383721e-02   1.1942067407125470e-01   7.6398686420383180e-02   7.6398686420383194e-02   5.0302549168726521e-02   7.6398686420383152e-02   5.0302549168726562e-02   1.1942067407125470e-01   7.6398686420383707e-02   1.1942067407125428e-01   7.6398686420383485e-02   7.6398686420384429e-02   5.0302549168725515e-02   7.6398686420384346e-02   5.0302549168726028e-02   1.7349960242665222e-01   1.1942067407125813e-01   1.7349960242665230e-01   1.1942067407126288e-01   1.1942067407125348e-01   7.6398686420382916e-02   1.1942067407125348e-01   7.6398686420382736e-02   1.7349960242665277e-01   1.1942067407125360e-01   1.7349960242665233e-01   1.1942067407125345e-01   1.1942067407125348e-01   7.6398686420382819e-02   1.1942067407125345e-01   7.6398686420382736e-02   1.1942067407125348e-01   7.6398686420382902e-02   1.1942067407125349e-01   7.6398686420382764e-02   7.6398686420388995e-02   5.0302549168730379e-02   7.6398686420376838e-02   5.0302549168726021e-02   1.1942067407124868e-01   7.6398686420385956e-02   1.1942067407124868e-01   7.6398686420385761e-02   7.6398686420379891e-02   5.0302549168728013e-02   7.6398686420382902e-02   5.0302549168726021e-02   1.1309610705111731e-01   1.1588261140449579e-01   1.1309610705111819e-01   1.1588261140449577e-01   1.1588261140449564e-01   1.1309610705111814e-01   1.1588261140449567e-01   1.1309610705111829e-01   1.1309610705111642e-01   1.1588261140449579e-01   1.1309610705111819e-01   1.1588261140449396e-01   1.1588261140449510e-01   1.1309610705111833e-01   1.1588261140449602e-01   1.1309610705111822e-01   1.1588261140449602e-01   1.1309610705111661e-01   1.1588261140449420e-01   1.1309610705112000e-01   1.1309610705111661e-01   1.1588261140449464e-01   1.1309610705112014e-01   1.1588261140449765e-01   1.1588261140449564e-01   1.1309610705111640e-01   1.1588261140449570e-01   1.1309610705111832e-01   1.1309610705111837e-01   1.1588261140449584e-01   1.1309610705112014e-01   1.1588261140449584e-01   1.1309610705111819e-01   1.1588261140449577e-01   1.1309610705111775e-01   1.1588261140449536e-01   1.1588261140449567e-01   1.1309610705111740e-01   1.1588261140449563e-01   1.1309610705111905e-01   1.1309610705111819e-01   1.1588261140449491e-01   1.1309610705111797e-01   1.1588261140449554e-01   1.1588261140449597e-01   1.1309610705111790e-01   1.1588261140449574e-01   1.1309610705111797e-01   1.1588261140449542e-01   1.1309610705111833e-01   1.1588261140449542e-01   1.1309610705111824e-01   1.1309610705111831e-01   1.1588261140449538e-01   1.1309610705111833e-01   1.1588261140449498e-01   1.1588261140449546e-01   1.1309610705111786e-01   1.1588261140449568e-01   1.1309610705111824e-01   1.1309610705111781e-01   1.1588261140449586e-01   1.1309610705111807e-01   1.1588261140449571e-01   1.3776410375646733e-01   1.2532097103258447e-01   1.3776410375646728e-01   1.2532097103258377e-01   1.2532097103257978e-01   1.3776410375646739e-01   1.2532097103257978e-01   1.3776410375646644e-01   1.3776410375646653e-01   1.2532097103257431e-01   1.3776410375647696e-01   1.2532097103257503e-01   1.2532097103257442e-01   1.3776410375646644e-01   1.2532097103257442e-01   1.3776410375646619e-01   1.2532097103258455e-01   1.3776410375646739e-01   1.2532097103257497e-01   1.3776410375647685e-01   1.3776410375646733e-01   1.2532097103258463e-01   1.3776410375646733e-01   1.2532097103257431e-01   1.2532097103257425e-01   1.3776410375647691e-01   1.2532097103258383e-01   1.3776410375647788e-01   1.3776410375647685e-01   1.2532097103257431e-01   1.3776410375647691e-01   1.2532097103257889e-01   1.3776410375647141e-01   1.2532097103257911e-01   1.3776410375646880e-01   1.2532097103257892e-01   1.2532097103257409e-01   1.3776410375646642e-01   1.2532097103257889e-01   1.3776410375647141e-01   1.3776410375646653e-01   1.2532097103258386e-01   1.3776410375646650e-01   1.2532097103258127e-01   1.2532097103257919e-01   1.3776410375647166e-01   1.2532097103257919e-01   1.3776410375647263e-01   1.2532097103257883e-01   1.3776410375646908e-01   1.2532097103257883e-01   1.3776410375646625e-01   1.3776410375646625e-01   1.2532097103257916e-01   1.3776410375646625e-01   1.2532097103257883e-01   1.2532097103257903e-01   1.3776410375647166e-01   1.2532097103257672e-01   1.3776410375647150e-01   1.3776410375646883e-01   1.2532097103257658e-01   1.3776410375647152e-01   1.2532097103257886e-01   2.0675116636234817e-01   1.4332365458051977e-01   2.0675116636235960e-01   1.4332365458051236e-01   1.4332365458051968e-01   8.6427402506328715e-02   1.4332365458051238e-01   8.6427402506329354e-02   2.0675116636235411e-01   1.4332365458051260e-01   2.0675116636235980e-01   1.4332365458051957e-01   1.4332365458051560e-01   8.6427402506326551e-02   1.4332365458051649e-01   8.6427402506326814e-02   1.4332365458050483e-01   8.6427402506329368e-02   1.4332365458051960e-01   8.6427402506323955e-02   8.6427402506319098e-02   5.3791181945720537e-02   8.6427402506328493e-02   5.3791181945725915e-02   1.4332365458051213e-01   8.6427402506324261e-02   1.4332365458052018e-01   8.6427402506328993e-02   8.6427402506329132e-02   5.3791181945720065e-02   8.6427402506328965e-02   5.3791181945723077e-02   2.0675116636235374e-01   1.4332365458051607e-01   2.0675116636235388e-01   1.4332365458051427e-01   1.4332365458051619e-01   8.6427402506325385e-02   1.4332365458051627e-01   8.6427402506325454e-02   2.0675116636235405e-01   1.4332365458051258e-01   2.0675116636235111e-01   1.4332365458051621e-01   1.4332365458051158e-01   8.6427402506328826e-02   1.4332365458051638e-01   8.6427402506329146e-02   1.4332365458051619e-01   8.6427402506325968e-02   1.4332365458051619e-01   8.6427402506326662e-02   8.6427402506324247e-02   5.3791181945723077e-02   8.6427402506326828e-02   5.3791181945726053e-02   1.4332365458051521e-01   8.6427402506326009e-02   1.4332365458051619e-01   8.6427402506326675e-02   8.6427402506326023e-02   5.3791181945724555e-02   8.6427402506326662e-02   5.3791181945724187e-02   1.7349960242665252e-01   1.1942067407125345e-01   1.7349960242665247e-01   1.1942067407125349e-01   1.1942067407125820e-01   7.6398686420382902e-02   1.1942067407125348e-01   7.6398686420385761e-02   1.7349960242665308e-01   1.1942067407125599e-01   1.7349960242665591e-01   1.1942067407125342e-01   1.1942067407125576e-01   7.6398686420381320e-02   1.1942067407125338e-01   7.6398686420382736e-02   1.1942067407125348e-01   7.6398686420382902e-02   1.1942067407125349e-01   7.6398686420382764e-02   7.6398686420388995e-02   5.0302549168726389e-02   7.6398686420382902e-02   5.0302549168726021e-02   1.1942067407125341e-01   7.6398686420385956e-02   1.1942067407125341e-01   7.6398686420385761e-02   7.6398686420382916e-02   5.0302549168728013e-02   7.6398686420382902e-02   5.0302549168726021e-02   1.7349960242665255e-01   1.1942067407125585e-01   1.7349960242665463e-01   1.1942067407125465e-01   1.1942067407125463e-01   7.6398686420383541e-02   1.1942067407125463e-01   7.6398686420383652e-02   1.7349960242665308e-01   1.1942067407125349e-01   1.7349960242665621e-01   1.1942067407125316e-01   1.1942067407125348e-01   7.6398686420385845e-02   1.1942067407125585e-01   7.6398686420385872e-02   1.1942067407125471e-01   7.6398686420382791e-02   1.1942067407125348e-01   7.6398686420382902e-02   7.6398686420384429e-02   5.0302549168726014e-02   7.6398686420382847e-02   5.0302549168727027e-02   1.1942067407125470e-01   7.6398686420383180e-02   1.1942067407125460e-01   7.6398686420384471e-02   7.6398686420383180e-02   5.0302549168726056e-02   7.6398686420383360e-02   5.0302549168726410e-02   2.1860625184499488e-01   1.9379177982805812e-01   2.1860625184499488e-01   1.9379177982804907e-01   1.9379177982805837e-01   2.1860625184499508e-01   1.9379177982805837e-01   2.1860625184499538e-01   2.1860625184499591e-01   1.9379177982805820e-01   2.1860625184499569e-01   1.9379177982806703e-01   1.9379177982805360e-01   2.1860625184499519e-01   1.9379177982806267e-01   2.1860625184499538e-01   1.9379177982805817e-01   2.1860625184499005e-01   1.9379177982805798e-01   2.1860625184499588e-01   2.1860625184499291e-01   1.0853683515764617e-01   2.1860625184499310e-01   1.0853683515764623e-01   1.9379177982805357e-01   2.1860625184499521e-01   1.9379177982805815e-01   2.1860625184499552e-01   2.1860625184499552e-