<?xml version="1.0"?>
<VTKFile type="UnstructuredGrid"  version="0.1"  >
<UnstructuredGrid>
<Piece  NumberOfPoints="833" NumberOfCells="1536">
<Points>
<DataArray  type="Float64"  NumberOfComponents="3"  format="ascii">-1 1 0  -0.7500000000000002 1 0  -1 0.75 0  -0.5000000000000002 1 0  -0.4687317158419215 0.4687317158419215 0  -1 0.5000000000000002 0  -0.2500000000000001 1 0  -0.167322142694602 0.250983214041903 0  -0.250983214041903 0.167322142694602 0  -1 0.2500000000000001 0  1 1 0  0.9999999999979623 1.110223024622894e-16 0  1 0.2500000000000002 0  1 0.5000000000000002 0  1 0.75 0  0.75 1 0  0.5000000000000002 1 0  0.2500000000000001 1 0  0 0.9999999999979623 0  -0.02996239294911606 0.08988717884734818 0  -0.02199800931582472 0.02199800931582472 0  -0.08988717884734816 0.02996239294911605 0  -0.9999999999979623 0 0  0.4687317158419215 0.4687317158419215 0  0.0563135147094726 0 0  0.08988717884734816 0.02996239294911605 0  0.250983214041903 0.167322142694602 0  0.167322142694602 0.250983214041903 0  0.02996239294911605 0.08988717884734816 0  0 0.0563135147094726 0  -0.001332765915716535 0.00266553183143307 0  -0.00266553183143307 0.001332765915716535 0  -0.0563135147094726 0 0  -1 -0.2500000000000002 0  0.02199800931582472 0.02199800931582472 0  0.0009765624999999977 0 0  0.00266553183143307 0.001332765915716535 0  0.001332765915716535 0.00266553183143307 0  0 0.0009765624999999977 0  -2.157918606448279e-05 2.157918606448279e-05 0  -0.0009765624999999977 0 0  -0.08988717884734818 -0.02996239294911606 0  -1 -0.5000000000000002 0  2.157918606448279e-05 2.157918606448279e-05 0  9.536743164062467e-07 0 0  0 9.536743164062467e-07 0  -1 -0.7500000000000002 0  -9.536743164062467e-07 0 0  -0.00266553183143307 -0.001332765915716535 0  -0.250983214041903 -0.167322142694602 0  -1 -1 0  0 0 0  -0.4687317158419215 -0.4687317158419215 0  -2.157918606448279e-05 -2.157918606448279e-05 0  -0.02199800931582472 -0.02199800931582472 0  -0.7499999999999999 -1 0  0 -9.536743164062467e-07 0  -0.167322142694602 -0.250983214041903 0  -0.001332765915716535 -0.00266553183143307 0  -0.4999999999999993 -0.9999999999999986 0  0 -0.0009765624999999977 0  -0.02996239294911605 -0.08988717884734816 0  -0.2499999999999996 -0.9999999999999987 0  0 -0.0563135147094726 0  0 -0.9999999999979609 0  -0.8750000000000002 1 0  -1 0.8750000000000001 0  -0.8750000000000001 0.8750000000000001 0  -0.6250000000000002 1 0  -0.6093658579209609 0.7343658579209609 0  -0.7343658579209608 0.6093658579209608 0  -1 0.6250000000000001 0  -0.4843658579209609 0.734365857920961 0  -0.3750000000000002 1 0  -0.3336610713473011 0.6254916070209517 0  -0.734365857920961 0.4843658579209609 0  -0.3180269292682618 0.3598574649419123 0  -0.3598574649419123 0.3180269292682618 0  -0.6254916070209517 0.3336610713473012 0  -1 0.3750000000000002 0  -0.2086610713473011 0.6254916070209517 0  -0.1250000000000001 0.9999999999989814 0  -0.1399811964745581 0.5449435894236743 0  -0.2091526783682525 0.2091526783682525 0  -0.09864226782185904 0.1704351964446256 0  -0.09466007600521337 0.1364906116788639 0  -0.6254916070209517 0.2086610713473011 0  -0.1364906116788639 0.09466007600521338 0  -0.1704351964446256 0.09864226782185904 0  -0.5449435894236743 0.1399811964745581 0  -0.9999999999989814 0.1250000000000001 0  1 0.8750000000000001 0  0.8750000000000001 1 0  0.7343658579209609 0.7343658579209609 0  0.9999999999989814 0.1250000000000002 0  0.5281567573537175 5.551115123114471e-17 0  1 0.3750000000000002 0  0.5281567573547366 0.1250000000000001 0  0.5449435894236743 0.1399811964745581 0  1 0.6250000000000001 0  0.5449435894236743 0.2649811964745581 0  0.6254916070209517 0.3336610713473012 0  0.7343658579209608 0.6093658579209608 0  0.6254916070209515 0.4586610713473011 0  0.6250000000000001 1 0  0.6093658579209608 0.7343658579209608 0  0.4586610713473011 0.6254916070209515 0  0.3750000000000002 1 0  0.3336610713473012 0.6254916070209517 0  0.2649811964745581 0.5449435894236743 0  0.1250000000000001 0.9999999999989814 0  0.1399811964745581 0.5449435894236743 0  0.1250000000000001 0.5281567573547366 0  -0.01498119647455803 0.5449435894226552 0  0 0.5281567573537175 0  -0.02598020113247039 0.05594259408158644 0  -0.01498119647455803 0.07310034677841039 0  -0.0156475794324163 0.04627635533939062 0  -0.05594259408158644 0.02598020113247038 0  -0.01166538761577062 0.01233177057362889 0  -0.01233177057362889 0.01166538761577062 0  -0.5449435894226552 0.01498119647455803 0  -0.04627635533939062 0.01564757943241629 0  -0.07310034677841037 0.01498119647455803 0  -0.5281567573537175 0 0  -0.9999999999989814 -0.1250000000000001 0  0.3598574649419123 0.3180269292682618 0  0.3180269292682618 0.3598574649419123 0  0.2453648625788731 0.2453648625788731 0  0.07310034677841037 0.01498119647455803 0  0.0286450386047363 0 0  0.1704351964446256 0.09864226782185904 0  0.04543187067367408 0.01498119647455803 0  0.04627635533939062 0.01564757943241629 0  0.1364906116788639 0.09466007600521338 0  0.1268243729366681 0.0843274543051593 0  0.09864226782185904 0.1704351964446256 0  0.09466007600521338 0.1364906116788639 0  0.0843274543051593 0.1268243729366681 0  0.01498119647455803 0.07310034677841037 0  0.01564757943241629 0.04627635533939062 0  0.01498119647455803 0.04543187067367408 0  -0.0006663829578582675 0.02948952327045283 0  0 0.0286450386047363 0  -0.001999148873574802 0.001999148873574802 0  -0.0006663829578582675 0.001821047165716534 0  -0.0006771725508905089 0.001343555508748776 0  -0.02948952327045283 0.0006663829578582675 0  -0.001343555508748776 0.0006771725508905089 0  -0.001821047165716534 0.0006663829578582675 0  -0.5281567573547366 -0.1250000000000001 0  -0.0286450386047363 0 0  -0.07310034677841039 -0.01498119647455803 0  -0.5449435894236743 -0.1399811964745581 0  -1 -0.3750000000000002 0  0.01233177057362889 0.01166538761577062 0  0.01166538761577062 0.01233177057362889 0  0.0110097942509446 0.0110097942509446 0  0.001821047165716534 0.0006663829578582675 0  0.0004887580871582019 0 0  0.001343555508748776 0.0006771725508905089 0  0.001333242752874738 0.0006663829578582675 0  0.0006663829578582675 0.001821047165716534 0  0.0006771725508905089 0.001343555508748776 0  0.0006663829578582675 0.001333242752874738 0  -1.078959303224139e-05 0.0004990708430322403 0  0 0.0004887580871582019 0  -0.0004990708430322403 1.078959303224139e-05 0  -1.078959303224139e-05 1.126643019044452e-05 0  -1.126643019044452e-05 1.078959303224139e-05 0  -0.04543187067367409 -0.01498119647455803 0  -0.0004887580871582019 0 0  -0.001821047165716534 -0.0006663829578582675 0  -0.5449435894236743 -0.2649811964745581 0  -0.04627635533939062 -0.0156475794324163 0  -0.1704351964446256 -0.09864226782185904 0  -1 -0.6250000000000002 0  -0.6254916070209517 -0.3336610713473011 0  1.126643019044452e-05 1.078959303224139e-05 0  1.078959303224139e-05 1.126643019044452e-05 0  1.078959303224139e-05 1.078959303224139e-05 0  4.768371582031234e-07 0 0  -4.768371582031234e-07 4.768371582031234e-07 0  0 4.768371582031234e-07 0  -0.6254916070209516 -0.4586610713473011 0  -1 -0.8750000000000002 0  -0.7343658579209609 -0.6093658579209609 0  -0.001333242752874738 -0.0006663829578582675 0  -4.768371582031234e-07 0 0  -1.126643019044452e-05 -1.078959303224139e-05 0  -0.1268243729366681 -0.08432745430515928 0  -0.001343555508748776 -0.0006771725508905089 0  -0.01233177057362889 -0.01166538761577062 0  -0.3598574649419123 -0.3180269292682618 0  -0.1364906116788639 -0.09466007600521337 0  -0.7343658579209608 -0.7343658579209609 0  -0.875 -1 0  -1.078959303224139e-05 -1.078959303224139e-05 0  0 -4.768371582031234e-07 0  -0.2453648625788731 -0.2453648625788731 0  -0.6093658579209607 -0.7343658579209608 0  -0.3180269292682617 -0.3598574649419122 0  -0.0110097942509446 -0.0110097942509446 0  -1.078959303224139e-05 -1.126643019044452e-05 0  -0.0006771725508905089 -0.001343555508748776 0  -0.09466007600521335 -0.1364906116788639 0  -0.01166538761577062 -0.01233177057362889 0  -0.4586610713473009 -0.6254916070209515 0  -0.6249999999999996 -0.9999999999999993 0  -0.0006663829578582675 -0.001333242752874738 0  0 -0.0004887580871582019 0  -0.08432745430515927 -0.126824372936668 0  -0.3336610713473006 -0.6254916070209507 0  -0.09864226782185902 -0.1704351964446256 0  -0.0006663829578582675 -0.001821047165716534 0  -0.01564757943241629 -0.04627635533939062 0  -0.2649811964745576 -0.5449435894236734 0  -0.3749999999999994 -0.9999999999999987 0  -0.01498119647455803 -0.04543187067367408 0  0 -0.0286450386047363 0  -0.1399811964745578 -0.5449435894236734 0  -0.01498119647455803 -0.07310034677841037 0  -0.1249999999999998 -0.5281567573547357 0  -0.1249999999999998 -0.9999999999989797 0  0 -0.5281567573537167 0  -0.9375000000000002 1 0  -1 0.9375000000000002 0  -0.9375000000000002 0.9375000000000002 0  -0.8125000000000002 1 0  -0.8125000000000002 0.9375000000000002 0  -0.6875000000000002 1 0  -0.6796829289604805 0.8671829289604805 0  -1 0.8125 0  -0.9375 0.8125 0  -0.8046829289604804 0.7421829289604804 0  -0.8671829289604804 0.6796829289604804 0  -1 0.6875 0  -0.5625000000000002 1 0  -0.5546829289604805 0.8671829289604807 0  -0.4921829289604805 0.8671829289604807 0  -0.4375000000000002 1 0  -0.4168305356736507 0.8127458035104761 0  -0.5390487868814412 0.6015487868814412 0  -0.6015487868814411 0.5390487868814411 0  -0.4765487868814412 0.6015487868814412 0  -0.4011963935946113 0.5471116614314366 0  -0.6015487868814412 0.4765487868814412 0  -0.3933793225550916 0.4142945903919169 0  -0.4142945903919169 0.3933793225550916 0  -0.5471116614314366 0.4011963935946113 0  -0.8671829289604807 0.5546829289604804 0  -1 0.5625000000000002 0  -0.8671829289604807 0.4921829289604805 0  -0.8127458035104761 0.4168305356736507 0  -1 0.4375000000000002 0  -0.3125000000000001 1 0  -0.2918305356736506 0.8127458035104761 0  -0.2293305356736506 0.8127458035104761 0  -0.1875000000000001 0.9999999999994909 0  -0.1949905982372791 0.7724717947118374 0  -0.2504916070209516 0.4382374105314274 0  -0.
[...]
<CellData  Scalars="mu"> 
<DataArray  type="Float64"  Name="mu"  format="ascii">2.0710678118654788e-01   2.0710678118654902e-01   2.0710678118654768e-01   2.0710678118654699e-01   2.0710678118654716e-01   2.0710678118654752e-01   2.0710678118654716e-01   2.0710678118654752e-01   2.0710678118654829e-01   2.0710678118654902e-01   2.0710678118654829e-01   2.0710678118652334e-01   2.0710678118654829e-01   2.0710678118654829e-01   2.0710678118654829e-01   2.0710678118657094e-01   1.5972139501818386e-01   1.7039121018109388e-01   1.5972139501818822e-01   1.7039121018109502e-01   1.7039121018109848e-01   1.5972139501818380e-01   1.7039121018109854e-01   1.5972139501818414e-01   1.5972139501818433e-01   1.7039121018109388e-01   1.5972139501818450e-01   1.7039121018109954e-01   1.7039121018108991e-01   1.5972139501818808e-01   1.7039121018109452e-01   1.5972139501818414e-01   1.5972139501818020e-01   1.7039121018109951e-01   1.5972139501818447e-01   1.7039121018109402e-01   1.7039121018109923e-01   1.5972139501818422e-01   1.7039121018109477e-01   1.5972139501818378e-01   1.5972139501818378e-01   1.7039121018109402e-01   1.5972139501818378e-01   1.7039121018109488e-01   1.7039121018108952e-01   1.5972139501818808e-01   1.7039121018109402e-01   1.5972139501818380e-01   2.1719829896018406e-01   1.4960323526272379e-01   2.1719829896018777e-01   1.4960323526272112e-01   1.4960323526271846e-01   2.1719829896018417e-01   1.4960323526271846e-01   2.1719829896018403e-01   2.1719829896018403e-01   1.4960323526272112e-01   2.1719829896018777e-01   1.4960323526271851e-01   1.4960323526271846e-01   2.1719829896018777e-01   1.4960323526271846e-01   2.1719829896018780e-01   1.1588261140449546e-01   1.1309610705111824e-01   1.1588261140449568e-01   1.1309610705111800e-01   1.1309610705111794e-01   1.1588261140449536e-01   1.1309610705111806e-01   1.1588261140449559e-01   1.1588261140449579e-01   1.1309610705111804e-01   1.1588261140449579e-01   1.1309610705111803e-01   1.1309610705111826e-01   1.1588261140449538e-01   1.1309610705111829e-01   1.1588261140449617e-01   1.4332365458051502e-01   8.6427402506326273e-02   1.4332365458051621e-01   8.6427402506326037e-02   8.6427402506326578e-02   5.3791181945724173e-02   8.6427402506326328e-02   5.3791181945724374e-02   1.4332365458051505e-01   8.6427402506326606e-02   1.4332365458051638e-01   8.6427402506326662e-02   8.6427402506325260e-02   5.3791181945724548e-02   8.6427402506324330e-02   5.3791181945726192e-02   1.2532097103257783e-01   1.3776410375647150e-01   1.2532097103257783e-01   1.3776410375646955e-01   1.3776410375647025e-01   1.2532097103257833e-01   1.3776410375646961e-01   1.2532097103257772e-01   1.2532097103257703e-01   1.3776410375647019e-01   1.2532097103257939e-01   1.3776410375647086e-01   1.3776410375646955e-01   1.2532097103257664e-01   1.3776410375646955e-01   1.2532097103257947e-01   1.1942067407125329e-01   7.6398686420382847e-02   1.1942067407125434e-01   7.6398686420383596e-02   7.6398686420383444e-02   5.0302549168726479e-02   7.6398686420383388e-02   5.0302549168726507e-02   1.1942067407125580e-01   7.6398686420383582e-02   1.1942067407125470e-01   7.6398686420383527e-02   7.6398686420382833e-02   5.0302549168727201e-02   7.6398686420383582e-02   5.0302549168726514e-02   1.1588261140449579e-01   1.1309610705111803e-01   1.1588261140449534e-01   1.1309610705111825e-01   1.1309610705111829e-01   1.1588261140449617e-01   1.1309610705111783e-01   1.1588261140449584e-01   1.1588261140449556e-01   1.1309610705111803e-01   1.1588261140449552e-01   1.1309610705111800e-01   1.1309610705111804e-01   1.1588261140449559e-01   1.1309610705111800e-01   1.1588261140449560e-01   1.2532097103257819e-01   1.3776410375647083e-01   1.2532097103257825e-01   1.3776410375647025e-01   1.3776410375646952e-01   1.2532097103257947e-01   1.3776410375646950e-01   1.2532097103257894e-01   1.2532097103257783e-01   1.3776410375647025e-01   1.2532097103257783e-01   1.3776410375647086e-01   1.3776410375647025e-01   1.2532097103257783e-01   1.3776410375647022e-01   1.2532097103257800e-01   1.4332365458051408e-01   8.6427402506326675e-02   1.4332365458051413e-01   8.6427402506326662e-02   8.6427402506324316e-02   5.3791181945726192e-02   8.6427402506326662e-02   5.3791181945723028e-02   1.4332365458051566e-01   8.6427402506326023e-02   1.4332365458051585e-01   8.6427402506326648e-02   8.6427402506326037e-02   5.3791181945724187e-02   8.6427402506326037e-02   5.3791181945724374e-02   1.1942067407125345e-01   7.6398686420383582e-02   1.1942067407125410e-01   7.6398686420383527e-02   7.6398686420383582e-02   5.0302549168727201e-02   7.6398686420384346e-02   5.0302549168726014e-02   1.1942067407125434e-01   7.6398686420383402e-02   1.1942067407125388e-01   7.6398686420382847e-02   7.6398686420383596e-02   5.0302549168726514e-02   7.6398686420383347e-02   5.0302549168726417e-02   1.9379177982805365e-01   2.1860625184499538e-01   1.9379177982805590e-01   2.1860625184499283e-01   2.1860625184499405e-01   1.0853683515764528e-01   2.1860625184499397e-01   1.0853683515764562e-01   1.9379177982805593e-01   2.1860625184499510e-01   1.9379177982805831e-01   2.1860625184499025e-01   2.1860625184499030e-01   1.0853683515764423e-01   2.1860625184499535e-01   1.0853683515764632e-01   1.7475498783435067e-01   1.3875980972353116e-01   1.7475498783435073e-01   1.3875980972353053e-01   1.3875980972353047e-01   1.7475498783435123e-01   1.3875980972353053e-01   1.7475498783435128e-01   1.7475498783435164e-01   1.3875980972353003e-01   1.7475498783435198e-01   1.3875980972353100e-01   1.3875980972353114e-01   1.7475498783435175e-01   1.3875980972353114e-01   1.7475498783435078e-01   1.9379177982805570e-01   2.1860625184499510e-01   1.9379177982805579e-01   2.1860625184499280e-01   2.1860625184499030e-01   1.0853683515764674e-01   2.1860625184499535e-01   1.0853683515764374e-01   1.9379177982805565e-01   2.1860625184499530e-01   1.9379177982805565e-01   2.1860625184499274e-01   2.1860625184499277e-01   1.0853683515764508e-01   2.1860625184499405e-01   1.0853683515764530e-01   1.3550979710957051e-01   1.1863232171497146e-01   1.3550979710956773e-01   1.1863232171496886e-01   1.1863232171496911e-01   1.3550979710957059e-01   1.1863232171497153e-01   1.3550979710957073e-01   1.3550979710956934e-01   1.1863232171496879e-01   1.3550979710956804e-01   1.1863232171497035e-01   1.1863232171497035e-01   1.3550979710956804e-01   1.1863232171497023e-01   1.3550979710956773e-01   2.0710678118654757e-01   2.0710678118654763e-01   2.0710678118654757e-01   2.0710678118654757e-01   2.0710678118654743e-01   2.0710678118654743e-01   2.0710678118654757e-01   2.0710678118654743e-01   2.0710678118654757e-01   2.0710678118654743e-01   2.0710678118654757e-01   2.0710678118654757e-01   2.0710678118654743e-01   2.0710678118654743e-01   2.0710678118654757e-01   2.0710678118654743e-01   1.1964468740055800e-02   1.1476388085044651e-02   1.1964468740055821e-02   1.1476388085044673e-02   1.1476388085044666e-02   1.1005932461836910e-02   1.1476388085044651e-02   1.1005932461836914e-02   1.1964468740055816e-02   1.1476388085044668e-02   1.1964468740055802e-02   1.1476388085044656e-02   1.1476388085044666e-02   1.1005932461836914e-02   1.1476388085044658e-02   1.1005932461836912e-02   1.1964468740055802e-02   1.1476388085044656e-02   1.1964468740055816e-02   1.1476388085044675e-02   1.1476388085044659e-02   1.1005932461836915e-02   1.1476388085044666e-02   1.1005932461836914e-02   1.1964468740055800e-02   1.1476388085044651e-02   1.1964468740055821e-02   1.1476388085044673e-02   1.1476388085044666e-02   1.1005932461836910e-02   1.1476388085044651e-02   1.1005932461836914e-02   2.2085934884161336e-02   2.2019032038710817e-02   2.2085934884161110e-02   2.2019032038710813e-02   2.2019032038710376e-02   2.2085934884160628e-02   2.2019032038711261e-02   2.2085934884161537e-02   2.2085934884161114e-02   2.2019032038711042e-02   2.2085934884161128e-02   2.2019032038710831e-02   2.2019032038710831e-02   2.2085934884161128e-02   2.2019032038710817e-02   2.2085934884160881e-02   1.8168588209103446e-02   1.6928924714568406e-02   1.8168588209103435e-02   1.6928924714568371e-02   1.6928924714568392e-02   1.5775561744012328e-02   1.6928924714568371e-02   1.5775561744012328e-02   1.8168588209103446e-02   1.6928924714568385e-02   1.8168588209103467e-02   1.6928924714568368e-02   1.6928924714568385e-02   1.5775561744012335e-02   1.6928924714568389e-02   1.5775561744012328e-02   2.0257321648431523e-01   1.2443160753139852e-01   2.0257321648431542e-01   1.2443160753139859e-01   1.2443160753139702e-01   7.2194907751736342e-02   1.2443160753139987e-01   7.2194907751735551e-02   2.0257321648431525e-01   1.2443160753139844e-01   2.0257321648431462e-01   1.2443160753139852e-01   1.2443160753139844e-01   7.2194907751736370e-02   1.2443160753139841e-01   7.2194907751736315e-02   1.3551087668028910e-02   1.2743488578769096e-02   1.3551087668028931e-02   1.2743488578769105e-02   1.2743488578769113e-02   1.1990375986821379e-02   1.2743488578769096e-02   1.1990375986821379e-02   1.3551087668028901e-02   1.2743488578769089e-02   1.3551087668028889e-02   1.2743488578769098e-02   1.2743488578769105e-02   1.1990375986821383e-02   1.2743488578769101e-02   1.1990375986821379e-02   1.8176424046779413e-01   2.2663466010128769e-01   1.8176424046779344e-01   2.2663466010128722e-01   2.2663466010128774e-01   9.4492595046454186e-02   2.2663466010128722e-01   9.4492595046454186e-02   1.8176424046779374e-01   2.2663466010128744e-01   1.8176424046779355e-01   2.2663466010128713e-01   2.2663466010128733e-01   9.4492595046453839e-02   2.2663466010128724e-01   9.4492595046453909e-02   1.8168588209103467e-02   1.6928924714568368e-02   1.8168588209103421e-02   1.6928924714568368e-02   1.6928924714568395e-02   1.5775561744012328e-02   1.6928924714568375e-02   1.5775561744012328e-02   1.8168588209103428e-02   1.6928924714568406e-02   1.8168588209103435e-02   1.6928924714568368e-02   1.6928924714568392e-02   1.5775561744012321e-02   1.6928924714568389e-02   1.5775561744012328e-02   1.3551087668028889e-02   1.2743488578769098e-02   1.3551087668028901e-02   1.2743488578769099e-02   1.2743488578769099e-02   1.1990375986821377e-02   1.2743488578769105e-02   1.1990375986821383e-02   1.3551087668028910e-02   1.2743488578769096e-02   1.3551087668028931e-02   1.2743488578769105e-02   1.2743488578769113e-02   1.1990375986821379e-02   1.2743488578769096e-02   1.1990375986821379e-02   2.0257321648431514e-01   1.2443160753139826e-01   2.0257321648431525e-01   1.2443160753139844e-01   1.2443160753139834e-01   7.2194907751736342e-02   1.2443160753139844e-01   7.2194907751736342e-02   2.0257321648431512e-01   1.2443160753139930e-01   2.0257321648431531e-01   1.2443160753139854e-01   1.2443160753139852e-01   7.2194907751737133e-02   1.2443160753139733e-01   7.2194907751736412e-02   1.8176424046779435e-01   2.2663466010128749e-01   1.8176424046779446e-01   2.2663466010128713e-01   2.2663466010128749e-01   9.4492595046454020e-02   2.2663466010128722e-01   9.4492595046453964e-02   1.8176424046779385e-01   2.2663466010128647e-01   1.8176424046779383e-01   2.2663466010128702e-01   2.2663466010128749e-01   9.4492595046453909e-02   2.2663466010128824e-01   9.4492595046454214e-02   2.1852408039454313e-01   1.3094395677766194e-01   2.1852408039454310e-01   1.3094395677766141e-01   1.3094395677766252e-01   7.3229397254417919e-02   1.3094395677766116e-01   7.3229397254418668e-02   2.1852408039454235e-01   1.3094395677766149e-01   2.1852408039454249e-01   1.3094395677766166e-01   1.3094395677766144e-01   7.3229397254418974e-02   1.3094395677766149e-01   7.3229397254418876e-02   3.2211370180366017e-02   3.2000874192670795e-02   3.2211370180366211e-02   3.2000874192670954e-02   3.2000874192670815e-02   3.2211370180364081e-02   3.2000874192670843e-02   3.2211370180366142e-02   3.2211370180366079e-02   3.2000874192670982e-02   3.2211370180365982e-02   3.2000874192670725e-02   3.2000874192670767e-02   3.2211370180366024e-02   3.2000874192670677e-02   3.2211370180365746e-02   2.1852408039454235e-01   1.3094395677766149e-01   2.1852408039454249e-01   1.3094395677766132e-01   1.3094395677766144e-01   7.3229397254418974e-02   1.3094395677766149e-01   7.3229397254418876e-02   2.1852408039454310e-01   1.3094395677766141e-01   2.1852408039454313e-01   1.3094395677766194e-01   1.3094395677766116e-01   7.3229397254418668e-02   1.3094395677766252e-01   7.3229397254417919e-02   2.2936639857733027e-01   1.5040764259907555e-01   2.2936639857732924e-01   1.5040764259907552e-01   1.5040764259907546e-01   2.2936639857733002e-01   1.5040764259907557e-01   2.2936639857732966e-01   2.2936639857733004e-01   1.5040764259907594e-01   2.2936639857733035e-01   1.5040764259907474e-01   1.5040764259907627e-01   2.2936639857732971e-01   1.5040764259907549e-01   2.2936639857733027e-01   1.1136949298269182e-01   1.1136949298334368e-01   1.1136949298269204e-01   1.1136949298334359e-01   1.1136949298334341e-01   1.1136949298269273e-01   1.1136949298334341e-01   1.1136949298269205e-01   1.1136949298269189e-01   1.1136949298334363e-01   1.1136949298269203e-01   1.1136949298334378e-01   1.1136949298334363e-01   1.1136949298269186e-01   1.1136949298334355e-01   1.1136949298269185e-01   1.1309610705056083e-01   1.1588261140461124e-01   1.1309610705056083e-01   1.1588261140461166e-01   1.1588261140461166e-01   1.0047915188501123e-01   1.1588261140461166e-01   1.0047915188501089e-01   1.1309610705056046e-01   1.1588261140461169e-01   1.1309610705056000e-01   1.1588261140461166e-01   1.1588261140461148e-01   1.0047915188501103e-01   1.1588261140461148e-01   1.0047915188501094e-01   1.8968944453055542e-01   2.1811696655573901e-01   1.8968944453055514e-01   2.1811696655573901e-01   2.1811696655573767e-01   9.1016714771816984e-02   2.1811696655573892e-01   9.1016714771816679e-02   1.8968944453055522e-01   2.1811696655573876e-01   1.8968944453055514e-01   2.1811696655573876e-01   2.1811696655573878e-01   9.1016714771816581e-02   2.1811696655573895e-01   9.1016714771816429e-02   1.2315276485422895e-02   1.1304990307678536e-02   1.2315276485422614e-02   1.1304990307678595e-02   1.1304990307678592e-02   1.0403481780710213e-02   1.1304990307678087e-02   1.0403481780710711e-02   1.2315276485422818e-02   1.1304990307678522e-02   1.2315276485422754e-02   1.1304990307678597e-02   1.1304990307678522e-02   1.0403481780710211e-02   1.1304990307678526e-02   1.0403481780710148e-02   1.7039121018109407e-01   1.5972139501819235e-01   1.7039121018109407e-01   1.5972139501818416e-01   1.5972139501818378e-01   1.1031601130322979e-01   1.5972139501818367e-01   1.1031601130322674e-01   1.7039121018110359e-01   1.5972139501818380e-01   1.7039121018109446e-01   1.5972139501818405e-01   1.5972139501818405e-01   1.1031601130322707e-01   1.5972139501818405e-01   1.1031601130322677e-01   2.0624855333728140e-01   1.2571417765108409e-01   2.0624855333727840e-01   1.2571417765108350e-01   1.2571417765108306e-01   4.6404434494568297e-02   1.2571417765108311e-01   4.6404434494568700e-02   2.0624855333727776e-01   1.2571417765108117e-01   2.0624855333728009e-01   1.2571417765108242e-01   1.2571417765108728e-01   4.6404434494567562e-02   1.2571417765108425e-01   4.6404434494567631e-02   1.3776410375646889e-01   1.2532097103257778e-01   1.3776410375647147e-01   1.2532097103257944e-01   1.2532097103257780e-01   9.7755800417463845e-02   1.2532097103257769e-01   9.7755800417463845e-02   1.3776410375646939e-01   1.2532097103257897e-01   1.3776410375646939e-01   1.2532097103257700e-01   1.2532097103257939e-01   9.7755800417461292e-02   1.2532097103257700e-01   9.7755800417462888e-02   2.6033284292157582e-01   1.2780039497091528e-01   2.6033284292157144e-01   1.2780039497091528e-01   1.2780039497091528e-01   5.4216853794398993e-02   1.2780039497091544e-01   5.4216853794399243e-02   2.6033284292156633e-01   1.2780039497091752e-01   2.6033284292156678e-01   1.2780039497091297e-01   1.2780039497091741e-01   5.4216853794397994e-02   1.2780039497091294e-01   5.4216853794398133e-02   1.2002337537488103e-02   1.1489317464807395e-02   1.2002337537487858e-02   1.1489317464807627e-02   1.1489317464806475e-02   1.0996844518877042e-02   1.1489317464807374e-02   1.0996844518876149e-02   1.2002337537487844e-02   1.1489317464807643e-02   1.2002337537487853e-02   1.1489317464807625e-02   1.1489317464807632e-02   1.0996844518876397e-02   1.1489317464807627e-02   1.0996844518876402e-02   2.2367019383777634e-01   1.3028346981351271e-01   2.2367019383777753e-01   1.3028346981351308e-01   1.3028346981351266e-01   7.1471049034173784e-02   1.3028346981351402e-01   7.1471049034173798e-02   2.2367019383777698e-01   1.3028346981351341e-01   2.2367019383777717e-01   1.3028346981351310e-01   1.3028346981351316e-01   7.1471049034174089e-02   1.3028346981351310e-01   7.1471049034174200e-02   2.2310205198266958e-02   1.8220582313946857e-02   2.2310205198266961e-02   1.8220582313946958e-02   1.8220582313946767e-02   1.5119907332174318e-02   1.8220582313946802e-02   1.5119907332175204e-02   2.2310205198266632e-02   1.8220582313946819e-02   2.2310205198266670e-02   1.8220582313947086e-02   1.8220582313947090e-02   1.5119907332174552e-02   1.8220582313947152e-02   1.5119907332174541e-02   1.7554854666402078e-03   1.7222922029415536e-03   1.7554854666402080e-03   1.7222922029418463e-03   1.7222922029412606e-03   1.6899915207426162e-03   1.7222922029420378e-03   1.6899915207422337e-03   1.7554854666404275e-03   1.7222922029416715e-03   1.7554854666405042e-03   1.7222922029416507e-03   1.7222922029416019e-03   1.6899915207426168e-03   1.7222922029416646e-03   1.6899915207426335e-03   6.3048399151186291e-02   3.6432778442118535e-02   6.3048399151187373e-02   3.6432778442118237e-02   3.6432778442116912e-02   2.3409732591937866e-02   3.6432778442119534e-02   2.3409732591936259e-02   6.3048399151186818e-02   3.6432778442118570e-02   6.3048399151186152e-02   3.6432778442118244e-02   3.6432778442118570e-02   2.3409732591937248e-02   3.6432778442118501e-02   2.3409732591937200e-02   1.6115832883359601e-02   1.3044975600229292e-02   1.6115832883360076e-02   1.3044975600228537e-02   1.3044975600229313e-02   1.0760232921590503e-02   1.3044975600230038e-02   1.0760232921589881e-02   1.6115832883359389e-02   1.3044975600229358e-02   1.6115832883359271e-02   1.3044975600229282e-02   1.3044975600229382e-02   1.0760232921589860e-02   1.3044975600229386e-02   1.0760232921589955e-02   4.2078368433711632e-03   4.0251408142218123e-03   4.2078368433712690e-03   4.0251408142216605e-03   4.0251408142214559e-03   3.8535920238973354e-03   4.0251408142218626e-03   3.8535920238973310e-03   4.2078368433710626e-03   4.0251408142218713e-03   4.2078368433710548e-03   4.0251408142217603e-03   4.0251408142218904e-03   3.8535920238969372e-03   4.0251408142218713e-03   3.8535920238969468e-03   1.8411639526795789e-01   8.0021031981600182e-02   1.8411639526795945e-01   8.0021031981601987e-02   8.0021031981603791e-02   4.0966901055632096e-02   8.0021031981603943e-02   4.0966901055632110e-02   1.8411639526795906e-01   8.0021031981601889e-02   1.8411639526795964e-01   8.0021031981601973e-02   8.0021031981601903e-02   4.0966901055632346e-02   8.0021031981601806e-02   4.0966901055632339e-02   1.1136949298269173e-01   1.1136949298334342e-01   1.1136949298269176e-01   1.1136949298334360e-01   1.1136949298334367e-01   1.1136949298269189e-01   1.1136949298334360e-01   1.1136949298269182e-01   1.1136949298269212e-01   1.1136949298334345e-01   1.1136949298269212e-01   1.1136949298334363e-01   1.1136949298334374e-01   1.1136949298269205e-01   1.1136949298334332e-01   1.1136949298269289e-01   1.8968944453055556e-01   2.1811696655573878e-01   1.8968944453055520e-01   2.1811696655573842e-01   2.1811696655573798e-01   9.1016714771816651e-02   2.1811696655573845e-01   9.1016714771817095e-02   1.8968944453055556e-01   2.1811696655573881e-01   1.8968944453055514e-01   2.1811696655573867e-01   2.1811696655573865e-