<?xml version="1.0"?>
<VTKFile type="UnstructuredGrid"  version="0.1"  >
<UnstructuredGrid>
<Piece  NumberOfPoints="12545" NumberOfCells="24576">
<Points>
<DataArray  type="Float64"  NumberOfComponents="3"  format="ascii">0.1495496114427624 -0.1495496114427624 0  1.287144439429404 -1.716192585905872 0  1.716192585905716 -1.287144439429287 0  0.2837720459405749 -0.5675440918811498 0  3.278179782504071 -3.278179782504071 0  0.5675440918811498 -0.2837720459405749 0  1.756932646787236 -7.027730587148944 0  3.898324400662581 -5.847486600993871 0  5.847486600993853 -3.898324400662569 0  7.027730587148944 -1.756932646787236 0  -0.1495496114427624 -0.1495496114427624 0  5.656854249492382 6.280369834735103e-16 0  -7.027730587148944 -1.756932646787237 0  -0.5675440918811498 -0.2837720459405749 0  -1.716192585905716 -1.287144439429287 0  -1.287144439429287 -1.716192585905716 0  -0.2837720459405749 -0.5675440918811498 0  -1.756932646787236 -7.027730587148944 0  0 5.656854249492382 0  0.2922068412242178 -0.8766205236726532 0  0.1910394894585253 -0.1910394894585253 0  0.8766205236725884 -0.2922068412241961 0  -5.656854249492382 0 0  -3.278179782504071 -3.278179782504071 0  23.83793724888972 0 0  -0.8766205236725884 -0.2922068412241961 0  -5.847486600993853 -3.898324400662569 0  -3.898324400662569 -5.847486600993853 0  -0.2922068412241961 -0.8766205236725884 0  0 23.83793724888972 0  1.671770658765338 -3.343541317530675 0  3.343541317530675 -1.671770658765338 0  -23.83793724888972 0 0  7.027730587148944 1.756932646787236 0  -0.1910394894585253 -0.1910394894585253 0  181.019335983452 0 0  -3.343541317530675 -1.671770658765338 0  -1.671770658765338 -3.343541317530675 0  0 181.019335983452 0  0.1068812197939318 -0.1068812197939318 0  -181.019335983452 0 0  0.8766205236726532 0.2922068412242178 0  0.5675440918811498 0.2837720459405749 0  -0.1068812197939318 -0.1068812197939318 0  5792.61875148012 0 0  0 5792.61875148012 0  1.716192585905872 1.287144439429404 0  -5792.61875148012 0 0  3.343541317530675 1.671770658765338 0  5.847486600993871 3.898324400662581 0  0.1495496114427583 0.1495496114427583 0  0 0 0  3.278179782504071 3.278179782504071 0  0.1068812197939318 0.1068812197939318 0  0.1910394894585253 0.1910394894585253 0  1.287144439429287 1.716192585905716 0  0 -5792.61875148012 0  3.898324400662531 5.847486600993797 0  1.671770658765331 3.343541317530662 0  0.2837720459392363 0.5675440918784725 0  0 -181.019335983452 0  0.2922068412241961 0.8766205236725884 0  1.756932646787229 7.027730587148919 0  0 -23.83793724888972 0  0 -5.656854249492387 0  0.7183470254360832 -0.9328710986743172 0  0.9328710986742393 -0.7183470254360248 0  1.50166851266756 -1.50166851266758 0  0.7854582426849894 -1.141868338893511 0  2.282662110966737 -2.497186184204971 0  2.497186184204893 -2.282662110966679 0  1.141868338893433 -0.785458242684931 0  1.780975914222323 -1.92286193719261 0  1.020352346363905 -3.797637339515047 0  2.091048223301578 -3.20751534643751 0  1.92286193719261 -1.780975914222323 0  3.588252091583326 -4.562833191748971 0  4.562833191748962 -3.588252091583319 0  3.207515346437501 -2.091048223301572 0  3.797637339515047 -1.020352346363905 0  2.827628523724908 -6.437608594071407 0  0.878466323393618 -0.6854381688282807 0  1.024569744005727 -3.952175555410799 0  4.872905500828216 -4.872905500828219 0  2.095265620943399 -3.362053562333262 0  2.044681945060553 -3.019263045226198 0  6.437608594071398 -2.827628523724902 0  3.019263045226189 -2.044681945060547 0  3.36205356233322 -2.095265620943382 0  3.952175555410766 -1.024569744005716 0  0.6854381688282807 -0.878466323393618 0  -0.9328710986742393 -0.7183470254360248 0  -0.7183470254360248 -0.9328710986742393 0  -1.713864696973416 -1.713864696973416 0  -0.6854381688282807 -0.8784663233936181 0  14.74739574919105 3.140184917367551e-16 0  -3.797637339515047 -1.020352346363906 0  8.405103330870388 -0.8784663233936184 0  -3.952175555410766 -1.024569744005716 0  -1.141868338893433 -0.785458242684931 0  -0.7220823077768691 -0.2879894435823855 0  -3.207515346437501 -2.091048223301572 0  -2.497186184204893 -2.282662110966679 0  -3.781839593449785 -2.592734420045928 0  -0.785458242684931 -1.141868338893433 0  -2.282662110966679 -2.497186184204893 0  -2.592734420045928 -3.781839593449785 0  -1.020352346363905 -3.797637339515047 0  -2.091048223301572 -3.207515346437501 0  -0.2879894435823855 -0.7220823077768691 0  -0.878466323393618 -0.6854381688282807 0  -1.024569744005716 -3.952175555410766 0  -0.878466323393618 8.405103330870388 0  0.1461034206121089 2.390116862909864 0  0 14.74739574919105 0  0.2416231653413715 -0.5338300065655892 0  0.1461034206121089 11.48065836260853 0  0.9819887499947777 -2.110080920601664 0  0.5338300065655568 -0.2416231653413607 0  0.9314050741119314 -1.7672904034946 0  1.7672904034946 -0.9314050741119314 0  -2.390116862909897 -0.1461034206120981 0  2.110080920601632 -0.9819887499947668 0  -11.48065836260857 -0.1461034206120981 0  -14.74739574919105 0 0  0.6854381688282807 0.8784663233936182 0  -4.562833191748962 -3.588252091583319 0  -3.588252091583319 -4.562833191748962 0  -1.734609635981298 -1.734609635981298 0  11.48065836260857 -0.1461034206120981 0  102.4286366161709 0 0  -3.36205356233322 -2.095265620943382 0  90.07135772988971 -0.1461034206120981 0  -2.110080920601632 -0.9819887499947668 0  -3.019263045226189 -2.044681945060547 0  -4.595513959262264 -2.785047529713953 0  -2.095265620943382 -3.36205356233322 0  -2.044681945060547 -3.019263045226189 0  -2.785047529713953 -4.595513959262264 0  -0.1461034206120981 11.48065836260857 0  -0.9819887499947668 -2.110080920601632 0  -0.1461034206120981 90.07135772988971 0  0.8358853293826688 10.24719796567952 0  0 102.4286366161709 0  2.507655988148006 -2.507655988148006 0  0.8358853293826688 88.83789733296067 0  0.8893259392796347 -1.725211268662304 0  -10.24719796567952 -0.8358853293826688 0  1.725211268662304 -0.8893259392796347 0  -88.83789733296067 -0.8358853293826688 0  -8.405103330870388 0.8784663233936182 0  -102.4286366161709 0 0  -11.48065836260853 0.1461034206121089 0  3.952175555410799 1.024569744005727 0  3.797637339515047 1.020352346363906 0  -1.7672904034946 -0.9314050741119314 0  -0.9314050741119314 -1.7672904034946 0  -0.1489603546262285 -0.1489603546262285 0  88.83789733296067 -0.8358853293826688 0  2986.819043731786 0 0  -1.725211268662304 -0.8893259392796347 0  2894.637605081295 -0.8358853293826688 0  -0.8358853293826688 88.83789733296067 0  -0.8893259392796347 -1.725211268662304 0  -0.8358853293826688 2894.637605081295 0  0.05344060989696589 90.45622738182904 0  0 2986.819043731786 0  -90.45622738182904 -0.05344060989696589 0  0.05344060989696589 2896.255935130163 0  -2896.255935130163 -0.05344060989696589 0  -90.07135772988968 0.1461034206121089 0  -2986.819043731786 0 0  -88.83789733296067 0.8358853293826688 0  0.7220823077769015 0.2879894435823964 0  2.110080920601664 0.9819887499947777 0  3.362053562333262 2.095265620943399 0  1.141868338893511 0.7854582426849894 0  3.20751534643751 2.091048223301578 0  2896.255935130163 -0.05344060989696589 0  -0.05344060989696589 2896.255935130163 0  -0.05344060989696589 -0.05344060989696589 0  2896.30937574006 0 0  -2896.30937574006 2896.30937574006 0  0 2896.30937574006 0  3.781839593449871 2.592734420045992 0  0.9328710986743152 0.7183470254360812 0  2.497186184204971 2.282662110966737 0  -2894.637605081295 0.8358853293826688 0  -2896.30937574006 0 0  -2896.255935130163 0.05344060989696589 0  4.595513959262273 2.785047529713959 0  1.725211268662304 0.8893259392796347 0  1.7672904034946 0.9314050741119314 0  4.562833191748971 3.588252091583326 0  3.019263045226198 2.044681945060553 0  1.713864696973414 1.713864696973414 0  0.7183470254360227 0.9328710986742373 0  0.05344060989696589 0.05344060989696589 0  0 -2896.30937574006 0  1.734609635981298 1.734609635981298 0  2.282662110966679 2.497186184204893 0  3.588252091583301 4.562833191748934 0  0.1489603546262285 0.1489603546262285 0  0.05344060989696589 -2896.255935130163 0  0.8893259392796314 1.725211268662297 0  2.044681945060528 3.019263045226161 0  0.9314050741119282 1.767290403494594 0  2.592734420045909 3.781839593449757 0  0.7854582426842617 1.141868338892094 0  0.8358853293826656 -2894.637605081295 0  0 -2986.819043731786 0  2.785047529713931 4.595513959262229 0  2.091048223300884 3.207515346436135 0  2.095265620943364 3.362053562333193 0  0.8358853293826656 -88.83789733296068 0  0.9819887499947636 2.110080920601625 0  0.2879894435817162 0.7220823077755305 0  1.020352346363233 3.797637339513696 0  0.1461034206120981 -90.07135772988971 0  0 -102.4286366161709 0  1.024569744005713 3.952175555410753 0  0.1461034206120981 -11.48065836260857 0  0.8784663233936145 -8.4051033308704 0  0.8784663233936145 0.685438168828266 0  0 -14.74739574919105 0  0.4339483184394228 -0.5412103550585398 0  0.5412103550585008 -0.4339483184393936 0  1.002745732432744 -1.324531842290094 0  1.394406476048482 -1.608930549286726 0  1.036301341057197 -1.429030462399691 0  1.784903275198071 -2.106689385055422 0  1.892165311817149 -1.999427348436275 0  1.534060176825863 -1.819527261549241 0  1.2172698056709 -1.110007769051802 0  1.324531842289978 -1.002745732432656 0  1.608930549286638 -1.394406476048433 0  2.106689385055305 -1.784903275197983 0  1.429030462399575 -1.036301341057109 0  1.819527261549163 -1.534060176825805 0  0.5346151443127822 -0.8547062153873304 0  1.032373980081449 -1.24520301453688 0  0.6520621961522401 -2.182590715698098 0  1.187410134621076 -1.88752971915933 0  2.780420946735404 -2.887682983354521 0  2.887682983354482 -2.780420946735375 0  2.529577848363197 -2.60052085984834 0  2.684614002902824 -3.24284756447079 0  2.60052085984834 -2.529577848363197 0  3.433215937043698 -3.920506487126521 0  3.920506487126517 -3.433215937043695 0  3.242847564470786 -2.684614002902821 0  0.8547062153872914 -0.5346151443127529 0  1.24520301453688 -1.032373980081449 0  1.887529719159326 -1.187410134621073 0  2.182590715698098 -0.65
[...]
<CellData  Scalars="mu"> 
<DataArray  type="Float64"  Name="mu"  format="ascii">1.3379639624722797e-01   1.1755355824969463e-01   1.3379639624720110e-01   1.1755355824967181e-01   1.1755355824969470e-01   1.3379639624720097e-01   1.1755355824969523e-01   1.3379639624720258e-01   1.3379639624720258e-01   1.1755355824971825e-01   1.3379639624722886e-01   1.1755355824969486e-01   1.1755355824971810e-01   1.3379639624720355e-01   1.1755355824971805e-01   1.3379639624720210e-01   1.1755355824969559e-01   1.3379639624718956e-01   1.1755355824968354e-01   1.3379639624721668e-01   1.3379639624721598e-01   1.1755355824970552e-01   1.3379639624721668e-01   1.1755355824969506e-01   1.1755355824970568e-01   1.3379639624720235e-01   1.1755355824970568e-01   1.3379639624720283e-01   1.3379639624720185e-01   1.1755355824970637e-01   1.3379639624721498e-01   1.1755355824969493e-01   1.3379639624720352e-01   1.1755355824969517e-01   1.3379639624722914e-01   1.1755355824969564e-01   1.1755355824969488e-01   1.3379639624720110e-01   1.1755355824971801e-01   1.3379639624717721e-01   1.3379639624722944e-01   1.1755355824969560e-01   1.3379639624722864e-01   1.1755355824969502e-01   1.1755355824971810e-01   1.3379639624720283e-01   1.1755355824971819e-01   1.3379639624720149e-01   1.1755355824969517e-01   1.3379639624720352e-01   1.1755355824969502e-01   1.3379639624720349e-01   1.3379639624720149e-01   1.1755355824971792e-01   1.3379639624720130e-01   1.1755355824969470e-01   1.1755355824971868e-01   1.3379639624720291e-01   1.1755355824971805e-01   1.3379639624720274e-01   1.3379639624722969e-01   1.1755355824969502e-01   1.3379639624722897e-01   1.1755355824969463e-01   1.1755355824969500e-01   1.3379639624720263e-01   1.1755355824969488e-01   1.3379639624720110e-01   1.3379639624720210e-01   1.1755355824969463e-01   1.3379639624722769e-01   1.1755355824971803e-01   1.1755355824969523e-01   1.3379639624720258e-01   1.1755355824967159e-01   1.3379639624722797e-01   1.3379639624720355e-01   1.1755355824971810e-01   1.3379639624720291e-01   1.1755355824969500e-01   1.3379639624720263e-01   1.1755355824970679e-01   1.3379639624720294e-01   1.1755355824970601e-01   1.1755355824971722e-01   1.3379639624721607e-01   1.1755355824967115e-01   1.3379639624720283e-01   1.3379639624721607e-01   1.1755355824969468e-01   1.3379639624720296e-01   1.1755355824970645e-01   1.1755355824968300e-01   1.3379639624721429e-01   1.1755355824968300e-01   1.3379639624720344e-01   1.1755355824969523e-01   1.3379639624722889e-01   1.1755355824969470e-01   1.3379639624722717e-01   1.3379639624720355e-01   1.1755355824969470e-01   1.3379639624717668e-01   1.1755355824971796e-01   1.1755355824971804e-01   1.3379639624720291e-01   1.1755355824967188e-01   1.3379639624722797e-01   1.3379639624722836e-01   1.1755355824971805e-01   1.3379639624717593e-01   1.1755355824969493e-01   1.3379639624722706e-01   1.1755355824969450e-01   1.3379639624720166e-01   1.1755355824969502e-01   1.1755355824969506e-01   1.3379639624720355e-01   1.1755355824969514e-01   1.3379639624720213e-01   1.3379639624722897e-01   1.1755355824967151e-01   1.3379639624717662e-01   1.1755355824969559e-01   1.1755355824969502e-01   1.3379639624720166e-01   1.1755355824969559e-01   1.3379639624717662e-01   1.3379639624720277e-01   1.1755355824969409e-01   1.3379639624721631e-01   1.1755355824969474e-01   1.1755355824969339e-01   1.3379639624720219e-01   1.1755355824969368e-01   1.3379639624718978e-01   1.3379639624720222e-01   1.1755355824970558e-01   1.3379639624721532e-01   1.1755355824970626e-01   1.1755355824970695e-01   1.3379639624720135e-01   1.1755355824969543e-01   1.3379639624721618e-01   1.1755355824969566e-01   1.3379639624718906e-01   1.1755355824969566e-01   1.3379639624721565e-01   1.3379639624721465e-01   1.1755355824969410e-01   1.3379639624720152e-01   1.1755355824970654e-01   1.1755355824969498e-01   1.3379639624720224e-01   1.1755355824969498e-01   1.3379639624720255e-01   1.3379639624720258e-01   1.1755355824969463e-01   1.3379639624721579e-01   1.1755355824969493e-01   1.3379639624720258e-01   1.1755355824969517e-01   1.3379639624720324e-01   1.1755355824970641e-01   1.1755355824969520e-01   1.3379639624718970e-01   1.1755355824969506e-01   1.3379639624719045e-01   1.3379639624720219e-01   1.1755355824970662e-01   1.3379639624720283e-01   1.1755355824970662e-01   1.1755355824969341e-01   1.3379639624720135e-01   1.1755355824969341e-01   1.3379639624720280e-01   1.1755355824971765e-01   1.3379639624720274e-01   1.1755355824969467e-01   1.3379639624722736e-01   1.3379639624720341e-01   1.1755355824969496e-01   1.3379639624720258e-01   1.1755355824969523e-01   1.1755355824969559e-01   1.3379639624722908e-01   1.1755355824969506e-01   1.3379639624720116e-01   1.3379639624720355e-01   1.1755355824969506e-01   1.3379639624722889e-01   1.1755355824969470e-01   1.1755355824970645e-01   1.3379639624720910e-01   1.1755355824969493e-01   1.3379639624720222e-01   1.3379639624720896e-01   1.1755355824970057e-01   1.3379639624720238e-01   1.1755355824970064e-01   1.1755355824970050e-01   1.3379639624720910e-01   1.1755355824970050e-01   1.3379639624720877e-01   1.3379639624720246e-01   1.1755355824970057e-01   1.3379639624720255e-01   1.1755355824970057e-01   1.3379639624720882e-01   1.1755355824969474e-01   1.3379639624720235e-01   1.1755355824970050e-01   1.1755355824970050e-01   1.3379639624720235e-01   1.1755355824970050e-01   1.3379639624721226e-01   1.3379639624720238e-01   1.1755355824970050e-01   1.3379639624720238e-01   1.1755355824969474e-01   1.1755355824969481e-01   1.3379639624720896e-01   1.1755355824969481e-01   1.3379639624720246e-01   1.1755355824969474e-01   1.3379639624720255e-01   1.1755355824969474e-01   1.3379639624721212e-01   1.3379639624720246e-01   1.1755355824969481e-01   1.3379639624720910e-01   1.1755355824969488e-01   1.1755355824970050e-01   1.3379639624720246e-01   1.1755355824969474e-01   1.3379639624720560e-01   1.3379639624720255e-01   1.1755355824970057e-01   1.3379639624720246e-01   1.1755355824969481e-01   1.3379639624720566e-01   1.1755355824969783e-01   1.3379639624720566e-01   1.1755355824970061e-01   1.1755355824969770e-01   1.3379639624720907e-01   1.1755355824969770e-01   1.3379639624720568e-01   1.3379639624720560e-01   1.1755355824969776e-01   1.3379639624720721e-01   1.1755355824969774e-01   1.1755355824969924e-01   1.3379639624720646e-01   1.1755355824969853e-01   1.3379639624720749e-01   1.5852188986114182e-01   2.3753742595798072e-01   1.5852188986114266e-01   2.3753742595798358e-01   2.3753742595790786e-01   1.4165892484871381e-01   2.3753742595775845e-01   1.4165892484871115e-01   1.5852188986109070e-01   2.3753742595790822e-01   1.5852188986109081e-01   2.3753742595790212e-01   2.3753742595783284e-01   1.4165892484866591e-01   2.3753742595783348e-01   1.4165892484880113e-01   2.3753742595783567e-01   1.4165892484875819e-01   2.3753742595783348e-01   1.4165892484875464e-01   1.4165892484866632e-01   5.5479791178675894e-02   1.4165892484866494e-01   5.5479791178640873e-02   2.3753742595797683e-01   1.4165892484866624e-01   2.3753742595782673e-01   1.4165892484866699e-01   1.4165892484871381e-01   5.5479791178658304e-02   1.4165892484875628e-01   5.5479791178640776e-02   1.5852188986104312e-01   2.3753742595797839e-01   1.5852188986109320e-01   2.3753742595790786e-01   2.3753742595790786e-01   1.4165892484871381e-01   2.3753742595798291e-01   1.4165892484871107e-01   1.5852188986109320e-01   2.3753742595783284e-01   1.5852188986104165e-01   2.3753742595790281e-01   2.3753742595798327e-01   1.4165892484870948e-01   2.3753742595783320e-01   1.4165892484875806e-01   2.3753742595783392e-01   1.4165892484871276e-01   2.3753742595790595e-01   1.4165892484871057e-01   1.4165892484871018e-01   5.5479791178649630e-02   1.4165892484868781e-01   5.5479791178658325e-02   2.3753742595782998e-01   1.4165892484875858e-01   2.3753742595790139e-01   1.4165892484870896e-01   1.4165892484871337e-01   5.5479791178658283e-02   1.4165892484866649e-01   5.5479791178657797e-02   2.3753742595790528e-01   1.4165892484871276e-01   2.3753742595790528e-01   1.4165892484868772e-01   1.4165892484871204e-01   5.5479791178649450e-02   1.4165892484871018e-01   5.5479791178658387e-02   2.3753742595790478e-01   1.4165892484868822e-01   2.3753742595787083e-01   1.4165892484871223e-01   1.4165892484870035e-01   5.5479791178658276e-02   1.4165892484871179e-01   5.5479791178649429e-02   1.4165892484871179e-01   5.5479791178658276e-02   1.4165892484871179e-01   5.5479791178658235e-02   5.5479791178656125e-02   2.2013503130484349e-02   5.5479791178653856e-02   2.2013503130485217e-02   1.4165892484870060e-01   5.5479791178649512e-02   1.4165892484870082e-01   5.5479791178649422e-02   5.5479791178649276e-02   2.2013503130481706e-02   5.5479791178649630e-02   2.2013503130481789e-02   2.3753742595794156e-01   1.4165892484871279e-01   2.3753742595794156e-01   1.4165892484871223e-01   1.4165892484871268e-01   5.5479791178658387e-02   1.4165892484869030e-01   5.5479791178658387e-02   2.3753742595790436e-01   1.4165892484866466e-01   2.3753742595798244e-01   1.4165892484871326e-01   1.4165892484871201e-01   5.5479791178640832e-02   1.4165892484866907e-01   5.5479791178657853e-02   1.4165892484870896e-01   5.5479791178640776e-02   1.4165892484866860e-01   5.5479791178675832e-02   5.5479791178658359e-02   2.2013503130485244e-02   5.5479791178658810e-02   2.2013503130485230e-02   1.4165892484870896e-01   5.5479791178640755e-02   1.4165892484866688e-01   5.5479791178658353e-02   5.5479791178658353e-02   2.2013503130485251e-02   5.5479791178605874e-02   2.2013503130478292e-02   1.5852188986114066e-01   2.3753742595797578e-01   1.5852188986104074e-01   2.3753742595798638e-01   2.3753742595798291e-01   1.4165892484866649e-01   2.3753742595798638e-01   1.4165892484866638e-01   1.5852188986113813e-01   2.3753742595798288e-01   1.5852188986113813e-01   2.3753742595798003e-01   2.3753742595768623e-01   1.4165892484866910e-01   2.3753742595798211e-01   1.4165892484875361e-01   2.3753742595797719e-01   1.4165892484857706e-01   2.3753742595768093e-01   1.4165892484875647e-01   1.4165892484875606e-01   5.5479791178675901e-02   1.4165892484875633e-01   5.5479791178675901e-02   2.3753742595798194e-01   1.4165892484866852e-01   2.3753742595783378e-01   1.4165892484866716e-01   1.4165892484875603e-01   5.5479791178675908e-02   1.4165892484875622e-01   5.5479791178605804e-02   1.5852188986104196e-01   2.3753742595798352e-01   1.5852188986094243e-01   2.3753742595798133e-01   2.3753742595782767e-01   1.4165892484875639e-01   2.3753742595798133e-01   1.4165892484857728e-01   1.5852188986103788e-01   2.3753742595783151e-01   1.5852188986103785e-01   2.3753742595782767e-01   2.3753742595783633e-01   1.4165892484875861e-01   2.3753742595782878e-01   1.4165892484866477e-01   2.3753742595798291e-01   1.4165892484866699e-01   2.3753742595798241e-01   1.4165892484875731e-01   1.4165892484875650e-01   5.5479791178675998e-02   1.4165892484866432e-01   5.5479791178640804e-02   2.3753742595782967e-01   1.4165892484866907e-01   2.3753742595782673e-01   1.4165892484866421e-01   1.4165892484875847e-01   5.5479791178640409e-02   1.4165892484866857e-01   5.5479791178658297e-02   2.3753742595798058e-01   1.4165892484875595e-01   2.3753742595768187e-01   1.4165892484875667e-01   1.4165892484875561e-01   5.5479791178675866e-02   1.4165892484857673e-01   5.5479791178675866e-02   2.3753742595767957e-01   1.4165892484875803e-01   2.3753742595797689e-01   1.4165892484875392e-01   1.4165892484875828e-01   5.5479791178605430e-02   1.4165892484875639e-01   5.5479791178605804e-02   1.4165892484875886e-01   5.5479791178675866e-02   1.4165892484875614e-01   5.5479791178675866e-02   5.5479791178675866e-02   2.2013503130492069e-02   5.5479791178675866e-02   2.2013503130492332e-02   1.4165892484875614e-01   5.5479791178675242e-02   1.4165892484857984e-01   5.5479791178675852e-02   5.5479791178675297e-02   2.2013503130464192e-02   5.5479791178606047e-02   2.2013503130464407e-02   2.3753742595797689e-01   1.4165892484875595e-01   2.3753742595827701e-01   1.4165892484857739e-01   1.4165892484875703e-01   5.5479791178640769e-02   1.4165892484866852e-01   5.5479791178675825e-02   2.3753742595798477e-01   1.4165892484875764e-01   2.3753742595738359e-01   1.4165892484893397e-01   1.4165892484875595e-01   5.5479791178605659e-02   1.4165892484875495e-01   5.5479791178675825e-02   1.4165892484866396e-01   5.5479791178640769e-02   1.4165892484866754e-01   5.5479791178710929e-02   5.5479791178605783e-02   2.2013503130492221e-02   5.5479791178605783e-02   2.2013503130464303e-02   1.4165892484875395e-01   5.5479791178675977e-02   1.4165892484866924e-01   5.5479791178640804e-02   5.5479791178640936e-02   2.2013503130492173e-02   5.5479791178675880e-02   2.2013503130492176e-02   1.5852188986108515e-01   2.3753742595806762e-01   1.5852188986108517e-01   2.3753742595807545e-01   2.3753742595792296e-01   1.4165892484872381e-01   2.3753742595807664e-01   1.4165892484872411e-01   1.5852188986098589e-01   2.3753742595807550e-01   1.5852188986108656e-01   2.3753742595791880e-01   2.3753742595836780e-01   1.4165892484863515e-01   2.3753742595807192e-01   1.4165892484863515e-01   2.3753742595806607e-01   1.4165892484863252e-01   2.3753742595807312e-01   1.4165892484890474e-01   1.4165892484872258e-01   5.5479791178648437e-02   1.4165892484854525e-01   5.5479791178684124e-02   2.3753742595807276e-01   1.4165892484872644e-01   2.3753742595792260e-01   1.4165892484863457e-01   1.4165892484863457e-01   5.5479791178683603e-02   1.4165892484872408e-01   5.5479791178683631e-02   1.5852188986098581e-01   2.3753742595806965e-01   1.5852188986108545e-01   2.3753742595806995e-01   2.3753742595807120e-01   1.4165892484863501e-01   2.3753742595806826e-01   1.4165892484863504e-01   1.5852188986108304e-01   2.3753742595806826e-01   1.5852188986108293e-01   2.3753742595806884e-01   2.3753742595807031e-01   1.4165892484872408e-01   2.3753742595806890e-01   1.4165892484872197e-01   2.3753742595806965e-01   1.4165892484872417e-01   2.3753742595806962e-01   1.4165892484872417e-01   1.4165892484872417e-01   5.5479791178648485e-02   1.4165892484854306e-01   5.5479791178648055e-02   2.3753742595807470e-01   1.4165892484867942e-01   2.3753742595807464e-01   1.4165892484863649e-01   1.4165892484863504e-01   5.5479791178683638e-02   1.4165892484867978e-01   5.5479791178683534e-02   2.3753742595807673e-01   1.4165892484872517e-01   2.3753742595807525e-01   1.4165892484872408e-01   1.4165892484872408e-01   5.5479791178683860e-02   1.4165892484872317e-01   5.5479791178683360e-02   2.3753742595806776e-01   1.4165892484890324e-01   2.3753742595806629e-01   1.4165892484872336e-01   1.4165892484872408e-01   5.5479791178613277e-02   1.4165892484872408e-01   5.5479791178683104e-02   1.4165892484872644e-01   5.5479791178613493e-02   1.4165892484890363e-01   5.5479791178683437e-02   5.5479791178683631e-02   2.2013503130547687e-02   5.5479791178683631e-02   2.2013503130464490e-02   1.4165892484854561e-01   5.5479791178682861e-02   1.4165892484872630e-01   5.5479791178543278e-02   5.5479791178682805e-02   2.2013503130491989e-02   5.5479791178683437e-02   2.2013503130492208e-02   2.3753742595806762e-01   1.4165892484872408e-01   2.3753742595806762e-01   1.4165892484854561e-01   1.4165892484854506e-01   5.5479791178719144e-02   1.4165892484872408e-01   5.5479791178718159e-02   2.3753742595807187e-01   1.4165892484872408e-01   2.3753742595806762e-01   1.4165892484854506e-01   1.4165892484872322e-01   5.5479791178613048e-02   1.4165892484872408e-01   5.5479791178683631e-02   1.4165892484872555e-01   5.5479791178684089e-02   1.4165892484872386e-01   5.5479791178648055e-02   5.5479791178683631e-02   2.2013503130464386e-02   5.5479791178683631e-02   2.2013503130492097e-02   1.4165892484854506e-01   5.5479791178683631e-02   1.4165892484872408e-01   5.5479791178683437e-02   5.5479791178683631e-02   2.2013503130464337e-02   5.5479791178683513e-02   2.2013503130492159e-02   1.5852188986108592e-01   2.3753742595807145e-01   1.5852188986108545e-01   2.3753742595791752e-01   2.3753742595799324e-01   1.4165892484867978e-01   2.3753742595799260e-01   1.4165892484867934e-01   1.5852188986103477e-01   2.3753742595799324e-01   1.5852188986103491e-01   2.3753742595814467e-01   2.3753742595806965e-01   1.4165892484863649e-01   2.3753742595799460e-01   1.4165892484867890e-01   2.3753742595791752e-01   1.4165892484872206e-01   2.3753742595806826e-01   1.4165892484872417e-01   1.4165892484863468e-01   5.5479791178683631e-02   1.4165892484872417e-01   5.5479791178683027e-02   2.3753742595792499e-01   1.4165892484872591e-01   2.3753742595799926e-01   1.4165892484867890e-01   1.4165892484867942e-01   5.5479791178684040e-02   1.4165892484867942e-01   5.5479791178683534e-02   1.5852188986103297e-01   2.3753742595799324e-01   1.5852188986108276e-01   2.3753742595806834e-01   2.3753742595807639e-01   1.4165892484868128e-01   2.3753742595815067e-01   1.4165892484867723e-01   1.5852188986103535e-01   2.3753742595806995e-01   1.5852188986108484e-01   2.3753742595799418e-01   2.3753742595799487e-01   1.4165892484867942e-01   2.3753742595806923e-01   1.4165892484872417e-01   2.3753742595806632e-01   1.4165892484867953e-01   2.3753742595806701e-01   1.4165892484872405e-01   1.4165892484867953e-01   5.5479791178683693e-02   1.4165892484870191e-01   5.5479791178674270e-02   2.3753742595799324e-01   1.4165892484872641e-01   2.3753742595799615e-01   1.4165892484872417e-01   1.4165892484868164e-01   5.5479791178666638e-02   1.4165892484867892e-01   5.5479791178665548e-02   2.3753742595799460e-01   1.4165892484867956e-01   2.3753742595807012e-01   1.4165892484872289e-01   1.4165892484867965e-01   5.5479791178674770e-02   1.4165892484867820e-01   5.5479791178674610e-02   2.3753742595803273e-01   1.4165892484870138e-01   2.3753742595803329e-01   1.4165892484870224e-01   1.4165892484869064e-01   5.5479791178674701e-02   1.4165892484870179e-01   5.5479791178674853e-02   1.4165892484870185e-01   5.5479791178674714e-02   1.4165892484870163e-01   5.5479791178674742e-02   5.5479791178676956e-02   2.2013503130488679e-02   5.5479791178674742e-02   2.2013503130488683e-02   1.4165892484871284e-01   5.5479791178670315e-02   1.4165892484870210e-01   5.5479791178674867e-02   5.5479791178674541e-02   2.2013503130488644e-02   5.5479791178665826e-02   2.2013503130492204e-02   2.3753742595806859e-01   1.4165892484872358e-01   2.3753742595806837e-01   1.4165892484870168e-01   1.4165892484870252e-01   5.5479791178683700e-02   1.4165892484867976e-01   5.5479791178674284e-02   2.3753742595799418e-01   1.4165892484872417e-01   2.3753742595799418e-01   1.4165892484872408e-01   1.4165892484868092e-01   5.5479791178666589e-02   1.4165892484867834e-01   5.5479791178683062e-02   1.4165892484872417e-01   5.5479791178701034e-02   1.4165892484872417e-01   5.5479791178683534e-02   5.5479791178666089e-02   2.2013503130485224e-02   5.5479791178683610e-02   2.2013503130485220e-02   1.4165892484872417e-01   5.5479791178683534e-02   1.4165892484867942e-01   5.5479791178683999e-02   5.5479791178683638e-02   2.2013503130478285e-02   5.5479791178683083e-02   2.2013503130492180e-02   1.0627901924073636e-01   9.8198141634067190e-02   1.0627901924073689e-01   9.8198141634066968e-02   9.8198141634066774e-02   1.0627901924073629e-01   9.8198141634096528e-02   1.0627901924073629e-01   1.0627901924073682e-01   9.8198141634038144e-02   1.0627901924067278e-01   9.8198141634096459e-02   9.8198141634096070e-02   1.0627901924070467e-01   9.8198141634096528e-02   1.0627901924070469e-01   9.8198141634067121e-02   1.0627901924070425e-01   9.8198141634096098e-02   1.0627901924070415e-01   1.0627901924073692e-01   9.8198141634096417e-02   1.0627901924073652e-01   9.8198141634096611e-02   9.8198141634095501e-02   1.0627901924070376e-01   9.8198141634066136e-02   1.0627901924073595e-01   1.0627901924070407e-