<?xml version="1.0"?>
<VTKFile type="UnstructuredGrid"  version="0.1"  >
<UnstructuredGrid>
<Piece  NumberOfPoints="65" NumberOfCells="96">
<Points>
<DataArray  type="Float64"  NumberOfComponents="3"  format="ascii">-1 1 0  -0.7500000000000002 1 0  -1 0.75 0  -0.5000000000000002 1 0  -0.4687317158419215 0.4687317158419215 0  -1 0.5000000000000002 0  -0.2500000000000001 1 0  -0.167322142694602 0.250983214041903 0  -0.250983214041903 0.167322142694602 0  -1 0.2500000000000001 0  1 1 0  0.9999999999979623 1.110223024622894e-16 0  1 0.2500000000000002 0  1 0.5000000000000002 0  1 0.75 0  0.75 1 0  0.5000000000000002 1 0  0.2500000000000001 1 0  0 0.9999999999979623 0  -0.02996239294911606 0.08988717884734818 0  -0.02199800931582472 0.02199800931582472 0  -0.08988717884734816 0.02996239294911605 0  -0.9999999999979623 0 0  0.4687317158419215 0.4687317158419215 0  0.0563135147094726 0 0  0.08988717884734816 0.02996239294911605 0  0.250983214041903 0.167322142694602 0  0.167322142694602 0.250983214041903 0  0.02996239294911605 0.08988717884734816 0  0 0.0563135147094726 0  -0.001332765915716535 0.00266553183143307 0  -0.00266553183143307 0.001332765915716535 0  -0.0563135147094726 0 0  -1 -0.2500000000000002 0  0.02199800931582472 0.02199800931582472 0  0.0009765624999999977 0 0  0.00266553183143307 0.001332765915716535 0  0.001332765915716535 0.00266553183143307 0  0 0.0009765624999999977 0  -2.157918606448279e-05 2.157918606448279e-05 0  -0.0009765624999999977 0 0  -0.08988717884734818 -0.02996239294911606 0  -1 -0.5000000000000002 0  2.157918606448279e-05 2.157918606448279e-05 0  9.536743164062467e-07 0 0  0 9.536743164062467e-07 0  -1 -0.7500000000000002 0  -9.536743164062467e-07 0 0  -0.00266553183143307 -0.001332765915716535 0  -0.250983214041903 -0.167322142694602 0  -1 -1 0  0 0 0  -0.4687317158419215 -0.4687317158419215 0  -2.157918606448279e-05 -2.157918606448279e-05 0  -0.02199800931582472 -0.02199800931582472 0  -0.7499999999999999 -1 0  0 -9.536743164062467e-07 0  -0.167322142694602 -0.250983214041903 0  -0.001332765915716535 -0.00266553183143307 0  -0.4999999999999993 -0.9999999999999986 0  0 -0.0009765624999999977 0  -0.02996239294911605 -0.08988717884734816 0  -0.2499999999999996 -0.9999999999999987 0  0 -0.0563135147094726 0  0 -0.9999999999979609 0  </DataArray>
</Points>
<Cells>
<DataArray  type="UInt32"  Name="connectivity"  format="ascii">0 1 2  2 4 5  1 3 4  1 2 4  9 21 22  8 20 21  5 8 9  8 9 21  6 18 19  3 6 7  7 19 20  6 7 19  4 5 8  7 8 20  3 4 7  4 7 8  45 47 51  38 39 45  39 40 47  39 45 47  18 19 29  19 20 30  29 30 38  19 29 30  21 22 32  31 32 40  20 21 31  21 31 32  30 38 39  20 30 31  31 39 40  30 31 39  22 32 33  33 41 42  32 40 41  32 33 41  46 50 52  49 52 54  42 46 49  46 49 52  47 51 53  40 47 48  48 53 54  47 48 53  41 42 49  48 49 54  40 41 48  41 48 49  62 63 64  60 61 63  59 61 62  61 62 63  51 53 56  53 54 58  56 58 60  53 56 58  50 52 55  55 57 59  52 54 57  52 55 57  58 60 61  54 57 58  57 59 61  57 58 61  17 18 29  28 29 38  16 17 28  17 28 29  43 45 51  34 37 43  37 38 45  37 43 45  10 15 23  15 16 27  23 27 34  15 23 27  28 37 38  27 34 37  16 27 28  27 28 37  11 12 24  12 13 25  24 25 35  12 24 25  10 14 23  23 26 34  13 14 26  14 23 26  43 44 51  35 36 44  34 36 43  36 43 44  13 25 26  26 34 36  25 35 36  25 26 36  </DataArray>
<DataArray  type="UInt32"  Name="offsets"  format="ascii">3 6 9 12 15 18 21 24 27 30 33 36 39 42 45 48 51 54 57 60 63 66 69 72 75 78 81 84 87 90 93 96 99 102 105 108 111 114 117 120 123 126 129 132 135 138 141 144 147 150 153 156 159 162 165 168 171 174 177 180 183 186 189 192 195 198 201 204 207 210 213 216 219 222 225 228 231 234 237 240 243 246 249 252 255 258 261 264 267 270 273 276 279 282 285 288 </DataArray>
<DataArray  type="UInt8"  Name="types"  format="ascii">5 5 5 5 5 5 5 5 5 5 5 5 5 5 5 5 5 5 5 5 5 5 5 5 5 5 5 5 5 5 5 5 5 5 5 5 5 5 5 5 5 5 5 5 5 5 5 5 5 5 5 5 5 5 5 5 5 5 5 5 5 5 5 5 5 5 5 5 5 5 5 5 5 5 5 5 5 5 5 5 5 5 5 5 5 5 5 5 5 5 5 5 5 5 5 5 </DataArray>
</Cells>
<CellData  Scalars="mu"> 
<DataArray  type="Float64"  Name="mu"  format="ascii">2.0710678118654768e-01   1.5972139501818536e-01   1.5972139501818525e-01   2.1719829896018655e-01   1.1588261140449568e-01   5.3791181945724360e-02   1.2532097103257786e-01   5.0302549168726424e-02   1.1588261140449568e-01   1.2532097103257786e-01   5.3791181945724333e-02   5.0302549168726438e-02   1.0853683515764544e-01   1.7475498783435120e-01   1.0853683515764535e-01   1.3550979710956895e-01   2.0710678118654752e-01   1.1005932461836914e-02   1.1005932461836914e-02   2.2085934884161124e-02   1.5775561744012335e-02   7.2194907751736329e-02   1.1990375986821379e-02   9.4492595046453964e-02   1.5775561744012328e-02   1.1990375986821379e-02   7.2194907751736356e-02   9.4492595046453937e-02   7.3229397254418876e-02   3.2211370180366017e-02   7.3229397254418876e-02   2.2936639857732993e-01   1.1136949298269197e-01   1.0047915188501105e-01   9.1016714771816540e-02   1.0403481780710148e-02   1.1031601130322780e-01   4.6404434494568318e-02   9.7755800417463859e-02   5.4216853794399014e-02   1.0996844518876392e-02   7.1471049034174089e-02   1.5119907332174555e-02   1.6899915207426340e-03   2.3409732591937203e-02   1.0760232921589960e-02   3.8535920238969485e-03   4.0966901055632325e-02   1.1136949298269187e-01   9.1016714771816554e-02   1.0047915188501109e-01   1.0403481780710162e-02   1.0996844518876394e-02   1.5119907332174554e-02   7.1471049034174075e-02   1.6899915207426338e-03   1.1031601130322796e-01   9.7755800417463651e-02   4.6404434494568304e-02   5.4216853794399111e-02   3.8535920238969494e-03   1.0760232921589960e-02   2.3409732591937262e-02   4.0966901055632339e-02   1.1136949298269196e-01   9.1016714771816554e-02   1.0047915188501108e-01   1.0403481780710147e-02   1.0996844518876392e-02   1.5119907332174554e-02   7.1471049034174075e-02   1.6899915207426340e-03   1.1031601130322777e-01   9.7755800417463831e-02   4.6404434494568318e-02   5.4216853794399028e-02   3.8535920238969494e-03   1.0760232921589960e-02   2.3409732591937210e-02   4.0966901055632339e-02   1.1136949298269194e-01   1.0047915188501105e-01   9.1016714771816554e-02   1.0403481780710143e-02   1.1031601130322777e-01   4.6404434494568318e-02   9.7755800417463706e-02   5.4216853794399091e-02   1.0996844518876392e-02   7.1471049034174075e-02   1.5119907332174554e-02   1.6899915207426340e-03   2.3409732591937217e-02   1.0760232921589960e-02   3.8535920238969494e-03   4.0966901055632339e-02   </DataArray> 
</CellData> 
</Piece>
</UnstructuredGrid>
</VTKFile>