<?xml version="1.0"?>
<VTKFile type="UnstructuredGrid"  version="0.1"  >
<UnstructuredGrid>
<Piece  NumberOfPoints="3201" NumberOfCells="6144">
<Points>
<DataArray  type="Float64"  NumberOfComponents="3"  format="ascii">0.1495496114427624 -0.1495496114427624 0  1.287144439429404 -1.716192585905872 0  1.716192585905716 -1.287144439429287 0  0.2837720459405749 -0.5675440918811498 0  3.278179782504071 -3.278179782504071 0  0.5675440918811498 -0.2837720459405749 0  1.756932646787236 -7.027730587148944 0  3.898324400662581 -5.847486600993871 0  5.847486600993853 -3.898324400662569 0  7.027730587148944 -1.756932646787236 0  -0.1495496114427624 -0.1495496114427624 0  5.656854249492382 6.280369834735103e-16 0  -7.027730587148944 -1.756932646787237 0  -0.5675440918811498 -0.2837720459405749 0  -1.716192585905716 -1.287144439429287 0  -1.287144439429287 -1.716192585905716 0  -0.2837720459405749 -0.5675440918811498 0  -1.756932646787236 -7.027730587148944 0  0 5.656854249492382 0  0.2922068412242178 -0.8766205236726532 0  0.1910394894585253 -0.1910394894585253 0  0.8766205236725884 -0.2922068412241961 0  -5.656854249492382 0 0  -3.278179782504071 -3.278179782504071 0  23.83793724888972 0 0  -0.8766205236725884 -0.2922068412241961 0  -5.847486600993853 -3.898324400662569 0  -3.898324400662569 -5.847486600993853 0  -0.2922068412241961 -0.8766205236725884 0  0 23.83793724888972 0  1.671770658765338 -3.343541317530675 0  3.343541317530675 -1.671770658765338 0  -23.83793724888972 0 0  7.027730587148944 1.756932646787236 0  -0.1910394894585253 -0.1910394894585253 0  181.019335983452 0 0  -3.343541317530675 -1.671770658765338 0  -1.671770658765338 -3.343541317530675 0  0 181.019335983452 0  0.1068812197939318 -0.1068812197939318 0  -181.019335983452 0 0  0.8766205236726532 0.2922068412242178 0  0.5675440918811498 0.2837720459405749 0  -0.1068812197939318 -0.1068812197939318 0  5792.61875148012 0 0  0 5792.61875148012 0  1.716192585905872 1.287144439429404 0  -5792.61875148012 0 0  3.343541317530675 1.671770658765338 0  5.847486600993871 3.898324400662581 0  0.1495496114427583 0.1495496114427583 0  0 0 0  3.278179782504071 3.278179782504071 0  0.1068812197939318 0.1068812197939318 0  0.1910394894585253 0.1910394894585253 0  1.287144439429287 1.716192585905716 0  0 -5792.61875148012 0  3.898324400662531 5.847486600993797 0  1.671770658765331 3.343541317530662 0  0.2837720459392363 0.5675440918784725 0  0 -181.019335983452 0  0.2922068412241961 0.8766205236725884 0  1.756932646787229 7.027730587148919 0  0 -23.83793724888972 0  0 -5.656854249492387 0  0.7183470254360832 -0.9328710986743172 0  0.9328710986742393 -0.7183470254360248 0  1.50166851266756 -1.50166851266758 0  0.7854582426849894 -1.141868338893511 0  2.282662110966737 -2.497186184204971 0  2.497186184204893 -2.282662110966679 0  1.141868338893433 -0.785458242684931 0  1.780975914222323 -1.92286193719261 0  1.020352346363905 -3.797637339515047 0  2.091048223301578 -3.20751534643751 0  1.92286193719261 -1.780975914222323 0  3.588252091583326 -4.562833191748971 0  4.562833191748962 -3.588252091583319 0  3.207515346437501 -2.091048223301572 0  3.797637339515047 -1.020352346363905 0  2.827628523724908 -6.437608594071407 0  0.878466323393618 -0.6854381688282807 0  1.024569744005727 -3.952175555410799 0  4.872905500828216 -4.872905500828219 0  2.095265620943399 -3.362053562333262 0  2.044681945060553 -3.019263045226198 0  6.437608594071398 -2.827628523724902 0  3.019263045226189 -2.044681945060547 0  3.36205356233322 -2.095265620943382 0  3.952175555410766 -1.024569744005716 0  0.6854381688282807 -0.878466323393618 0  -0.9328710986742393 -0.7183470254360248 0  -0.7183470254360248 -0.9328710986742393 0  -1.713864696973416 -1.713864696973416 0  -0.6854381688282807 -0.8784663233936181 0  14.74739574919105 3.140184917367551e-16 0  -3.797637339515047 -1.020352346363906 0  8.405103330870388 -0.8784663233936184 0  -3.952175555410766 -1.024569744005716 0  -1.141868338893433 -0.785458242684931 0  -0.7220823077768691 -0.2879894435823855 0  -3.207515346437501 -2.091048223301572 0  -2.497186184204893 -2.282662110966679 0  -3.781839593449785 -2.592734420045928 0  -0.785458242684931 -1.141868338893433 0  -2.282662110966679 -2.497186184204893 0  -2.592734420045928 -3.781839593449785 0  -1.020352346363905 -3.797637339515047 0  -2.091048223301572 -3.207515346437501 0  -0.2879894435823855 -0.7220823077768691 0  -0.878466323393618 -0.6854381688282807 0  -1.024569744005716 -3.952175555410766 0  -0.878466323393618 8.405103330870388 0  0.1461034206121089 2.390116862909864 0  0 14.74739574919105 0  0.2416231653413715 -0.5338300065655892 0  0.1461034206121089 11.48065836260853 0  0.9819887499947777 -2.110080920601664 0  0.5338300065655568 -0.2416231653413607 0  0.9314050741119314 -1.7672904034946 0  1.7672904034946 -0.9314050741119314 0  -2.390116862909897 -0.1461034206120981 0  2.110080920601632 -0.9819887499947668 0  -11.48065836260857 -0.1461034206120981 0  -14.74739574919105 0 0  0.6854381688282807 0.8784663233936182 0  -4.562833191748962 -3.588252091583319 0  -3.588252091583319 -4.562833191748962 0  -1.734609635981298 -1.734609635981298 0  11.48065836260857 -0.1461034206120981 0  102.4286366161709 0 0  -3.36205356233322 -2.095265620943382 0  90.07135772988971 -0.1461034206120981 0  -2.110080920601632 -0.9819887499947668 0  -3.019263045226189 -2.044681945060547 0  -4.595513959262264 -2.785047529713953 0  -2.095265620943382 -3.36205356233322 0  -2.044681945060547 -3.019263045226189 0  -2.785047529713953 -4.595513959262264 0  -0.1461034206120981 11.48065836260857 0  -0.9819887499947668 -2.110080920601632 0  -0.1461034206120981 90.07135772988971 0  0.8358853293826688 10.24719796567952 0  0 102.4286366161709 0  2.507655988148006 -2.507655988148006 0  0.8358853293826688 88.83789733296067 0  0.8893259392796347 -1.725211268662304 0  -10.24719796567952 -0.8358853293826688 0  1.725211268662304 -0.8893259392796347 0  -88.83789733296067 -0.8358853293826688 0  -8.405103330870388 0.8784663233936182 0  -102.4286366161709 0 0  -11.48065836260853 0.1461034206121089 0  3.952175555410799 1.024569744005727 0  3.797637339515047 1.020352346363906 0  -1.7672904034946 -0.9314050741119314 0  -0.9314050741119314 -1.7672904034946 0  -0.1489603546262285 -0.1489603546262285 0  88.83789733296067 -0.8358853293826688 0  2986.819043731786 0 0  -1.725211268662304 -0.8893259392796347 0  2894.637605081295 -0.8358853293826688 0  -0.8358853293826688 88.83789733296067 0  -0.8893259392796347 -1.725211268662304 0  -0.8358853293826688 2894.637605081295 0  0.05344060989696589 90.45622738182904 0  0 2986.819043731786 0  -90.45622738182904 -0.05344060989696589 0  0.05344060989696589 2896.255935130163 0  -2896.255935130163 -0.05344060989696589 0  -90.07135772988968 0.1461034206121089 0  -2986.819043731786 0 0  -88.83789733296067 0.8358853293826688 0  0.7220823077769015 0.2879894435823964 0  2.110080920601664 0.9819887499947777 0  3.362053562333262 2.095265620943399 0  1.141868338893511 0.7854582426849894 0  3.20751534643751 2.091048223301578 0  2896.255935130163 -0.05344060989696589 0  -0.05344060989696589 2896.255935130163 0  -0.05344060989696589 -0.05344060989696589 0  2896.30937574006 0 0  -2896.30937574006 2896.30937574006 0  0 2896.30937574006 0  3.781839593449871 2.592734420045992 0  0.9328710986743152 0.7183470254360812 0  2.497186184204971 2.282662110966737 0  -2894.637605081295 0.8358853293826688 0  -2896.30937574006 0 0  -2896.255935130163 0.05344060989696589 0  4.595513959262273 2.785047529713959 0  1.725211268662304 0.8893259392796347 0  1.7672904034946 0.9314050741119314 0  4.562833191748971 3.588252091583326 0  3.019263045226198 2.044681945060553 0  1.713864696973414 1.713864696973414 0  0.7183470254360227 0.9328710986742373 0  0.05344060989696589 0.05344060989696589 0  0 -2896.30937574006 0  1.734609635981298 1.734609635981298 0  2.282662110966679 2.497186184204893 0  3.588252091583301 4.562833191748934 0  0.1489603546262285 0.1489603546262285 0  0.05344060989696589 -2896.255935130163 0  0.8893259392796314 1.725211268662297 0  2.044681945060528 3.019263045226161 0  0.9314050741119282 1.767290403494594 0  2.592734420045909 3.781839593449757 0  0.7854582426842617 1.141868338892094 0  0.8358853293826656 -2894.637605081295 0  0 -2986.819043731786 0  2.785047529713931 4.595513959262229 0  2.091048223300884 3.207515346436135 0  2.095265620943364 3.362053562333193 0  0.8358853293826656 -88.83789733296068 0  0.9819887499947636 2.110080920601625 0  0.2879894435817162 0.7220823077755305 0  1.020352346363233 3.797637339513696 0  0.1461034206120981 -90.07135772988971 0  0 -102.4286366161709 0  1.024569744005713 3.952175555410753 0  0.1461034206120981 -11.48065836260857 0  0.8784663233936145 -8.4051033308704 0  0.8784663233936145 0.685438168828266 0  0 -14.74739574919105 0  0.4339483184394228 -0.5412103550585398 0  0.5412103550585008 -0.4339483184393936 0  1.002745732432744 -1.324531842290094 0  1.394406476048482 -1.608930549286726 0  1.036301341057197 -1.429030462399691 0  1.784903275198071 -2.106689385055422 0  1.892165311817149 -1.999427348436275 0  1.534060176825863 -1.819527261549241 0  1.2172698056709 -1.110007769051802 0  1.324531842289978 -1.002745732432656 0  1.608930549286638 -1.394406476048433 0  2.106689385055305 -1.784903275197983 0  1.429030462399575 -1.036301341057109 0  1.819527261549163 -1.534060176825805 0  0.5346151443127822 -0.8547062153873304 0  1.032373980081449 -1.24520301453688 0  0.6520621961522401 -2.182590715698098 0  1.187410134621076 -1.88752971915933 0  2.780420946735404 -2.887682983354521 0  2.887682983354482 -2.780420946735375 0  2.529577848363197 -2.60052085984834 0  2.684614002902824 -3.24284756447079 0  2.60052085984834 -2.529577848363197 0  3.433215937043698 -3.920506487126521 0  3.920506487126517 -3.433215937043695 0  3.242847564470786 -2.684614002902821 0  0.8547062153872914 -0.5346151443127529 0  1.24520301453688 -1.032373980081449 0  1.887529719159326 -1.187410134621073 0  2.182590715698098 -0.6520
[...]
<CellData  Scalars="mu"> 
<DataArray  type="Float64"  Name="mu"  format="ascii">1.1755355824969477e-01   1.3379639624720224e-01   1.1755355824970627e-01   1.3379639624720907e-01   1.3379639624720932e-01   1.1755355824970054e-01   1.3379639624720929e-01   1.1755355824969765e-01   1.1755355824970685e-01   1.3379639624721532e-01   1.1755355824970108e-01   1.3379639624721562e-01   1.3379639624720974e-01   1.1755355824970061e-01   1.3379639624720974e-01   1.1755355824970089e-01   1.3379639624720874e-01   1.1755355824970061e-01   1.3379639624720224e-01   1.1755355824969500e-01   1.1755355824970057e-01   1.3379639624720605e-01   1.1755355824970067e-01   1.3379639624720230e-01   1.3379639624720227e-01   1.1755355824970061e-01   1.3379639624721545e-01   1.1755355824970652e-01   1.1755355824969477e-01   1.3379639624720907e-01   1.1755355824970053e-01   1.3379639624720224e-01   1.1755355824970024e-01   1.3379639624720902e-01   1.1755355824969731e-01   1.3379639624720532e-01   1.3379639624720910e-01   1.1755355824969467e-01   1.3379639624720890e-01   1.1755355824970057e-01   1.1755355824970092e-01   1.3379639624720288e-01   1.1755355824969799e-01   1.3379639624720535e-01   1.3379639624720890e-01   1.1755355824970061e-01   1.3379639624720235e-01   1.1755355824969514e-01   1.3379639624720729e-01   1.1755355824969770e-01   1.3379639624720566e-01   1.1755355824970055e-01   1.1755355824969763e-01   1.3379639624720566e-01   1.1755355824969911e-01   1.3379639624720735e-01   1.3379639624720571e-01   1.1755355824969770e-01   1.3379639624720566e-01   1.1755355824969911e-01   1.1755355824969846e-01   1.3379639624720657e-01   1.1755355824969843e-01   1.3379639624720674e-01   2.3753742595792518e-01   1.4165892484871245e-01   2.3753742595788621e-01   1.4165892484870002e-01   1.4165892484868947e-01   5.5479791178649658e-02   1.4165892484871137e-01   5.5479791178658339e-02   2.3753742595790561e-01   1.4165892484870127e-01   2.3753742595790561e-01   1.4165892484870019e-01   1.4165892484871140e-01   5.5479791178653981e-02   1.4165892484871112e-01   5.5479791178653717e-02   1.4165892484870582e-01   5.5479791178653891e-02   1.4165892484870604e-01   5.5479791178654966e-02   5.5479791178654973e-02   2.2013503130484131e-02   5.5479791178656042e-02   2.2013503130485230e-02   1.4165892484870130e-01   5.5479791178654016e-02   1.4165892484871156e-01   5.5479791178653717e-02   5.5479791178653932e-02   2.2013503130485230e-02   5.5479791178658304e-02   2.2013503130485244e-02   2.3753742595790642e-01   1.4165892484871093e-01   2.3753742595794394e-01   1.4165892484871162e-01   1.4165892484873402e-01   5.5479791178658304e-02   1.4165892484869036e-01   5.5479791178649540e-02   2.3753742595790639e-01   1.4165892484871181e-01   2.3753742595790461e-01   1.4165892484871162e-01   1.4165892484868925e-01   5.5479791178658422e-02   1.4165892484871120e-01   5.5479791178653745e-02   1.4165892484871145e-01   5.5479791178658283e-02   1.4165892484866627e-01   5.5479791178658165e-02   5.5479791178658339e-02   2.2013503130485244e-02   5.5479791178640499e-02   2.2013503130485168e-02   1.4165892484871140e-01   5.5479791178658339e-02   1.4165892484866713e-01   5.5479791178658304e-02   5.5479791178658318e-02   2.2013503130485217e-02   5.5479791178658380e-02   2.2013503130485217e-02   2.3753742595803398e-01   1.4165892484870135e-01   2.3753742595799793e-01   1.4165892484870199e-01   1.4165892484867959e-01   5.5479791178683784e-02   1.4165892484870288e-01   5.5479791178674846e-02   2.3753742595799551e-01   1.4165892484870196e-01   2.3753742595806834e-01   1.4165892484872311e-01   1.4165892484872417e-01   5.5479791178674513e-02   1.4165892484870268e-01   5.5479791178674825e-02   1.4165892484867995e-01   5.5479791178666082e-02   1.4165892484872369e-01   5.5479791178665715e-02   5.5479791178665992e-02   2.2013503130492180e-02   5.5479791178683159e-02   2.2013503130492107e-02   1.4165892484872436e-01   5.5479791178666062e-02   1.4165892484867959e-01   5.5479791178683409e-02   5.5479791178683555e-02   2.2013503130492156e-02   5.5479791178683534e-02   2.2013503130492156e-02   2.3753742595804994e-01   1.4165892484871315e-01   2.3753742595803123e-01   1.4165892484871367e-01   1.4165892484870068e-01   5.5479791178674569e-02   1.4165892484871365e-01   5.5479791178670634e-02   2.3753742595803073e-01   1.4165892484870166e-01   2.3753742595803304e-01   1.4165892484869055e-01   1.4165892484870188e-01   5.5479791178674596e-02   1.4165892484871428e-01   5.5479791178674812e-02   1.4165892484870685e-01   5.5479791178676831e-02   1.4165892484870179e-01   5.5479791178675873e-02   5.5479791178674721e-02   2.2013503130488898e-02   5.5479791178675880e-02   2.2013503130488686e-02   1.4165892484870715e-01   5.5479791178672404e-02   1.4165892484871295e-01   5.5479791178674791e-02   5.5479791178674749e-02   2.2013503130488696e-02   5.5479791178670620e-02   2.2013503130488700e-02   9.8198141634081887e-02   1.0627901924072065e-01   9.8198141634081720e-02   1.0627901924072086e-01   1.0627901924072775e-01   9.8198141634081706e-02   1.0627901924072770e-01   9.8198141634081068e-02   9.8198141634074282e-02   1.0627901924073671e-01   9.8198141634066954e-02   1.0627901924072065e-01   1.0627901924072065e-01   9.8198141634081679e-02   1.0627901924072065e-01   9.8198141634081595e-02   1.0627901924070501e-01   9.8198141634080957e-02   1.0627901924072086e-01   9.8198141634067010e-02   9.8198141634081540e-02   1.0627901924072028e-01   9.8198141634066954e-02   1.0627901924072065e-01   1.0627901924070424e-01   9.8198141634081651e-02   1.0627901924072010e-01   9.8198141634066219e-02   9.8198141634080957e-02   1.0627901924072065e-01   9.8198141634080957e-02   1.0627901924072033e-01   9.8198141634081873e-02   1.0627901924072515e-01   9.8198141634081720e-02   1.0627901924072020e-01   1.0627901924072515e-01   9.8198141634074546e-02   1.0627901924071328e-01   9.8198141634073921e-02   9.8198141634080999e-02   1.0627901924072020e-01   9.8198141634080999e-02   1.0627901924072118e-01   1.0627901924072880e-01   9.8198141634081748e-02   1.0627901924071294e-01   9.8198141634081540e-02   1.0627901924072065e-01   9.8198141634074379e-02   1.0627901924071249e-01   9.8198141634081207e-02   9.8198141634088312e-02   1.0627901924071625e-01   9.8198141634080999e-02   1.0627901924072086e-01   1.0627901924072025e-01   9.8198141634081179e-02   1.0627901924072020e-01   9.8198141634089187e-02   9.8198141634081679e-02   1.0627901924072065e-01   9.8198141634081790e-02   1.0627901924072065e-01   8.4307520632111582e-02   8.8158339591324339e-02   8.4307520632111430e-02   8.8158339591324367e-02   8.8158339591324561e-02   8.4307520632111457e-02   8.8158339591324228e-02   8.4307520632111554e-02   8.4307520632111249e-02   8.8158339591324658e-02   8.4307520632111554e-02   8.8158339591324367e-02   8.8158339591324131e-02   8.4307520632112776e-02   8.8158339591324672e-02   8.4307520632111235e-02   8.8158339591322896e-02   8.4307520632110167e-02   8.8158339591322910e-02   8.4307520632110292e-02   8.4307520632112762e-02   2.3645277721563347e-02   8.4307520632112762e-02   2.3645277721562667e-02   8.8158339591324325e-02   8.4307520632111610e-02   8.8158339591325602e-02   8.4307520632111235e-02   8.4307520632112720e-02   2.3645277721563027e-02   8.4307520632112151e-02   2.3645277721562996e-02   8.4307520632111513e-02   8.8158339591324464e-02   8.4307520632111596e-02   8.8158339591324464e-02   8.8158339591324464e-02   8.4307520632111665e-02   8.8158339591324394e-02   8.4307520632111638e-02   8.4307520632111665e-02   8.8158339591324464e-02   8.4307520632111596e-02   8.8158339591324408e-02   8.8158339591324519e-02   8.4307520632111582e-02   8.8158339591324339e-02   8.4307520632111624e-02   8.8158339591324755e-02   8.4307520632111679e-02   8.8158339591324117e-02   8.4307520632111860e-02   8.4307520632111679e-02   2.3645277721562923e-02   8.4307520632111763e-02   2.3645277721563041e-02   8.8158339591324617e-02   8.4307520632111749e-02   8.8158339591324297e-02   8.4307520632111721e-02   8.4307520632111430e-02   2.3645277721563100e-02   8.4307520632111832e-02   2.3645277721563090e-02   3.9548273312335416e-02   3.1809848477579963e-02   3.9548273312335409e-02   3.1809848477579929e-02   3.1809848477580296e-02   2.5924243613307335e-02   3.1809848477580387e-02   2.5924243613307047e-02   3.9548273312336318e-02   3.1809848477580858e-02   3.9548273312336318e-02   3.1809848477579922e-02   3.1809848477579103e-02   2.5924243613307786e-02   3.1809848477579103e-02   2.5924243613307092e-02   3.1809848477580893e-02   2.5924243613307429e-02   3.1809848477580879e-02   2.5924243613307051e-02   2.5924243613307831e-02   2.1415963257752961e-02   2.5924243613307842e-02   2.1415963257751698e-02   3.1809848477580192e-02   2.5924243613307335e-02   3.1809848477580421e-02   2.5924243613307071e-02   2.5924243613307429e-02   2.1415963257752659e-02   2.5924243613307335e-02   2.1415963257752576e-02   3.9548273312336353e-02   3.1809848477580914e-02   3.9548273312336270e-02   3.1809848477577188e-02   3.1809848477579943e-02   2.5924243613307082e-02   3.1809848477581733e-02   2.5924243613307071e-02   3.9548273312331669e-02   3.1809848477580858e-02   3.9548273312336318e-02   3.1809848477580886e-02   3.1809848477579020e-02   2.5924243613306308e-02   3.1809848477580858e-02   2.5924243613310811e-02   3.1809848477580838e-02   2.5924243613307779e-02   3.1809848477580796e-02   2.5924243613307803e-02   2.5924243613304788e-02   2.1415963257752944e-02   2.5924243613304820e-02   2.1415963257750480e-02   3.1809848477580872e-02   2.5924243613304733e-02   3.1809848477580928e-02   2.5924243613307817e-02   2.5924243613307803e-02   2.1415963257752968e-02   2.5924243613307859e-02   2.1415963257757877e-02   1.3850240568017363e-01   1.5192190844699521e-01   1.3850240568017369e-01   1.5192190844699729e-01   1.5192190844699327e-01   1.3850240568018160e-01   1.5192190844699327e-01   1.3850240568017388e-01   1.3850240568017189e-01   1.5192190844699074e-01   1.3850240568017194e-01   1.5192190844699521e-01   1.5192190844699310e-01   1.3850240568016953e-01   1.5192190844699308e-01   1.3850240568017264e-01   1.5192190844699441e-01   1.3850240568017169e-01   1.5192190844699544e-01   1.3850240568017111e-01   1.3850240568017144e-01   1.5192190844699507e-01   1.3850240568017119e-01   1.5192190844699513e-01   1.5192190844699532e-01   1.3850240568017164e-01   1.5192190844699435e-01   1.3850240568017369e-01   1.3850240568017155e-01   1.5192190844699549e-01   1.3850240568017153e-01   1.5192190844699613e-01   1.3850240568017386e-01   1.5192190844699366e-01   1.3850240568016972e-01   1.5192190844699713e-01   1.5192190844699549e-01   1.3850240568017363e-01   1.5192190844699549e-01   1.3850240568017375e-01   1.3850240568017375e-01   1.5192190844699383e-01   1.3850240568016961e-01   1.5192190844699713e-01   1.5192190844700179e-01   1.3850240568016992e-01   1.5192190844699291e-01   1.3850240568017350e-01   1.5192190844699535e-01   1.3850240568017172e-01   1.5192190844699763e-01   1.3850240568016978e-01   1.3850240568017372e-01   1.5192190844699546e-01   1.3850240568017372e-01   1.5192190844699649e-01   1.5192190844699743e-01   1.3850240568017164e-01   1.5192190844699741e-01   1.3850240568016978e-01   1.3850240568016964e-01   1.5192190844699766e-01   1.3850240568017361e-01   1.5192190844699283e-01   1.3988793078482725e-01   1.5805831898704020e-01   1.3988793078483153e-01   1.5805831898704087e-01   1.5805831898704087e-01   1.3988793078482681e-01   1.5805831898703607e-01   1.3988793078483153e-01   1.3988793078482895e-01   1.5805831898703607e-01   1.3988793078482900e-01   1.5805831898704031e-01   1.5805831898703801e-01   1.3988793078482725e-01   1.5805831898703812e-01   1.3988793078483125e-01   1.5805831898703798e-01   1.3988793078482942e-01   1.5805831898703804e-01   1.3988793078482922e-01   1.3988793078482992e-01   1.5805831898703834e-01   1.3988793078482939e-01   1.5805831898703901e-01   1.5805831898703843e-01   1.3988793078482817e-01   1.5805831898704073e-01   1.3988793078482945e-01   1.3988793078482814e-01   1.5805831898703832e-01   1.3988793078482817e-01   1.5805831898703801e-01   1.3988793078483139e-01   1.5805831898703562e-01   1.3988793078482284e-01   1.5805831898703585e-01   1.5805831898704037e-01   1.3988793078483105e-01   1.5805831898703571e-01   1.3988793078483155e-01   1.3988793078482295e-01   1.5805831898703598e-01   1.3988793078483150e-01   1.5805831898703571e-01   1.5805831898703834e-01   1.3988793078482942e-01   1.5805831898703604e-01   1.3988793078482920e-01   1.5805831898703562e-01   1.3988793078483139e-01   1.5805831898704045e-01   1.3988793078482720e-01   1.3988793078483139e-01   1.5805831898703557e-01   1.3988793078482711e-01   1.5805831898704084e-01   1.5805831898703845e-01   1.3988793078482720e-01   1.5805831898703590e-01   1.3988793078483136e-01   1.3988793078482939e-01   1.5805831898704073e-01   1.3988793078482936e-01   1.5805831898703801e-01   8.4307520632109098e-02   8.8158339591327087e-02   8.4307520632109070e-02   8.8158339591327184e-02   8.8158339591327184e-02   8.4307520632109084e-02   8.8158339591327212e-02   8.4307520632109140e-02   8.4307520632109029e-02   8.8158339591327184e-02   8.4307520632109181e-02   8.8158339591327212e-02   8.8158339591327337e-02   8.4307520632109084e-02   8.8158339591327184e-02   8.4307520632109043e-02   8.8158339591327087e-02   8.4307520632109154e-02   8.8158339591327226e-02   8.4307520632109320e-02   8.4307520632109029e-02   2.3645277721562663e-02   8.4307520632109070e-02   2.3645277721562562e-02   8.8158339591327156e-02   8.4307520632108987e-02   8.8158339591327212e-02   8.4307520632109237e-02   8.4307520632109390e-02   2.3645277721562583e-02   8.4307520632109001e-02   2.3645277721562573e-02   8.4307520632108959e-02   8.8158339591327267e-02   8.4307520632109265e-02   8.8158339591326657e-02   8.8158339591327517e-02   8.4307520632109278e-02   8.8158339591327517e-02   8.4307520632109459e-02   8.4307520632109167e-02   8.8158339591327101e-02   8.4307520632108848e-02   8.8158339591326684e-02   8.8158339591327212e-02   8.4307520632109126e-02   8.8158339591327517e-02   8.4307520632108029e-02   8.8158339591327503e-02   8.4307520632109292e-02   8.8158339591326254e-02   8.4307520632108224e-02   8.4307520632108252e-02   2.3645277721562340e-02   8.4307520632108668e-02   2.3645277721562302e-02   8.8158339591326337e-02   8.4307520632109459e-02   8.8158339591326365e-02   8.4307520632109431e-02   8.4307520632111985e-02   2.3645277721562670e-02   8.4307520632109334e-02   2.3645277721562660e-02   1.3850240568017247e-01   1.5192190844699741e-01   1.3850240568017236e-01   1.5192190844699721e-01   1.5192190844699519e-01   1.3850240568017033e-01   1.5192190844699294e-01   1.3850240568017050e-01   1.3850240568017250e-01   1.5192190844699741e-01   1.3850240568017250e-01   1.5192190844699721e-01   1.5192190844698855e-01   1.3850240568017219e-01   1.5192190844699294e-01   1.3850240568017649e-01   1.5192190844699915e-01   1.3850240568017028e-01   1.5192190844699682e-01   1.3850240568016425e-01   1.3850240568017241e-01   1.5192190844699741e-01   1.3850240568017225e-01   1.5192190844699635e-01   1.5192190844699793e-01   1.3850240568017044e-01   1.5192190844699796e-01   1.3850240568017252e-01   1.3850240568016842e-01   1.5192190844699746e-01   1.3850240568016825e-01   1.5192190844699269e-01   1.3850240568017214e-01   1.5192190844699538e-01   1.3850240568017000e-01   1.5192190844699474e-01   1.5192190844699280e-01   1.3850240568017236e-01   1.5192190844699505e-01   1.3850240568017136e-01   1.3850240568017283e-01   1.5192190844699333e-01   1.3850240568017269e-01   1.5192190844699488e-01   1.5192190844699710e-01   1.3850240568017211e-01   1.5192190844699713e-01   1.3850240568017236e-01   1.5192190844699635e-01   1.3850240568017022e-01   1.5192190844699410e-01   1.3850240568017036e-01   1.3850240568017036e-01   1.5192190844699574e-01   1.3850240568017014e-01   1.5192190844699471e-01   1.5192190844699577e-01   1.3850240568017133e-01   1.5192190844699519e-01   1.3850240568017133e-01   1.3850240568016994e-01   1.5192190844699521e-01   1.3850240568017066e-01   1.5192190844699571e-01   3.9548273312343375e-02   3.1809848477585730e-02   3.9548273312343445e-02   3.1809848477581996e-02   3.1809848477582066e-02   2.5924243613308109e-02   3.1809848477582038e-02   2.5924243613308168e-02   3.9548273312341030e-02   3.1809848477582066e-02   3.9548273312341176e-02   3.1809848477585743e-02   3.1809848477583856e-02   2.5924243613308941e-02   3.1809848477583856e-02   2.5924243613309667e-02   3.1809848477582045e-02   2.5924243613314128e-02   3.1809848477582080e-02   2.5924243613311131e-02   2.5924243613314142e-02   2.1415963257747840e-02   2.5924243613314194e-02   2.1415963257752826e-02   3.1809848477585737e-02   2.5924243613308130e-02   3.1809848477582052e-02   2.5924243613308189e-02   2.5924243613308137e-02   2.1415963257755299e-02   2.5924243613311155e-02   2.1415963257752812e-02   3.9548273312340614e-02   3.1809848477583856e-02   3.9548273312340607e-02   3.1809848477583696e-02   3.1809848477583585e-02   2.5924243613309309e-02   3.1809848477583925e-02   2.5924243613309243e-02   3.9548273312341044e-02   3.1809848477583849e-02   3.9548273312339954e-02   3.1809848477583932e-02   3.1809848477583891e-02   2.5924243613309680e-02   3.1809848477583898e-02   2.5924243613309642e-02   3.1809848477583849e-02   2.5924243613309309e-02   3.1809848477583828e-02   2.5924243613309614e-02   2.5924243613309670e-02   2.1415963257752822e-02   2.5924243613309642e-02   2.1415963257755296e-02   3.1809848477583440e-02   2.5924243613309465e-02   3.1809848477583245e-02   2.5924243613308893e-02   2.5924243613309465e-02   2.1415963257754033e-02   2.5924243613309375e-02   2.1415963257753821e-02   1.3988793078482389e-01   1.5805831898703884e-01   1.3988793078482809e-01   1.5805831898703843e-01   1.5805831898704320e-01   1.3988793078483192e-01   1.5805831898704337e-01   1.3988793078482784e-01   1.3988793078483233e-01   1.5805831898703854e-01   1.3988793078482806e-01   1.5805831898703401e-01   1.5805831898704054e-01   1.3988793078483003e-01   1.5805831898704059e-01   1.3988793078483039e-01   1.5805831898704395e-01   1.3988793078482806e-01   1.5805831898703912e-01   1.3988793078482800e-01   1.3988793078483241e-01   1.5805831898703399e-01   1.3988793078482822e-01   1.5805831898704095e-01   1.5805831898703870e-01   1.3988793078483228e-01   1.5805831898704362e-01   1.3988793078482806e-01   1.3988793078482770e-01   1.5805831898703881e-01   1.3988793078482983e-01   1.5805831898703895e-01   1.3988793078482809e-01   1.5805831898703893e-01   1.3988793078482803e-01   1.5805831898704123e-01   1.5805831898704129e-01   1.3988793078483008e-01   1.5805831898703898e-01   1.3988793078482839e-01   1.3988793078482756e-01   1.5805831898704351e-01   1.3988793078482761e-01   1.5805831898703865e-01   1.5805831898704398e-01   1.3988793078482800e-01   1.5805831898703432e-01   1.3988793078482772e-01   1.5805831898704004e-01   1.3988793078482900e-01   1.5805831898704123e-01   1.3988793078482809e-01   1.3988793078482903e-01   1.5805831898704054e-01   1.3988793078482895e-01   1.5805831898703968e-01   1.5805831898704090e-01   1.3988793078482845e-01   1.5805831898703959e-01   1.3988793078482911e-01   1.3988793078482906e-01   1.5805831898703962e-01   1.3988793078482858e-01   1.5805831898703979e-01   2.5038559935507199e-01   2.5038559935507398e-01   2.5038559935506322e-01   2.5038559935507199e-01   2.5038559935506405e-01   1.6429395101376043e-01   2.5038559935506421e-01   1.6429395101376681e-01   2.5038559935504401e-01   2.5038559935506455e-01   2.5038559935506377e-01   2.5038559935506355e-01   2.5038559935508281e-01   1.6429395101376018e-01   2.5038559935508259e-01   1.6429395101377292e-01   2.5038559935506449e-01   1.6429395101376032e-01   2.5038559935506388e-01   1.6429395101374786e-01   1.6429395101378516e-01   7.1835100764435000e-02   1.6429395101374786e-01   7.1835100764440704e-02   2.5038559935506383e-01   1.6429395101376032e-01   2.5038559935506455e-01   1.6429395101377270e-01   1.6429395101374714e-