<?xml version="1.0"?>
<VTKFile type="UnstructuredGrid"  version="0.1"  >
<UnstructuredGrid>
<Piece  NumberOfPoints="225" NumberOfCells="384">
<Points>
<DataArray  type="Float64"  NumberOfComponents="3"  format="ascii">0.1495496114427624 -0.1495496114427624 0  1.287144439429404 -1.716192585905872 0  1.716192585905716 -1.287144439429287 0  0.2837720459405749 -0.5675440918811498 0  3.278179782504071 -3.278179782504071 0  0.5675440918811498 -0.2837720459405749 0  1.756932646787236 -7.027730587148944 0  3.898324400662581 -5.847486600993871 0  5.847486600993853 -3.898324400662569 0  7.027730587148944 -1.756932646787236 0  -0.1495496114427624 -0.1495496114427624 0  5.656854249492382 6.280369834735103e-16 0  -7.027730587148944 -1.756932646787237 0  -0.5675440918811498 -0.2837720459405749 0  -1.716192585905716 -1.287144439429287 0  -1.287144439429287 -1.716192585905716 0  -0.2837720459405749 -0.5675440918811498 0  -1.756932646787236 -7.027730587148944 0  0 5.656854249492382 0  0.2922068412242178 -0.8766205236726532 0  0.1910394894585253 -0.1910394894585253 0  0.8766205236725884 -0.2922068412241961 0  -5.656854249492382 0 0  -3.278179782504071 -3.278179782504071 0  23.83793724888972 0 0  -0.8766205236725884 -0.2922068412241961 0  -5.847486600993853 -3.898324400662569 0  -3.898324400662569 -5.847486600993853 0  -0.2922068412241961 -0.8766205236725884 0  0 23.83793724888972 0  1.671770658765338 -3.343541317530675 0  3.343541317530675 -1.671770658765338 0  -23.83793724888972 0 0  7.027730587148944 1.756932646787236 0  -0.1910394894585253 -0.1910394894585253 0  181.019335983452 0 0  -3.343541317530675 -1.671770658765338 0  -1.671770658765338 -3.343541317530675 0  0 181.019335983452 0  0.1068812197939318 -0.1068812197939318 0  -181.019335983452 0 0  0.8766205236726532 0.2922068412242178 0  0.5675440918811498 0.2837720459405749 0  -0.1068812197939318 -0.1068812197939318 0  5792.61875148012 0 0  0 5792.61875148012 0  1.716192585905872 1.287144439429404 0  -5792.61875148012 0 0  3.343541317530675 1.671770658765338 0  5.847486600993871 3.898324400662581 0  0.1495496114427583 0.1495496114427583 0  0 0 0  3.278179782504071 3.278179782504071 0  0.1068812197939318 0.1068812197939318 0  0.1910394894585253 0.1910394894585253 0  1.287144439429287 1.716192585905716 0  0 -5792.61875148012 0  3.898324400662531 5.847486600993797 0  1.671770658765331 3.343541317530662 0  0.2837720459392363 0.5675440918784725 0  0 -181.019335983452 0  0.2922068412241961 0.8766205236725884 0  1.756932646787229 7.027730587148919 0  0 -23.83793724888972 0  0 -5.656854249492387 0  0.7183470254360832 -0.9328710986743172 0  0.9328710986742393 -0.7183470254360248 0  1.50166851266756 -1.50166851266758 0  0.7854582426849894 -1.141868338893511 0  2.282662110966737 -2.497186184204971 0  2.497186184204893 -2.282662110966679 0  1.141868338893433 -0.785458242684931 0  1.780975914222323 -1.92286193719261 0  1.020352346363905 -3.797637339515047 0  2.091048223301578 -3.20751534643751 0  1.92286193719261 -1.780975914222323 0  3.588252091583326 -4.562833191748971 0  4.562833191748962 -3.588252091583319 0  3.207515346437501 -2.091048223301572 0  3.797637339515047 -1.020352346363905 0  2.827628523724908 -6.437608594071407 0  0.878466323393618 -0.6854381688282807 0  1.024569744005727 -3.952175555410799 0  4.872905500828216 -4.872905500828219 0  2.095265620943399 -3.362053562333262 0  2.044681945060553 -3.019263045226198 0  6.437608594071398 -2.827628523724902 0  3.019263045226189 -2.044681945060547 0  3.36205356233322 -2.095265620943382 0  3.952175555410766 -1.024569744005716 0  0.6854381688282807 -0.878466323393618 0  -0.9328710986742393 -0.7183470254360248 0  -0.7183470254360248 -0.9328710986742393 0  -1.713864696973416 -1.713864696973416 0  -0.6854381688282807 -0.8784663233936181 0  14.74739574919105 3.140184917367551e-16 0  -3.797637339515047 -1.020352346363906 0  8.405103330870388 -0.8784663233936184 0  -3.952175555410766 -1.024569744005716 0  -1.141868338893433 -0.785458242684931 0  -0.7220823077768691 -0.2879894435823855 0  -3.207515346437501 -2.091048223301572 0  -2.497186184204893 -2.282662110966679 0  -3.781839593449785 -2.592734420045928 0  -0.785458242684931 -1.141868338893433 0  -2.282662110966679 -2.497186184204893 0  -2.592734420045928 -3.781839593449785 0  -1.020352346363905 -3.797637339515047 0  -2.091048223301572 -3.207515346437501 0  -0.2879894435823855 -0.7220823077768691 0  -0.878466323393618 -0.6854381688282807 0  -1.024569744005716 -3.952175555410766 0  -0.878466323393618 8.405103330870388 0  0.1461034206121089 2.390116862909864 0  0 14.74739574919105 0  0.2416231653413715 -0.5338300065655892 0  0.1461034206121089 11.48065836260853 0  0.9819887499947777 -2.110080920601664 0  0.5338300065655568 -0.2416231653413607 0  0.9314050741119314 -1.7672904034946 0  1.7672904034946 -0.9314050741119314 0  -2.390116862909897 -0.1461034206120981 0  2.110080920601632 -0.9819887499947668 0  -11.48065836260857 -0.1461034206120981 0  -14.74739574919105 0 0  0.6854381688282807 0.8784663233936182 0  -4.562833191748962 -3.588252091583319 0  -3.588252091583319 -4.562833191748962 0  -1.734609635981298 -1.734609635981298 0  11.48065836260857 -0.1461034206120981 0  102.4286366161709 0 0  -3.36205356233322 -2.095265620943382 0  90.07135772988971 -0.1461034206120981 0  -2.110080920601632 -0.9819887499947668 0  -3.019263045226189 -2.044681945060547 0  -4.595513959262264 -2.785047529713953 0  -2.095265620943382 -3.36205356233322 0  -2.044681945060547 -3.019263045226189 0  -2.785047529713953 -4.595513959262264 0  -0.1461034206120981 11.48065836260857 0  -0.9819887499947668 -2.110080920601632 0  -0.1461034206120981 90.07135772988971 0  0.8358853293826688 10.24719796567952 0  0 102.4286366161709 0  2.507655988148006 -2.507655988148006 0  0.8358853293826688 88.83789733296067 0  0.8893259392796347 -1.725211268662304 0  -10.24719796567952 -0.8358853293826688 0  1.725211268662304 -0.8893259392796347 0  -88.83789733296067 -0.8358853293826688 0  -8.405103330870388 0.8784663233936182 0  -102.4286366161709 0 0  -11.48065836260853 0.1461034206121089 0  3.952175555410799 1.024569744005727 0  3.797637339515047 1.020352346363906 0  -1.7672904034946 -0.9314050741119314 0  -0.9314050741119314 -1.7672904034946 0  -0.1489603546262285 -0.1489603546262285 0  88.83789733296067 -0.8358853293826688 0  2986.819043731786 0 0  -1.725211268662304 -0.8893259392796347 0  2894.637605081295 -0.8358853293826688 0  -0.8358853293826688 88.83789733296067 0  -0.8893259392796347 -1.725211268662304 0  -0.8358853293826688 2894.637605081295 0  0.05344060989696589 90.45622738182904 0  0 2986.819043731786 0  -90.45622738182904 -0.05344060989696589 0  0.05344060989696589 2896.255935130163 0  -2896.255935130163 -0.05344060989696589 0  -90.07135772988968 0.1461034206121089 0  -2986.819043731786 0 0  -88.83789733296067 0.8358853293826688 0  0.7220823077769015 0.2879894435823964 0  2.110080920601664 0.9819887499947777 0  3.362053562333262 2.095265620943399 0  1.141868338893511 0.7854582426849894 0  3.20751534643751 2.091048223301578 0  2896.255935130163 -0.05344060989696589 0  -0.05344060989696589 2896.255935130163 0  -0.05344060989696589 -0.05344060989696589 0  2896.30937574006 0 0  -2896.30937574006 2896.30937574006 0  0 2896.30937574006 0  3.781839593449871 2.592734420045992 0  0.9328710986743152 0.7183470254360812 0  2.497186184204971 2.282662110966737 0  -2894.637605081295 0.8358853293826688 0  -2896.30937574006 0 0  -2896.255935130163 0.05344060989696589 0  4.595513959262273 2.785047529713959 0  1.725211268662304 0.8893259392796347 0  1.7672904034946 0.9314050741119314 0  4.562833191748971 3.588252091583326 0  3.019263045226198 2.044681945060553 0  1.713864696973414 1.713864696973414 0  0.7183470254360227 0.9328710986742373 0  0.05344060989696589 0.05344060989696589 0  0 -2896.30937574006 0  1.734609635981298 1.734609635981298 0  2.282662110966679 2.497186184204893 0  3.588252091583301 4.562833191748934 0  0.1489603546262285 0.1489603546262285 0  0.05344060989696589 -2896.255935130163 0  0.8893259392796314 1.725211268662297 0  2.044681945060528 3.019263045226161 0  0.9314050741119282 1.767290403494594 0  2.592734420045909 3.781839593449757 0  0.7854582426842617 1.141868338892094 0  0.8358853293826656 -2894.637605081295 0  0 -2986.819043731786 0  2.785047529713931 4.595513959262229 0  2.091048223300884 3.207515346436135 0  2.095265620943364 3.362053562333193 0  0.8358853293826656 -88.83789733296068 0  0.9819887499947636 2.110080920601625 0  0.2879894435817162 0.7220823077755305 0  1.020352346363233 3.797637339513696 0  0.1461034206120981 -90.07135772988971 0  0 -102.4286366161709 0  1.024569744005713 3.952175555410753 0  0.1461034206120981 -11.48065836260857 0  0.8784663233936145 -8.4051033308704 0  0.8784663233936145 0.685438168828266 0  0 -14.74739574919105 0  </DataArray>
</Points>
<Cells>
<DataArray  type="UInt32"  Name="connectivity"  format="ascii">2 65 67  1 65 67  2 65 66  0 65 66  2 71 75  5 71 75  2 70 75  4 70 75  1 69 72  4 69 72  1 68 72  3 68 72  1 69 70  4 69 70  1 67 70  2 67 70  21 89 90  9 89 90  21 90 121  22 90 121  21 87 118  20 87 118  21 87 88  8 87 88  8 78 79  5 78 79  8 79 86  9 79 86  8 88 89  21 88 89  8 86 89  9 86 89  19 81 113  18 81 113  19 81 82  6 81 82  7 73 80  6 73 80  7 73 74  3 73 74  19 84 85  7 84 85  19 85 115  20 85 115  7 80 82  6 80 82  7 82 84  19 82 84  4 77 78  8 77 78  4 75 78  5 75 78  8 83 85  7 83 85  8 85 87  20 85 87  4 72 74  3 72 74  4 74 76  7 74 76  4 76 77  7 76 83  8 77 83  76 77 83  51 183 188  45 182 183  47 182 188  182 183 188  38 166 168  45 166 168  38 165 168  39 165 168  40 167 169  39 167 169  40 169 171  47 169 171  39 168 169  45 168 182  47 169 182  168 169 182  18 114 116  29 114 116  18 113 116  19 113 116  19 117 119  30 117 119  19 115 119  20 115 119  29 143 145  38 143 145  29 142 145  30 142 145  19 117 142  30 117 142  19 116 142  29 116 142  22 121 123  21 121 123  22 123 124  32 123 124  32 147 149  31 147 149  32 149 151  40 149 151  21 118 120  20 118 120  21 120 122  31 120 122  21 123 147  32 123 147  21 122 147  31 122 147  39 145 165  38 145 165  39 145 146  30 145 146  30 119 120  20 119 120  30 120 144  31 120 144  39 148 149  31 148 149  39 149 167  40 149 167  30 146 148  39 146 148  30 144 148  31 144 148  22 125 150  33 125 150  22 124 150  32 124 150  41 153 154  33 153 154  41 154 173  42 154 173  32 152 170  41 152 170  32 151 170  40 151 170  41 150 153  33 150 153  41 150 152  32 150 152  46 186 195  52 186 195  46 185 195  50 185 195  52 193 194  49 193 194  52 194 199  54 194 199  46 176 177  42 176 177  46 177 184  49 177 184  52 184 193  49 184 193  52 184 186  46 184 186  51 188 189  47 188 189  51 189 197  53 189 197  40 172 187  48 172 187  40 171 187  47 171 187  54 191 202  53 191 202  54 191 192  48 191 192  53 187 191  48 187 191  53 187 189  47 187 189  41 175 177  49 175 177  41 173 177  42 173 177  48 192 194  54 192 194  48 190 194  49 190 194  41 170 172  40 170 172  41 172 174  48 172 174  48 174 175  41 174 175  48 175 190  49 175 190  64 222 224  63 222 224  64 222 223  62 222 223  63 218 221  61 218 221  63 218 219  60 218 219  61 216 217  59 216 217  61 217 220  62 217 220  61 221 222  63 221 222  61 220 222  62 220 222  51 198 203  56 198 203  51 197 203  53 197 203  54 202 204  53 202 204  54 204 206  58 204 206  60 209 214  58 209 214  60 209 210  56 209 210  53 204 209  58 204 209  53 203 209  56 203 209  55 195 200  52 195 200  55 195 196  50 195 196  55 208 212  59 208 212  55 207 212  57 207 212  52 201 205  57 201 205  52 199 205  54 199 205  52 201 207  57 201 207  52 200 207  55 200 207  61 214 218  60 214 218  61 214 215  58 214 215  58 205 211  57 205 211  58 205 206  54 205 206  61 212 216  59 212 216  61 212 213  57 212 213  58 211 213  57 211 213  58 213 215  61 213 215  18 110 112  17 110 112  18 112 114  29 112 114  29 139 141  28 139 141  29 141 143  38 141 143  28 107 111  17 107 111  28 107 109  16 107 109  28 111 112  17 111 112  28 112 139  29 112 139  51 179 183  45 179 183  51 179 180  43 179 180  34 157 163  43 157 163  34 156 163  37 156 163  38 162 164  37 162 164  38 164 166  45 164 166  43 163 164  37 163 164  43 164 179  45 164 179  15 92 93  10 92 93  15 93 105  23 93 105  15 106 108  27 106 108  15 104 108  16 104 108  23 128 137  34 128 137  23 127 137  27 127 137  23 105 106  15 105 106  23 106 127  27 106 127  28 141 162  38 141 162  28 140 162  37 140 162  37 137 156  34 137 156  37 137 138  27 137 138  28 108 136  27 108 136  28 108 109  16 108 109  37 136 140  28 136 140  37 136 138  27 136 138  11 95 97  24 95 97  11 94 97  12 94 97  25 96 100  13 96 100  25 96 98  12 96 98  24 130 132  35 130 132  24 129 132  25 129 132  25 97 129  24 97 129  25 97 98  12 97 98  14 91 93  10 91 93  14 93 102  23 93 102  23 128 134  34 128 134  23 126 134  26 126 134  14 99 101  13 99 101  14 101 103  26 101 103  23 102 103  14 102 103  23 103 126  26 103 126  51 178 181  44 178 181  51 178 180  43 178 180  35 159 161  44 159 161  35 158 161  36 158 161  34 157 160  43 157 160  34 155 160  36 155 160  43 160 161  36 160 161  43 161 178  44 161 178  25 100 101  13 100 101  25 101 131  26 101 131  36 134 155  34 134 155  36 134 135  26 134 135  25 133 158  36 133 158  25 132 158  35 132 158  36 131 135  26 131 135  36 131 133  25 131 133  </DataArray>
<DataArray  type="UInt32"  Name="offsets"  format="ascii">3 6 9 12 15 18 21 24 27 30 33 36 39 42 45 48 51 54 57 60 63 66 69 72 75 78 81 84 87 90 93 96 99 102 105 108 111 114 117 120 123 126 129 132 135 138 141 144 147 150 153 156 159 162 165 168 171 174 177 180 183 186 189 192 195 198 201 204 207 210 213 216 219 222 225 228 231 234 237 240 243 246 249 252 255 258 261 264 267 270 273 276 279 282 285 288 291 294 297 300 303 306 309 312 315 318 321 324 327 330 333 336 339 342 345 348 351 354 357 360 363 366 369 372 375 378 381 384 387 390 393 396 399 402 405 408 411 414 417 420 423 426 429 432 435 438 441 444 447 450 453 456 459 462 465 468 471 474 477 480 483 486 489 492 495 498 501 504 507 510 513 516 519 522 525 528 531 534 537 540 543 546 549 552 555 558 561 564 567 570 573 576 579 582 585 588 591 594 597 600 603 606 609 612 615 618 621 624 627 630 633 636 639 642 645 648 651 654 657 660 663 666 669 672 675 678 681 684 687 690 693 696 699 702 705 708 711 714 717 720 723 726 729 732 735 738 741 744 747 750 753 756 759 762 765 768 771 774 777 780 783 786 789 792 795 798 801 804 807 810 813 816 819 822 825 828 831 834 837 840 843 846 849 852 855 858 861 864 867 870 873 876 879 882 885 888 891 894 897 900 903 906 909 912 915 918 921 924 927 930 933 936 939 942 945 948 951 954 957 960 963 966 969 972 975 978 981 984 987 990 993 996 999 1002 1005 1008 1011 1014 1017 1020 1023 1026 1029 1032 1035 1038 1041 1044 1047 1050 1053 1056 1059 1062 1065 1068 1071 1074 1077 1080 1083 1086 1089 1092 1095 1098 1101 1104 1107 1110 1113 1116 1119 1122 1125 1128 1131 1134 1137 1140 1143 1146 1149 1152 </DataArray>
<DataArray  type="UInt8"  Name="types"  format="ascii">5 5 5 5 5 5 5 5 5 5 5 5 5 5 5 5 5 5 5 5 5 5 5 5 5 5 5 5 5 5 5 5 5 5 5 5 5 5 5 5 5 5 5 5 5 5 5 5 5 5 5 5 5 5 5 5 5 5 5 5 5 5 5 5 5 5 5 5 5 5 5 5 5 5 5 5 5 5 5 5 5 5 5 5 5 5 5 5 5 5 5 5 5 5 5 5 5 5 5 5 5 5 5 5 5 5 5 5 5 5 5 5 5 5 5 5 5 5 5 5 5 5 5 5 5 5 5 5 5 5 5 5 5 5 5 5 5 5 5 5 5 5 5 5 5 5 5 5 5 5 5 5 5 5 5 5 5 5 5 5 5 5 5 5 5 5 5 5 5 5 5 5 5 5 5 5 5 5 5 5 5 5 5 5 5 5 5 5 5 5 5 5 5 5 5 5 5 5 5 5 5 5 5 5 5 5 5 5 5 5 5 5 5 5 5 5 5 5 5 5 5 5 5 5 5 5 5 5 5 5 5 5 5 5 5 5 5 5 5 5 5 5 5 5 5 5 5 5 5 5 5 5 5 5 5 5 5 5 5 5 5 5 5 5 5 5 5 5 5 5 5 5 5 5 5 5 5 5 5 5 5 5 5 5 5 5 5 5 5 5 5 5 5 5 5 5 5 5 5 5 5 5 5 5 5 5 5 5 5 5 5 5 5 5 5 5 5 5 5 5 5 5 5 5 5 5 5 5 5 5 5 5 5 5 5 5 5 5 5 5 5 5 5 5 5 5 5 5 5 5 5 5 5 5 5 5 5 5 5 5 5 5 5 5 5 5 5 5 5 5 5 5 5 5 5 5 5 5 5 5 5 5 5 5 </DataArray>
</Cells>
<CellData  Scalars="mu"> 
<DataArray  type="Float64"  Name="mu"  format="ascii">1.1755355824969879e-01   1.3379639624720652e-01   1.1755355824969846e-01   1.3379639624720660e-01   5.5479791178655827e-02   2.2013503130484304e-02   5.5479791178656104e-02   2.2013503130484339e-02   5.5479791178675353e-02   2.2013503130489106e-02   5.5479791178675020e-02   2.2013503130488908e-02   9.8198141634082026e-02   1.0627901924072050e-01   9.8198141634081540e-02   1.0627901924072110e-01   8.4307520632111638e-02   2.3645277721563072e-02   8.4307520632111652e-02   2.3645277721563048e-02   2.5924243613307356e-02   2.1415963257752586e-02   2.5924243613307446e-02   2.1415963257752645e-02   1.3850240568017166e-01   1.5192190844699532e-01   1.3850240568017166e-01   1.5192190844699507e-01   1.3988793078482920e-01   1.5805831898703818e-01   1.3988793078482945e-01   1.5805831898703823e-01   8.4307520632109098e-02   2.3645277721562580e-02   8.4307520632109084e-02   2.3645277721562576e-02   1.3850240568017083e-01   1.5192190844699538e-01   1.3850240568017083e-01   1.5192190844699546e-01   2.5924243613309469e-02   2.1415963257753898e-02   2.5924243613309327e-02   2.1415963257753801e-02   1.3988793078482872e-01   1.5805831898703968e-01   1.3988793078482900e-01   1.5805831898703984e-01   1.6429395101376193e-01   7.1835100764435861e-02   1.6429395101376254e-01   7.1835100764435916e-02   1.3494783794110937e-01   1.6573923439264021e-01   1.3494783794110929e-01   1.6573923439264013e-01   1.6429395101376240e-01   7.1835100764435750e-02   1.6429395101376243e-01   7.1835100764435708e-02   2.8041333336918822e-01   2.8041333336918739e-01   2.8041333336918828e-01   2.8041333336918700e-01   2.0710678118654752e-01   2.0710678118654752e-01   2.0710678118654752e-01   2.0710678118654752e-01   9.5232403072503511e-06   8.9370080252671550e-06   9.5232403072503511e-06   8.9370080252671634e-06   9.5232403072503511e-06   8.9370080252671651e-06   9.5232403072503511e-06   8.9370080252671550e-06   2.0711218536173281e-01   2.0711218536173281e-01   2.0711218536173281e-01   2.0711218536173284e-01   8.0337604129790078e-03   4.3478198187387523e-03   8.0337604129790095e-03   4.3478198187387532e-03   4.3123800186843385e-02   2.8547029347936993e-02   4.3123800186843399e-02   2.8547029347937035e-02   5.3169154719357103e-03   3.8646807686240959e-03   5.3169154719357138e-03   3.8646807686241007e-03   2.7105284358802908e-02   2.2373515749803091e-02   2.7105284358802908e-02   2.2373515749803063e-02   8.0337604129784093e-03   4.3478198187384487e-03   8.0337604129784163e-03   4.3478198187384591e-03   5.3169154719357138e-03   3.8646807686241007e-03   5.3169154719357103e-03   3.8646807686240959e-03   4.3123800186839735e-02   2.8547029347935907e-02   4.3123800186839700e-02   2.8547029347936119e-02   2.7105284358803418e-02   2.2373515749803365e-02   2.7105284358803432e-02   2.2373515749803407e-02   4.3102769310766325e-03   4.1601486570959495e-03   4.3102769310766325e-03   4.1601486570959530e-03   1.5028359309392667e-01   2.3835748000591092e-01   1.5028359309392650e-01   2.3835748000591062e-01   4.3102769310766325e-03   4.1601486570959530e-03   4.3102769310766325e-03   4.1601486570959495e-03   1.5042670382538895e-01   2.3368929467621330e-01   1.5042670382538881e-01   2.3368929467621305e-01   4.7798282523477634e-02   1.6691265930514794e-02   4.7798282523477641e-02   1.6691265930514808e-02   5.0099354152293553e-03   4.5626541926525165e-03   5.0099354152293128e-03   4.5626541926524428e-03   9.2951500113662878e-04   6.9408481077628485e-04   9.2951500113662834e-04   6.9408481077628441e-04   2.8040032681128878e-02   1.7961283215452300e-02   2.8040032681128882e-02   1.7961283215452310e-02   9.9702937524713972e-02   3.4121426166555793e-02   9.9702937524714028e-02   3.4121426166555412e-02   1.4462812584844728e-01   6.4604188673084054e-02   1.4462812584844756e-01   6.4604188673083721e-02   2.3922722416401081e-02   1.3978790941837472e-02   2.3922722416400869e-02   1.3978790941837385e-02   2.2821718182586725e-01   8.4336098635525547e-02   2.2821718182586870e-01   8.4336098635525422e-02   9.2256038190683630e-06   9.2252633792065624e-06   9.2256038190683630e-06   9.2252633792065691e-06   1.4895659575927408e-04   1.3963103283849788e-04   1.4895659575927411e-04   1.3963103283849782e-04   5.7929206485466201e-03   5.4375749672689166e-03   5.7929206485466331e-03   5.4375749672690059e-03   1.3506433578833624e-04   1.3491352505461268e-04   1.3506433578833632e-04   1.3491352505461262e-04   1.4155544802328423e-02   1.3046545891347665e-02   1.4155544802328354e-02   1.3046545891347409e-02   1.2155322000019510e-01   3.6012308562943289e-02   1.2155322000019494e-01   3.6012308562943095e-02   3.7775098888830124e-03   3.6769540552068001e-03   3.7775098888830111e-03   3.6769540552068027e-03   8.6596998493880792e-02   2.6945404397192653e-02   8.6596998493880528e-02   2.6945404397192740e-02   4.7798282523477467e-02   1.6691265930514759e-02   4.7798282523477439e-02   1.6691265930514759e-02   9.2951500113656036e-04   6.9408481077623324e-04   9.2951500113655971e-04   6.9408481077623356e-04   5.0099354151759284e-03   4.5626541925999613e-03   5.0099354151758209e-03   4.5626541925999240e-03   2.8040032681129316e-02   1.7961283215452518e-02   2.8040032681129354e-02   1.7961283215452515e-02   9.2256038190683630e-06   9.2252633792065624e-06   9.2256038190683630e-06   9.2252633792065691e-06   5.7929206485466348e-03   5.4375749672689305e-03   5.7929206485466062e-03   5.4375749672687761e-03   1.4895659575927351e-04   1.3963103283849720e-04   1.4895659575927354e-04   1.3963103283849733e-04   1.3506433578833570e-04   1.3491352505461197e-04   1.3506433578833578e-04   1.3491352505461208e-04   9.9702937524693294e-02   3.4121426166552220e-02   9.9702937524693128e-02   3.4121426166552386e-02   2.3922722416368253e-02   1.3978790941806372e-02   2.3922722416368326e-02   1.3978790941806178e-02   1.4462812584844681e-01   6.4604188673084498e-02   1.4462812584844650e-01   6.4604188673084650e-02   2.2821718182588036e-01   8.4336098635523743e-02   2.2821718182588016e-01   8.4336098635524825e-02   3.7775098888830553e-03   3.6769540552068400e-03   3.7775098888830545e-03   3.6769540552068392e-03   1.2155322000019415e-01   3.6012308562943421e-02   1.2155322000019471e-01   3.6012308562943615e-02   1.4155544802366530e-02   1.3046545891370831e-02   1.4155544802366483e-02   1.3046545891370616e-02   8.6596998493887051e-02   2.6945404397193329e-02   8.6596998493886690e-02   2.6945404397193597e-02   4.7798282523477620e-02   1.6691265930514804e-02   4.7798282523477634e-02   1.6691265930514804e-02   9.2951500113656036e-04   6.9408481077623324e-04   9.2951500113655971e-04   6.9408481077623356e-04   5.0099354152296494e-03   4.5626541926528383e-03   5.0099354152297586e-03   4.5626541926529684e-03   2.8040032681129454e-02   1.7961283215452591e-02   2.8040032681129447e-02   1.7961283215452588e-02   9.2256038190683630e-06   9.2252633792065624e-06   9.2256038190683630e-06   9.2252633792065708e-06   5.7929206485466097e-03   5.4375749672689166e-03   5.7929206485466331e-03   5.4375749672690059e-03   1.4895659575927408e-04   1.3963103283849788e-04   1.4895659575927411e-04   1.3963103283849782e-04   1.3506433578833624e-04   1.3491352505461265e-04   1.3506433578833632e-04   1.3491352505461262e-04   9.9702937524692947e-02   3.4121426166552386e-02   9.9702937524692808e-02   3.4121426166552296e-02   2.3922722416397996e-02   1.3978790941836784e-02   2.3922722416398083e-02   1.3978790941836851e-02   1.4462812584844767e-01   6.4604188673083957e-02   1.4462812584844809e-01   6.4604188673083845e-02   2.2821718182587408e-01   8.4336098635523465e-02   2.2821718182587458e-01   8.4336098635523229e-02   3.7775098888830718e-03   3.6769540552068561e-03   3.7775098888830727e-03   3.6769540552068591e-03   1.2155322000019463e-01   3.6012308562943400e-02   1.2155322000019524e-01   3.6012308562943324e-02   1.4155544802326635e-02   1.3046545891345851e-02   1.4155544802326541e-02   1.3046545891346009e-02   8.6596998493885247e-02   2.6945404397193402e-02   8.6596998493885774e-02   2.6945404397193465e-02   4.7798282523477675e-02   1.6691265930514822e-02   4.7798282523477668e-02   1.6691265930514829e-02   5.0099354152297361e-03   4.5626541926529571e-03   5.0099354152298263e-03   4.5626541926529996e-03   9.2951500113655971e-04   6.9408481077623356e-04   9.2951500113656036e-04   6.9408481077623324e-04   2.8040032681129461e-02   1.7961283215452598e-02   2.8040032681129468e-02   1.7961283215452626e-02   9.9702937524692947e-02   3.4121426166552386e-02   9.9702937524692808e-02   3.4121426166552296e-02   1.4462812584844731e-01   6.4604188673083929e-02   1.4462812584844809e-01   6.4604188673083845e-02   2.3922722416398083e-02   1.3978790941836895e-02   2.3922722416397996e-02   1.3978790941836784e-02   2.2821718182587486e-01   8.4336098635523465e-02   2.2821718182587297e-01   8.4336098635523229e-02   9.2256038190683630e-06   9.2252633792065624e-06   9.2256038190683630e-06   9.2252633792065691e-06   1.4895659575927411e-04   1.3963103283849782e-04   1.4895659575927408e-04   1.3963103283849788e-04   5.7929206485466183e-03   5.4375749672689166e-03   5.7929206485467059e-03   5.4375749672690059e-03   1.3506433578833624e-04   1.3491352505461268e-04   1.3506433578833632e-04   1.3491352505461262e-04   1.4155544802326515e-02   1.3046545891346031e-02   1.4155544802326543e-02   1.3046545891346198e-02   1.2155322000019488e-01   3.6012308562943421e-02   1.2155322000019524e-01   3.6012308562943324e-02   3.7775098888830718e-03   3.6769540552068604e-03   3.7775098888830718e-03   3.6769540552068561e-03   8.6596998493885774e-02   2.6945404397193090e-02   8.6596998493885247e-02   2.6945404397193402e-02   </DataArray> 
</CellData> 
</Piece>
</UnstructuredGrid>
</VTKFile>