<?xml version="1.0"?>
<VTKFile type="UnstructuredGrid"  version="0.1"  >
<UnstructuredGrid>
<Piece  NumberOfPoints="65" NumberOfCells="96">
<Points>
<DataArray  type="Float64"  NumberOfComponents="3"  format="ascii">0.1495496114427624 -0.1495496114427624 0  1.287144439429404 -1.716192585905872 0  1.716192585905716 -1.287144439429287 0  0.2837720459405749 -0.5675440918811498 0  3.278179782504071 -3.278179782504071 0  0.5675440918811498 -0.2837720459405749 0  1.756932646787236 -7.027730587148944 0  3.898324400662581 -5.847486600993871 0  5.847486600993853 -3.898324400662569 0  7.027730587148944 -1.756932646787236 0  -0.1495496114427624 -0.1495496114427624 0  5.656854249492382 6.280369834735103e-16 0  -7.027730587148944 -1.756932646787237 0  -0.5675440918811498 -0.2837720459405749 0  -1.716192585905716 -1.287144439429287 0  -1.287144439429287 -1.716192585905716 0  -0.2837720459405749 -0.5675440918811498 0  -1.756932646787236 -7.027730587148944 0  0 5.656854249492382 0  0.2922068412242178 -0.8766205236726532 0  0.1910394894585253 -0.1910394894585253 0  0.8766205236725884 -0.2922068412241961 0  -5.656854249492382 0 0  -3.278179782504071 -3.278179782504071 0  23.83793724888972 0 0  -0.8766205236725884 -0.2922068412241961 0  -5.847486600993853 -3.898324400662569 0  -3.898324400662569 -5.847486600993853 0  -0.2922068412241961 -0.8766205236725884 0  0 23.83793724888972 0  1.671770658765338 -3.343541317530675 0  3.343541317530675 -1.671770658765338 0  -23.83793724888972 0 0  7.027730587148944 1.756932646787236 0  -0.1910394894585253 -0.1910394894585253 0  181.019335983452 0 0  -3.343541317530675 -1.671770658765338 0  -1.671770658765338 -3.343541317530675 0  0 181.019335983452 0  0.1068812197939318 -0.1068812197939318 0  -181.019335983452 0 0  0.8766205236726532 0.2922068412242178 0  0.5675440918811498 0.2837720459405749 0  -0.1068812197939318 -0.1068812197939318 0  5792.61875148012 0 0  0 5792.61875148012 0  1.716192585905872 1.287144439429404 0  -5792.61875148012 0 0  3.343541317530675 1.671770658765338 0  5.847486600993871 3.898324400662581 0  0.1495496114427583 0.1495496114427583 0  0 0 0  3.278179782504071 3.278179782504071 0  0.1068812197939318 0.1068812197939318 0  0.1910394894585253 0.1910394894585253 0  1.287144439429287 1.716192585905716 0  0 -5792.61875148012 0  3.898324400662531 5.847486600993797 0  1.671770658765331 3.343541317530662 0  0.2837720459392363 0.5675440918784725 0  0 -181.019335983452 0  0.2922068412241961 0.8766205236725884 0  1.756932646787229 7.027730587148919 0  0 -23.83793724888972 0  0 -5.656854249492387 0  </DataArray>
</Points>
<Cells>
<DataArray  type="UInt32"  Name="connectivity"  format="ascii">0 1 2  2 4 5  1 3 4  1 2 4  9 21 22  8 20 21  5 8 9  8 9 21  6 18 19  3 6 7  7 19 20  6 7 19  4 5 8  7 8 20  3 4 7  4 7 8  45 47 51  38 39 45  39 40 47  39 45 47  18 19 29  19 20 30  29 30 38  19 29 30  21 22 32  31 32 40  20 21 31  21 31 32  30 38 39  20 30 31  31 39 40  30 31 39  22 32 33  33 41 42  32 40 41  32 33 41  46 50 52  49 52 54  42 46 49  46 49 52  47 51 53  40 47 48  48 53 54  47 48 53  41 42 49  48 49 54  40 41 48  41 48 49  62 63 64  60 61 63  59 61 62  61 62 63  51 53 56  53 54 58  56 58 60  53 56 58  50 52 55  55 57 59  52 54 57  52 55 57  58 60 61  54 57 58  57 59 61  57 58 61  17 18 29  28 29 38  16 17 28  17 28 29  43 45 51  34 37 43  37 38 45  37 43 45  10 15 23  15 16 27  23 27 34  15 23 27  28 37 38  27 34 37  16 27 28  27 28 37  11 12 24  12 13 25  24 25 35  12 24 25  10 14 23  23 26 34  13 14 26  14 23 26  43 44 51  35 36 44  34 36 43  36 43 44  13 25 26  26 34 36  25 35 36  25 26 36  </DataArray>
<DataArray  type="UInt32"  Name="offsets"  format="ascii">3 6 9 12 15 18 21 24 27 30 33 36 39 42 45 48 51 54 57 60 63 66 69 72 75 78 81 84 87 90 93 96 99 102 105 108 111 114 117 120 123 126 129 132 135 138 141 144 147 150 153 156 159 162 165 168 171 174 177 180 183 186 189 192 195 198 201 204 207 210 213 216 219 222 225 228 231 234 237 240 243 246 249 252 255 258 261 264 267 270 273 276 279 282 285 288 </DataArray>
<DataArray  type="UInt8"  Name="types"  format="ascii">5 5 5 5 5 5 5 5 5 5 5 5 5 5 5 5 5 5 5 5 5 5 5 5 5 5 5 5 5 5 5 5 5 5 5 5 5 5 5 5 5 5 5 5 5 5 5 5 5 5 5 5 5 5 5 5 5 5 5 5 5 5 5 5 5 5 5 5 5 5 5 5 5 5 5 5 5 5 5 5 5 5 5 5 5 5 5 5 5 5 5 5 5 5 5 5 </DataArray>
</Cells>
<CellData  Scalars="mu"> 
<DataArray  type="Float64"  Name="mu"  format="ascii">1.3379639624720657e-01   2.2013503130484269e-02   2.2013503130488870e-02   1.0627901924072090e-01   2.3645277721563066e-02   2.1415963257752600e-02   1.5192190844699521e-01   1.5805831898703823e-01   2.3645277721562573e-02   1.5192190844699552e-01   2.1415963257753804e-02   1.5805831898703987e-01   7.1835100764435972e-02   1.6573923439264013e-01   7.1835100764435764e-02   2.8041333336918844e-01   2.0710678118654752e-01   8.9370080252671618e-06   8.9370080252671618e-06   2.0711218536173281e-01   4.3478198187387540e-03   2.8547029347937028e-02   3.8646807686240981e-03   2.2373515749803070e-02   4.3478198187384531e-03   3.8646807686240981e-03   2.8547029347935880e-02   2.2373515749803393e-02   4.1601486570959495e-03   2.3835748000591098e-01   4.1601486570959486e-03   2.3368929467621319e-01   1.6691265930514801e-02   4.5626541926524541e-03   6.9408481077628474e-04   1.7961283215452307e-02   3.4121426166555426e-02   6.4604188673083721e-02   1.3978790941837472e-02   8.4336098635525256e-02   9.2252633792065674e-06   1.3963103283849788e-04   5.4375749672689105e-03   1.3491352505461268e-04   1.3046545891347419e-02   3.6012308562943331e-02   3.6769540552068006e-03   2.6945404397192646e-02   1.6691265930514756e-02   6.9408481077623367e-04   4.5626541925999475e-03   1.7961283215452532e-02   9.2252633792065674e-06   5.4375749672689348e-03   1.3963103283849725e-04   1.3491352505461208e-04   3.4121426166552324e-02   1.3978790941806329e-02   6.4604188673084581e-02   8.4336098635524451e-02   3.6769540552068405e-03   3.6012308562943594e-02   1.3046545891370833e-02   2.6945404397193565e-02   1.6691265930514801e-02   6.9408481077623367e-04   4.5626541926529693e-03   1.7961283215452595e-02   9.2252633792065674e-06   5.4375749672689140e-03   1.3963103283849788e-04   1.3491352505461268e-04   3.4121426166552400e-02   1.3978790941836870e-02   6.4604188673083929e-02   8.4336098635523327e-02   3.6769540552068578e-03   3.6012308562943400e-02   1.3046545891346004e-02   2.6945404397193368e-02   1.6691265930514818e-02   4.5626541926529641e-03   6.9408481077623367e-04   1.7961283215452605e-02   3.4121426166552379e-02   6.4604188673083929e-02   1.3978790941836870e-02   8.4336098635523257e-02   9.2252633792065674e-06   1.3963103283849788e-04   5.4375749672689140e-03   1.3491352505461268e-04   1.3046545891346005e-02   3.6012308562943400e-02   3.6769540552068578e-03   2.6945404397193392e-02   </DataArray> 
</CellData> 
</Piece>
</UnstructuredGrid>
</VTKFile>