<?xml version="1.0"?>
<VTKFile type="UnstructuredGrid"  version="0.1"  >
<UnstructuredGrid>
<Piece  NumberOfPoints="65" NumberOfCells="96">
<Points>
<DataArray  type="Float64"  NumberOfComponents="3"  format="ascii">-1 1 0  -0.7500000000000002 1 0  -1 0.75 0  -0.5000000000000002 1 0  -0.4687317158419215 0.4687317158419215 0  -1 0.5000000000000002 0  -0.2500000000000001 1 0  -0.167322142694602 0.250983214041903 0  -0.250983214041903 0.167322142694602 0  -1 0.2500000000000001 0  1 1 0  0.9999999999979623 1.110223024622894e-16 0  1 0.2500000000000002 0  1 0.5000000000000002 0  1 0.75 0  0.75 1 0  0.5000000000000002 1 0  0.2500000000000001 1 0  0 0.9999999999979623 0  -0.02996239294911606 0.08988717884734818 0  -0.02199800931582472 0.02199800931582472 0  -0.08988717884734816 0.02996239294911605 0  -0.9999999999979623 0 0  0.4687317158419215 0.4687317158419215 0  0.0563135147094726 0 0  0.08988717884734816 0.02996239294911605 0  0.250983214041903 0.167322142694602 0  0.167322142694602 0.250983214041903 0  0.02996239294911605 0.08988717884734816 0  0 0.0563135147094726 0  -0.001332765915716535 0.00266553183143307 0  -0.00266553183143307 0.001332765915716535 0  -0.0563135147094726 0 0  -1 -0.2500000000000002 0  0.02199800931582472 0.02199800931582472 0  0.0009765624999999977 0 0  0.00266553183143307 0.001332765915716535 0  0.001332765915716535 0.00266553183143307 0  0 0.0009765624999999977 0  -2.157918606448279e-05 2.157918606448279e-05 0  -0.0009765624999999977 0 0  -0.08988717884734818 -0.02996239294911606 0  -1 -0.5000000000000002 0  2.157918606448279e-05 2.157918606448279e-05 0  9.536743164062467e-07 0 0  0 9.536743164062467e-07 0  -1 -0.7500000000000002 0  -9.536743164062467e-07 0 0  -0.00266553183143307 -0.001332765915716535 0  -0.250983214041903 -0.167322142694602 0  -1 -1 0  0 0 0  -0.4687317158419215 -0.4687317158419215 0  -2.157918606448279e-05 -2.157918606448279e-05 0  -0.02199800931582472 -0.02199800931582472 0  -0.7499999999999999 -1 0  0 -9.536743164062467e-07 0  -0.167322142694602 -0.250983214041903 0  -0.001332765915716535 -0.00266553183143307 0  -0.4999999999999993 -0.9999999999999986 0  0 -0.0009765624999999977 0  -0.02996239294911605 -0.08988717884734816 0  -0.2499999999999996 -0.9999999999999987 0  0 -0.0563135147094726 0  0 -0.9999999999979609 0  </DataArray>
</Points>
<Cells>
<DataArray  type="UInt32"  Name="connectivity"  format="ascii">0 1 2  2 4 5  1 3 4  1 2 4  9 21 22  8 20 21  5 8 9  8 9 21  6 18 19  3 6 7  7 19 20  6 7 19  4 5 8  7 8 20  3 4 7  4 7 8  45 47 51  38 39 45  39 40 47  39 45 47  18 19 29  19 20 30  29 30 38  19 29 30  21 22 32  31 32 40  20 21 31  21 31 32  30 38 39  20 30 31  31 39 40  30 31 39  22 32 33  33 41 42  32 40 41  32 33 41  46 50 52  49 52 54  42 46 49  46 49 52  47 51 53  40 47 48  48 53 54  47 48 53  41 42 49  48 49 54  40 41 48  41 48 49  62 63 64  60 61 63  59 61 62  61 62 63  51 53 56  53 54 58  56 58 60  53 56 58  50 52 55  55 57 59  52 54 57  52 55 57  58 60 61  54 57 58  57 59 61  57 58 61  17 18 29  28 29 38  16 17 28  17 28 29  43 45 51  34 37 43  37 38 45  37 43 45  10 15 23  15 16 27  23 27 34  15 23 27  28 37 38  27 34 37  16 27 28  27 28 37  11 12 24  12 13 25  24 25 35  12 24 25  10 14 23  23 26 34  13 14 26  14 23 26  43 44 51  35 36 44  34 36 43  36 43 44  13 25 26  26 34 36  25 35 36  25 26 36  </DataArray>
<DataArray  type="UInt32"  Name="offsets"  format="ascii">3 6 9 12 15 18 21 24 27 30 33 36 39 42 45 48 51 54 57 60 63 66 69 72 75 78 81 84 87 90 93 96 99 102 105 108 111 114 117 120 123 126 129 132 135 138 141 144 147 150 153 156 159 162 165 168 171 174 177 180 183 186 189 192 195 198 201 204 207 210 213 216 219 222 225 228 231 234 237 240 243 246 249 252 255 258 261 264 267 270 273 276 279 282 285 288 </DataArray>
<DataArray  type="UInt8"  Name="types"  format="ascii">5 5 5 5 5 5 5 5 5 5 5 5 5 5 5 5 5 5 5 5 5 5 5 5 5 5 5 5 5 5 5 5 5 5 5 5 5 5 5 5 5 5 5 5 5 5 5 5 5 5 5 5 5 5 5 5 5 5 5 5 5 5 5 5 5 5 5 5 5 5 5 5 5 5 5 5 5 5 5 5 5 5 5 5 5 5 5 5 5 5 5 5 5 5 5 5 </DataArray>
</Cells>
<CellData  Scalars="q"> 
<DataArray  type="Float64"  Name="q"  format="ascii">5.1865771870875321e-01   3.0751378034005761e-01   3.0751378034005744e-01   5.1865771870875321e-01   7.8214018451097222e-03   1.1016220050303003e+00   1.3299194858476318e-01   1.1016220050303003e+00   7.8214018451098401e-03   1.3299194858476304e-01   1.1016220050303005e+00   1.1016220050303005e+00   7.5160933701769705e-01   3.1297737043431972e-01   7.5160933701769705e-01   7.5160933701769705e-01   1.8307051478976732e+00   1.8812449794774471e+00   1.8812449794774471e+00   1.8812449794774471e+00   1.6453834736324082e+00   1.0574953036890007e+00   1.7974738706537243e+00   1.6453834736324082e+00   1.6453834736324082e+00   1.7974738706537243e+00   1.0574953036890007e+00   1.6453834736324082e+00   1.7974738706537243e+00   1.6222387823853597e+00   1.7974738706537243e+00   1.6222387823853597e+00   3.3911023347464694e-02   4.8071126716655380e-02   1.6492788155869358e+00   1.6492788155869358e+00   2.3247838033394694e-01   7.1596410605620386e-01   7.6376771543432628e-02   4.0131823062099886e-01   1.9594426515741075e+00   1.8768918578675051e+00   1.6500976204476943e+00   1.9594426515741075e+00   1.0969472787045456e+00   1.6230139396058882e+00   1.8768918578675051e+00   1.0969472787045456e+00   0.0000000000000000e+00   1.6492788155869356e+00   4.8071126716655130e-02   1.6492788155869356e+00   1.9594426515741075e+00   1.6500976204476943e+00   1.8768918578675051e+00   1.9594426515741075e+00   2.3247838033394672e-01   7.6376771543431130e-02   7.1596410605620386e-01   4.0131823062099858e-01   1.8768918578675051e+00   1.6230139396058882e+00   1.0969472787045444e+00   1.0969472787045444e+00   3.3911023347464576e-02   1.6492788155869360e+00   4.8071126716655498e-02   1.6492788155869360e+00   1.9594426515741075e+00   1.6500976204476943e+00   1.8768918578675051e+00   1.9594426515741075e+00   2.3247838033394685e-01   7.6376771543432739e-02   7.1596410605620386e-01   4.0131823062099875e-01   1.8768918578675051e+00   1.6230139396058882e+00   1.0969472787045456e+00   1.0969472787045456e+00   0.0000000000000000e+00   4.8071126716655380e-02   1.6492788155869358e+00   1.6492788155869358e+00   2.3247838033394685e-01   7.1596410605620386e-01   7.6376771543432739e-02   4.0131823062099875e-01   1.9594426515741075e+00   1.8768918578675051e+00   1.6500976204476943e+00   1.9594426515741075e+00   1.0969472787045456e+00   1.6230139396058882e+00   1.8768918578675051e+00   1.0969472787045456e+00   </DataArray> 
</CellData> 
</Piece>
</UnstructuredGrid>
</VTKFile>