<?xml version="1.0"?>
<VTKFile type="UnstructuredGrid"  version="0.1"  >
<UnstructuredGrid>
<Piece  NumberOfPoints="3201" NumberOfCells="6144">
<Points>
<DataArray  type="Float64"  NumberOfComponents="3"  format="ascii">0.1495496114427624 -0.1495496114427624 0  1.287144439429404 -1.716192585905872 0  1.716192585905716 -1.287144439429287 0  0.2837720459405749 -0.5675440918811498 0  3.278179782504071 -3.278179782504071 0  0.5675440918811498 -0.2837720459405749 0  1.756932646787236 -7.027730587148944 0  3.898324400662581 -5.847486600993871 0  5.847486600993853 -3.898324400662569 0  7.027730587148944 -1.756932646787236 0  -0.1495496114427624 -0.1495496114427624 0  5.656854249492382 6.280369834735103e-16 0  -7.027730587148944 -1.756932646787237 0  -0.5675440918811498 -0.2837720459405749 0  -1.716192585905716 -1.287144439429287 0  -1.287144439429287 -1.716192585905716 0  -0.2837720459405749 -0.5675440918811498 0  -1.756932646787236 -7.027730587148944 0  0 5.656854249492382 0  0.2922068412242178 -0.8766205236726532 0  0.1910394894585253 -0.1910394894585253 0  0.8766205236725884 -0.2922068412241961 0  -5.656854249492382 0 0  -3.278179782504071 -3.278179782504071 0  23.83793724888972 0 0  -0.8766205236725884 -0.2922068412241961 0  -5.847486600993853 -3.898324400662569 0  -3.898324400662569 -5.847486600993853 0  -0.2922068412241961 -0.8766205236725884 0  0 23.83793724888972 0  1.671770658765338 -3.343541317530675 0  3.343541317530675 -1.671770658765338 0  -23.83793724888972 0 0  7.027730587148944 1.756932646787236 0  -0.1910394894585253 -0.1910394894585253 0  181.019335983452 0 0  -3.343541317530675 -1.671770658765338 0  -1.671770658765338 -3.343541317530675 0  0 181.019335983452 0  0.1068812197939318 -0.1068812197939318 0  -181.019335983452 0 0  0.8766205236726532 0.2922068412242178 0  0.5675440918811498 0.2837720459405749 0  -0.1068812197939318 -0.1068812197939318 0  5792.61875148012 0 0  0 5792.61875148012 0  1.716192585905872 1.287144439429404 0  -5792.61875148012 0 0  3.343541317530675 1.671770658765338 0  5.847486600993871 3.898324400662581 0  0.1495496114427583 0.1495496114427583 0  0 0 0  3.278179782504071 3.278179782504071 0  0.1068812197939318 0.1068812197939318 0  0.1910394894585253 0.1910394894585253 0  1.287144439429287 1.716192585905716 0  0 -5792.61875148012 0  3.898324400662531 5.847486600993797 0  1.671770658765331 3.343541317530662 0  0.2837720459392363 0.5675440918784725 0  0 -181.019335983452 0  0.2922068412241961 0.8766205236725884 0  1.756932646787229 7.027730587148919 0  0 -23.83793724888972 0  0 -5.656854249492387 0  0.7183470254360832 -0.9328710986743172 0  0.9328710986742393 -0.7183470254360248 0  1.50166851266756 -1.50166851266758 0  0.7854582426849894 -1.141868338893511 0  2.282662110966737 -2.497186184204971 0  2.497186184204893 -2.282662110966679 0  1.141868338893433 -0.785458242684931 0  1.780975914222323 -1.92286193719261 0  1.020352346363905 -3.797637339515047 0  2.091048223301578 -3.20751534643751 0  1.92286193719261 -1.780975914222323 0  3.588252091583326 -4.562833191748971 0  4.562833191748962 -3.588252091583319 0  3.207515346437501 -2.091048223301572 0  3.797637339515047 -1.020352346363905 0  2.827628523724908 -6.437608594071407 0  0.878466323393618 -0.6854381688282807 0  1.024569744005727 -3.952175555410799 0  4.872905500828216 -4.872905500828219 0  2.095265620943399 -3.362053562333262 0  2.044681945060553 -3.019263045226198 0  6.437608594071398 -2.827628523724902 0  3.019263045226189 -2.044681945060547 0  3.36205356233322 -2.095265620943382 0  3.952175555410766 -1.024569744005716 0  0.6854381688282807 -0.878466323393618 0  -0.9328710986742393 -0.7183470254360248 0  -0.7183470254360248 -0.9328710986742393 0  -1.713864696973416 -1.713864696973416 0  -0.6854381688282807 -0.8784663233936181 0  14.74739574919105 3.140184917367551e-16 0  -3.797637339515047 -1.020352346363906 0  8.405103330870388 -0.8784663233936184 0  -3.952175555410766 -1.024569744005716 0  -1.141868338893433 -0.785458242684931 0  -0.7220823077768691 -0.2879894435823855 0  -3.207515346437501 -2.091048223301572 0  -2.497186184204893 -2.282662110966679 0  -3.781839593449785 -2.592734420045928 0  -0.785458242684931 -1.141868338893433 0  -2.282662110966679 -2.497186184204893 0  -2.592734420045928 -3.781839593449785 0  -1.020352346363905 -3.797637339515047 0  -2.091048223301572 -3.207515346437501 0  -0.2879894435823855 -0.7220823077768691 0  -0.878466323393618 -0.6854381688282807 0  -1.024569744005716 -3.952175555410766 0  -0.878466323393618 8.405103330870388 0  0.1461034206121089 2.390116862909864 0  0 14.74739574919105 0  0.2416231653413715 -0.5338300065655892 0  0.1461034206121089 11.48065836260853 0  0.9819887499947777 -2.110080920601664 0  0.5338300065655568 -0.2416231653413607 0  0.9314050741119314 -1.7672904034946 0  1.7672904034946 -0.9314050741119314 0  -2.390116862909897 -0.1461034206120981 0  2.110080920601632 -0.9819887499947668 0  -11.48065836260857 -0.1461034206120981 0  -14.74739574919105 0 0  0.6854381688282807 0.8784663233936182 0  -4.562833191748962 -3.588252091583319 0  -3.588252091583319 -4.562833191748962 0  -1.734609635981298 -1.734609635981298 0  11.48065836260857 -0.1461034206120981 0  102.4286366161709 0 0  -3.36205356233322 -2.095265620943382 0  90.07135772988971 -0.1461034206120981 0  -2.110080920601632 -0.9819887499947668 0  -3.019263045226189 -2.044681945060547 0  -4.595513959262264 -2.785047529713953 0  -2.095265620943382 -3.36205356233322 0  -2.044681945060547 -3.019263045226189 0  -2.785047529713953 -4.595513959262264 0  -0.1461034206120981 11.48065836260857 0  -0.9819887499947668 -2.110080920601632 0  -0.1461034206120981 90.07135772988971 0  0.8358853293826688 10.24719796567952 0  0 102.4286366161709 0  2.507655988148006 -2.507655988148006 0  0.8358853293826688 88.83789733296067 0  0.8893259392796347 -1.725211268662304 0  -10.24719796567952 -0.8358853293826688 0  1.725211268662304 -0.8893259392796347 0  -88.83789733296067 -0.8358853293826688 0  -8.405103330870388 0.8784663233936182 0  -102.4286366161709 0 0  -11.48065836260853 0.1461034206121089 0  3.952175555410799 1.024569744005727 0  3.797637339515047 1.020352346363906 0  -1.7672904034946 -0.9314050741119314 0  -0.9314050741119314 -1.7672904034946 0  -0.1489603546262285 -0.1489603546262285 0  88.83789733296067 -0.8358853293826688 0  2986.819043731786 0 0  -1.725211268662304 -0.8893259392796347 0  2894.637605081295 -0.8358853293826688 0  -0.8358853293826688 88.83789733296067 0  -0.8893259392796347 -1.725211268662304 0  -0.8358853293826688 2894.637605081295 0  0.05344060989696589 90.45622738182904 0  0 2986.819043731786 0  -90.45622738182904 -0.05344060989696589 0  0.05344060989696589 2896.255935130163 0  -2896.255935130163 -0.05344060989696589 0  -90.07135772988968 0.1461034206121089 0  -2986.819043731786 0 0  -88.83789733296067 0.8358853293826688 0  0.7220823077769015 0.2879894435823964 0  2.110080920601664 0.9819887499947777 0  3.362053562333262 2.095265620943399 0  1.141868338893511 0.7854582426849894 0  3.20751534643751 2.091048223301578 0  2896.255935130163 -0.05344060989696589 0  -0.05344060989696589 2896.255935130163 0  -0.05344060989696589 -0.05344060989696589 0  2896.30937574006 0 0  -2896.30937574006 2896.30937574006 0  0 2896.30937574006 0  3.781839593449871 2.592734420045992 0  0.9328710986743152 0.7183470254360812 0  2.497186184204971 2.282662110966737 0  -2894.637605081295 0.8358853293826688 0  -2896.30937574006 0 0  -2896.255935130163 0.05344060989696589 0  4.595513959262273 2.785047529713959 0  1.725211268662304 0.8893259392796347 0  1.7672904034946 0.9314050741119314 0  4.562833191748971 3.588252091583326 0  3.019263045226198 2.044681945060553 0  1.713864696973414 1.713864696973414 0  0.7183470254360227 0.9328710986742373 0  0.05344060989696589 0.05344060989696589 0  0 -2896.30937574006 0  1.734609635981298 1.734609635981298 0  2.282662110966679 2.497186184204893 0  3.588252091583301 4.562833191748934 0  0.1489603546262285 0.1489603546262285 0  0.05344060989696589 -2896.255935130163 0  0.8893259392796314 1.725211268662297 0  2.044681945060528 3.019263045226161 0  0.9314050741119282 1.767290403494594 0  2.592734420045909 3.781839593449757 0  0.7854582426842617 1.141868338892094 0  0.8358853293826656 -2894.637605081295 0  0 -2986.819043731786 0  2.785047529713931 4.595513959262229 0  2.091048223300884 3.207515346436135 0  2.095265620943364 3.362053562333193 0  0.8358853293826656 -88.83789733296068 0  0.9819887499947636 2.110080920601625 0  0.2879894435817162 0.7220823077755305 0  1.020352346363233 3.797637339513696 0  0.1461034206120981 -90.07135772988971 0  0 -102.4286366161709 0  1.024569744005713 3.952175555410753 0  0.1461034206120981 -11.48065836260857 0  0.8784663233936145 -8.4051033308704 0  0.8784663233936145 0.685438168828266 0  0 -14.74739574919105 0  0.4339483184394228 -0.5412103550585398 0  0.5412103550585008 -0.4339483184393936 0  1.002745732432744 -1.324531842290094 0  1.394406476048482 -1.608930549286726 0  1.036301341057197 -1.429030462399691 0  1.784903275198071 -2.106689385055422 0  1.892165311817149 -1.999427348436275 0  1.534060176825863 -1.819527261549241 0  1.2172698056709 -1.110007769051802 0  1.324531842289978 -1.002745732432656 0  1.608930549286638 -1.394406476048433 0  2.106689385055305 -1.784903275197983 0  1.429030462399575 -1.036301341057109 0  1.819527261549163 -1.534060176825805 0  0.5346151443127822 -0.8547062153873304 0  1.032373980081449 -1.24520301453688 0  0.6520621961522401 -2.182590715698098 0  1.187410134621076 -1.88752971915933 0  2.780420946735404 -2.887682983354521 0  2.887682983354482 -2.780420946735375 0  2.529577848363197 -2.60052085984834 0  2.684614002902824 -3.24284756447079 0  2.60052085984834 -2.529577848363197 0  3.433215937043698 -3.920506487126521 0  3.920506487126517 -3.433215937043695 0  3.242847564470786 -2.684614002902821 0  0.8547062153872914 -0.5346151443127529 0  1.24520301453688 -1.032373980081449 0  1.887529719159326 -1.187410134621073 0  2.182590715698098 -0.6520
[...]
<CellData  Scalars="q"> 
<DataArray  type="Float64"  Name="q"  format="ascii">8.9612461336860683e-02   8.9612461336858365e-02   8.9612461336859434e-02   8.9612461336859434e-02   8.9612461336860891e-02   8.9612461336860891e-02   8.9612461336860474e-02   8.9612461336860474e-02   8.9612461336859781e-02   8.9612461336857754e-02   1.7764467075168744e-01   3.1944555533883701e-01   8.9612461336861876e-02   8.9612461336861876e-02   3.1944555533884417e-01   1.7764467075168813e-01   8.9612461336857949e-02   8.9612461336860252e-02   8.9612461336858171e-02   8.9612461336858379e-02   8.9612461336860474e-02   8.9612461336860474e-02   8.9612461336860474e-02   8.9612461336858407e-02   8.9612461336858629e-02   8.9612461336858990e-02   3.1944555533883584e-01   1.7764467075168316e-01   8.9612461336859434e-02   8.9612461336859434e-02   1.7764467075168217e-01   3.1944555533883573e-01   8.9612461336862376e-02   8.9612461336862376e-02   8.9612461336860433e-02   8.9612461336859406e-02   8.9612461336860322e-02   8.9612461336861113e-02   8.9612461336858851e-02   8.9612461336859101e-02   8.9612461336859239e-02   8.9612461336860502e-02   8.9612461336856256e-02   8.9612461336856256e-02   8.9612461336858421e-02   8.9612461336860502e-02   8.9612461336857394e-02   8.9612461336857394e-02   8.9612461336858948e-02   8.9612461336858865e-02   8.9612461336860433e-02   8.9612461336858948e-02   8.9612461336859087e-02   8.9612461336859087e-02   8.9612461336859309e-02   8.9612461336859309e-02   8.9612461336858990e-02   8.9612461336859212e-02   8.9612461336859198e-02   8.9612461336859198e-02   8.9612461336858990e-02   8.9612461336859212e-02   8.9612461336858878e-02   8.9612461336858878e-02   3.5017998575294762e-01   4.9580761713469951e-01   8.1079467406009142e-01   3.5017998575294523e-01   4.9580761713469590e-01   8.1079467406009120e-01   4.9580761713469523e-01   4.9580761713469951e-01   8.1079467406009131e-01   3.5017998575294024e-01   3.5017998575294462e-01   3.5017998575294762e-01   4.9580761713469557e-01   4.9580761713469557e-01   4.9580761713469723e-01   8.1079467406009131e-01   4.9580761713469557e-01   4.9580761713470006e-01   4.9580761713469668e-01   4.9580761713469668e-01   4.5921401972450088e-01   4.5921401972450088e-01   4.5921401972450049e-01   4.5921401972450082e-01   4.9580761713470006e-01   4.9580761713469929e-01   9.0358894546366597e-01   4.9580761713469795e-01   4.5921401972450115e-01   9.0358894546366597e-01   4.5921401972450093e-01   4.5921401972450193e-01   3.5017998575294790e-01   9.0358894546366475e-01   8.1079467406009154e-01   4.9580761713469557e-01   4.9580761713469601e-01   8.1079467406009154e-01   4.9580761713470017e-01   4.9580761713470017e-01   8.1079467406009120e-01   3.5017998575294595e-01   3.5017998575294546e-01   4.9580761713469501e-01   4.9580761713469590e-01   4.9580761713469590e-01   4.9580761713469690e-01   8.1079467406009142e-01   9.0358894546366786e-01   4.9580761713469684e-01   4.9580761713469645e-01   4.9580761713469818e-01   4.5921401972450093e-01   4.5921401972450093e-01   4.5921401972449988e-01   9.0358894546366786e-01   4.9580761713469523e-01   4.9580761713470017e-01   4.9580761713469818e-01   4.9580761713469684e-01   4.5921401972450132e-01   4.5921401972450132e-01   4.9580761713469557e-01   9.0358894546366475e-01   3.5017998575338055e-01   9.0358894546356372e-01   8.1079467406029448e-01   4.9580761713450722e-01   4.9580761713450527e-01   8.1079467406029448e-01   4.9580761713450977e-01   4.9580761713450977e-01   8.1079467406029315e-01   3.5017998575337350e-01   3.5017998575337389e-01   4.9580761713450527e-01   4.9580761713450933e-01   4.9580761713450933e-01   4.9580761713450977e-01   8.1079467406028860e-01   9.0358894546356716e-01   4.9580761713450788e-01   4.9580761713450844e-01   4.9580761713450999e-01   4.5921401972457110e-01   4.5921401972457110e-01   4.5921401972456938e-01   9.0358894546356716e-01   4.9580761713450677e-01   4.9580761713450977e-01   4.9580761713450999e-01   4.9580761713450811e-01   4.5921401972457215e-01   4.5921401972457215e-01   4.9580761713450722e-01   9.0358894546356372e-01   3.5017998575337028e-01   4.9580761713450527e-01   8.1079467406028860e-01   3.5017998575336806e-01   4.9580761713450472e-01   8.1079467406029315e-01   4.9580761713450744e-01   4.9580761713450744e-01   8.1079467406028749e-01   3.5017998575337017e-01   3.5017998575337350e-01   3.5017998575337350e-01   4.9580761713450844e-01   4.9580761713450844e-01   4.9580761713451038e-01   8.1079467406028749e-01   4.9580761713450661e-01   4.9580761713450744e-01   4.9580761713450699e-01   4.9580761713450699e-01   4.5921401972457138e-01   4.5921401972457138e-01   4.5921401972457160e-01   4.5921401972457160e-01   4.9580761713450811e-01   4.9580761713450811e-01   9.0358894546356516e-01   4.9580761713450677e-01   4.5921401972457160e-01   9.0358894546356516e-01   4.5921401972457337e-01   4.5921401972457337e-01   5.4404414425182998e-02   5.4404414425106545e-02   5.4404414425107607e-02   5.4404414425112083e-02   5.4404414425102847e-02   5.4404414425181576e-02   5.4404414425107003e-02   5.4404414425112083e-02   5.4404414425109258e-02   5.4404414425109258e-02   5.4404414425108211e-02   5.4404414425111861e-02   5.4404414425108211e-02   5.4404414425108433e-02   5.4404414425111361e-02   5.4404414425108211e-02   5.4404414425112915e-02   5.4404414425183234e-02   5.4404414425109258e-02   5.4404414425108759e-02   5.4404414425182207e-02   4.5921401972449927e-01   5.4404414425109258e-02   5.4404414425108211e-02   5.4404414425108731e-02   5.4404414425107711e-02   5.4404414425109231e-02   5.4404414425111861e-02   5.4404414425111361e-02   5.4404414425111361e-02   5.4404414425111361e-02   5.4404414425109959e-02   3.1944555533883584e-01   1.7764467075168316e-01   5.4404414425109349e-02   5.4404414425108925e-02   1.7764467075168217e-01   3.1944555533883573e-01   5.4404414425113838e-02   5.4404414425113838e-02   5.4404414425112416e-02   5.4404414425109258e-02   5.4404414425114171e-02   5.4404414425114171e-02   5.4404414425112416e-02   5.4404414425108433e-02   5.4404414425109258e-02   5.4404414425109258e-02   1.7764467075168744e-01   3.1944555533883701e-01   5.4404414425111361e-02   5.4404414425111416e-02   3.1944555533884417e-01   1.7764467075168813e-01   5.4404414425112416e-02   5.4404414425112416e-02   5.4404414425108266e-02   5.4404414425110369e-02   5.4404414425109258e-02   5.4404414425109689e-02   5.4404414425107378e-02   5.4404414425110369e-02   5.4404414425108433e-02   5.4404414425108211e-02   3.0585907231611892e-02   3.0585907231611753e-02   3.0585907231612731e-02   3.0585907231612731e-02   3.0585907231611895e-02   6.4775948582235354e-01   3.0585907231612031e-02   3.0585907231611916e-02   3.3725490932445784e-02   3.0585907231610934e-02   3.0585907231611916e-02   3.0585907231613817e-02   3.0585907231609824e-02   3.3725490932444112e-02   3.0585907231611996e-02   3.0585907231613817e-02   3.0585907231611618e-02   6.4775948582235310e-01   3.0585907231611212e-02   3.3725490932445777e-02   6.4775948582235365e-01   6.7778326233809660e-01   6.4775948582235343e-01   6.4775948582235343e-01   3.0585907231612315e-02   3.0585907231611364e-02   6.7500205530122626e-01   3.0585907231613540e-02   6.4775948582235321e-01   6.7500205530122626e-01   6.4775948582235410e-01   6.4775948582235410e-01   3.0585907231611895e-02   3.0585907231611753e-02   3.0585907231611753e-02   3.0585907231611753e-02   3.0585907231611892e-02   1.1630477320465311e+00   3.0585907231611753e-02   9.4179322889480266e-01   3.0585907231611753e-02   3.0585907231611892e-02   3.0585907231611753e-02   6.7500205530122603e-01   3.0585907231611753e-02   9.4179322889480233e-01   3.0585907231612020e-02   5.6194697381544423e-01   3.0585907231612443e-02   3.0585907231612443e-02   3.0585907231611358e-02   6.4775948582235388e-01   6.4775948582235288e-01   6.4775948582235388e-01   6.4775948582235332e-01   6.7500205530122603e-01   3.0585907231611639e-02   9.4179322889480321e-01   6.7500205530122648e-01   5.6194697381544467e-01   6.4775948582235299e-01   6.7500205530122648e-01   6.4775948582235365e-01   6.4775948582235365e-01   1.1094958880313172e-01   1.1094958880313162e-01   1.0197059440407876e+00   8.6521806226812192e-01   8.6521806226812215e-01   7.3925580501961485e-01   1.0362809891507646e-01   1.0362809891507696e-01   2.1396267901215049e-01   1.1094958880313194e-01   1.1094958880313226e-01   1.1094958880313226e-01   1.0362809891507790e-01   1.0362809891507790e-01   1.0362809891507689e-01   2.1396267901215049e-01   1.0362809891507697e-01   1.0362809891507697e-01   1.9952433148470156e-01   1.0362809891507696e-01   9.6394503643040003e-02   1.9952433148470156e-01   9.6394503643040808e-02   1.4318947725492076e-01   8.6521806226812159e-01   7.3925580501961474e-01   1.0362809891507681e-01   1.0362809891507668e-01   9.6394503643039434e-02   1.4318947725492084e-01   7.3925580501961463e-01   6.4027837755184680e-01   2.1396267901215127e-01   1.1094958880313119e-01   1.1094958880313123e-01   1.1094958880313176e-01   1.0362809891507606e-01   1.0362809891507606e-01   1.0362809891507573e-01   2.1396267901215127e-01   3.0876512588747296e-01   1.1094958880313104e-01   1.1094958880313176e-01   1.1094958880313145e-01   1.0362809891507634e-01   1.0362809891507681e-01   1.0362809891507692e-01   1.1420470418015109e-01   1.0362809891507677e-01   1.0362809891507692e-01   1.0362809891507697e-01   1.0362809891507666e-01   9.6394503643039406e-02   1.4318947725492057e-01   1.0362809891507620e-01   3.0876512588747296e-01   1.0362809891507810e-01   1.0362809891507810e-01   1.9952433148470222e-01   1.1420470418015134e-01   9.6394503643039309e-02   1.9952433148470222e-01   9.6394503643041238e-02   1.4318947725492062e-01   9.9226034071441843e-02   6.4367963586763555e-02   6.4367963586764360e-02   6.4367963586763166e-02   6.4367963586764873e-02   9.9226034071441094e-02   6.4367963586764360e-02   6.4367963586763235e-02   6.4367963586762958e-02   6.4367963586763402e-02   6.4367963586763235e-02   6.4367963586763180e-02   6.4367963586764221e-02   6.4367963586764221e-02   6.4367963586764457e-02   6.4367963586763721e-02   6.4367963586763999e-02   9.9226034071440761e-02   6.4367963586764498e-02   6.4367963586764498e-02   9.9226034071441843e-02   6.4367963586763971e-02   6.4367963586764235e-02   6.4367963586764498e-02   6.4367963586764734e-02   6.4367963586764498e-02   6.4367963586763860e-02   6.4367963586763860e-02   6.4367963586764873e-02   6.4367963586764873e-02   6.4367963586764457e-02   6.4367963586763388e-02   6.4367963586765747e-02   6.4367963586766622e-02   6.4367963586763596e-02   6.4367963586761862e-02   6.4367963586764609e-02   6.4367963586766622e-02   6.4367963586764110e-02   6.4367963586764110e-02   6.4367963586766247e-02   6.4367963586766247e-02   6.4367963586762375e-02   6.4367963586762375e-02   6.4367963586763305e-02   6.4367963586765248e-02   6.4367963586763929e-02   6.4367963586763929e-02   6.4367963586763971e-02   6.4367963586763971e-02   6.4367963586763596e-02   6.4367963586763596e-02   6.4367963586763971e-02   6.4367963586763971e-02   6.4367963586764110e-02   6.4367963586764110e-02   6.4367963586763680e-02   6.4367963586764249e-02   6.4367963586762944e-02   6.4367963586762944e-02   6.4367963586764623e-02   6.4367963586764623e-02   6.4367963586763291e-02   6.4367963586763291e-02   1.1420470418015134e-01   8.5078616825284295e-02   8.5078616825286807e-02   8.5078616825286807e-02   8.5078616825288625e-02   8.5078616825288625e-02   8.5078616825286807e-02   8.5078616825286807e-02   8.5078616825288486e-02   8.5078616825288486e-02   8.5078616825288056e-02   8.5078616825285960e-02   8.5078616825286946e-02   8.5078616825286807e-02   8.5078616825286044e-02   8.5078616825286044e-02   8.5078616825284739e-02   1.1420470418015109e-01   8.5078616825285905e-02   8.5078616825287445e-02   1.1420470418015122e-01   8.5078616825285558e-02   8.5078616825286543e-02   8.5078616825287445e-02   8.5078616825287168e-02   8.5078616825287168e-02   8.5078616825288056e-02   8.5078616825286002e-02   8.5078616825287168e-02   8.5078616825287168e-02   8.5078616825286044e-02   8.5078616825286044e-02   8.5078616825285780e-02   8.5078616825285780e-02   8.5078616825286765e-02   8.5078616825286765e-02   8.5078616825286946e-02   8.5078616825286946e-02   8.5078616825285641e-02   8.5078616825286252e-02   8.5078616825286515e-02   8.5078616825286377e-02   8.5078616825286515e-02   8.5078616825285780e-02   8.5078616825286515e-02   8.5078616825286391e-02   8.5078616825287168e-02   8.5078616825287168e-02   8.5078616825285780e-02   8.5078616825285780e-02   8.5078616825285780e-02   8.5078616825286515e-02   8.5078616825285780e-02   6.7778326233809660e-01   8.5078616825286904e-02   8.5078616825286904e-02   8.5078616825286515e-02   8.5078616825286515e-02   8.5078616825286904e-02   8.5078616825286904e-02   8.5078616825286515e-02   8.5078616825286515e-02   8.5078616825286515e-02   8.5078616825286044e-02   3.0585907231653872e-02   3.0585907231653733e-02   3.0585907231653733e-02   3.0585907231653733e-02   3.0585907231653865e-02   1.1630477320465265e+00   3.0585907231653733e-02   9.4179322889479533e-01   3.0585907231653733e-02   3.0585907231653865e-02   3.0585907231653733e-02   6.7500205530125468e-01   3.0585907231653865e-02   9.4179322889479500e-01   3.0585907231653324e-02   5.6194697381543124e-01   3.0585907231653605e-02   3.0585907231653605e-02   3.0585907231654826e-02   6.4775948582234388e-01   6.4775948582234488e-01   6.4775948582234488e-01   6.4775948582234433e-01   6.7500205530125468e-01   3.0585907231654684e-02   9.4179322889479478e-01   6.7500205530125457e-01   5.6194697381543057e-01   6.4775948582234422e-01   6.7500205530125457e-01   6.4775948582234399e-01   6.4775948582234499e-01   3.3725490932466178e-02   3.0585907231655243e-02   3.0585907231654819e-02   3.0585907231653560e-02   3.0585907231654684e-02   3.3725490932466178e-02   3.0585907231654819e-02   3.0585907231653466e-02   3.0585907231654018e-02   3.0585907231654427e-02   3.0585907231653598e-02   3.0585907231653560e-02   3.0585907231653872e-02   6.4775948582234477e-01   3.0585907231654819e-02   3.0585907231654819e-02   3.0585907231654826e-02   3.0585907231655388e-02   6.7500205530125457e-01   3.0585907231653605e-02   6.4775948582234433e-01   6.7500205530125457e-01   6.4775948582234388e-01   6.4775948582234477e-01   3.0585907231654302e-02   3.3725490932466080e-02   3.0585907231655388e-02   6.4775948582234422e-01   6.4775948582234466e-01   6.4775948582234466e-01   6.4775948582234388e-01   6.7778326233810715e-01   6.4367963586769633e-02   6.4367963586769633e-02   6.4367963586768828e-02   6.4367963586768828e-02   6.4367963586769633e-02   6.4367963586769633e-02   6.4367963586769758e-02   6.4367963586769758e-02   6.4367963586769522e-02   6.4367963586770507e-02   6.4367963586768440e-02   6.4367963586768440e-02   6.4367963586770785e-02   6.4367963586770785e-02   6.4367963586769897e-02   6.4367963586769897e-02   6.4367963586768009e-02   6.4367963586769633e-02   6.4367963586767898e-02   6.4367963586768578e-02   6.4367963586769758e-02   6.4367963586769758e-02   6.4367963586769883e-02   6.4367963586769883e-02   6.4367963586771770e-02   6.4367963586771770e-02   6.4367963586771521e-02   6.4367963586771521e-02   6.4367963586771770e-02   6.4367963586769897e-02   6.4367963586768565e-02   6.4367963586768565e-02   6.4367963586772228e-02   6.4367963586772228e-02   6.4367963586771021e-02   6.4367963586769272e-02   6.4367963586770077e-02   6.4367963586770965e-02   6.4367963586769328e-02   6.4367963586768828e-02   6.4367963586769467e-02   6.4367963586771854e-02   9.9226034071442121e-02   6.4367963586766511e-02   6.4367963586769439e-02   6.4367963586771854e-02   6.4367963586768565e-02   9.9226034071443633e-02   6.4367963586770258e-02   6.4367963586770022e-02   6.4367963586771021e-02   6.4367963586770022e-02   6.4367963586770258e-02   6.4367963586770258e-02   6.4367963586769328e-02   6.4367963586768787e-02   6.4367963586769883e-02   6.4367963586770022e-02   6.4367963586769883e-02   9.9226034071443883e-02   6.4367963586769633e-02   6.4367963586770022e-02   9.9226034071444202e-02   6.4367963586769369e-02   3.0876512588750893e-01   1.1094958880314494e-01   1.1094958880314697e-01   1.1094958880314697e-01   1.0362809891508994e-01   1.0362809891508994e-01   1.0362809891508888e-01   1.1420470418015635e-01   1.1094958880314500e-01   1.1094958880314601e-01   2.1396267901217664e-01   1.1094958880314601e-01   1.0362809891508726e-01   2.1396267901217664e-01   1.0362809891508787e-01   1.0362809891508898e-01   1.9952433148472323e-01   1.1420470418015743e-01   1.0362809891508938e-01   1.0362809891508938e-01   9.6394503643050716e-02   9.6394503643050716e-02   9.6394503643050647e-02   1.9952433148472323e-01   1.0362809891508952e-01   1.0362809891508952e-01   1.0362809891508905e-01   1.0362809891508837e-01   9.6394503643049079e-02   9.6394503643050231e-02   1.0362809891508865e-01   3.0876512588750893e-01   1.1094958880314684e-01   1.1094958880314684e-01   1.0197059440408454e+00   8.6521806226815401e-01   8.6521806226815401e-01   7.3925580501962862e-01   1.0362809891508999e-01   1.0362809891508999e-01   2.1396267901217583e-01   1.1094958880314486e-01   1.1094958880314575e-01   1.1094958880314570e-01   1.0362809891508820e-01   1.0362809891508820e-01   1.0362809891508923e-01   2.1396267901217583e-01   1.0362809891508827e-01   1.0362809891508869e-01   1.9952433148472243e-01   1.0362809891508823e-01   9.6394503643050217e-02   1.9952433148472243e-01   9.6394503643049495e-02   9.6394503643050355e-02   8.6521806226815479e-01   7.3925580501962906e-01   1.0362809891508955e-01   1.0362809891508955e-01   9.6394503643050300e-02   9.6394503643050300e-02   7.3925580501962895e-01   6.4027837755184969e-01   8.5078616825294731e-02   8.5078616825294731e-02   8.5078616825293607e-02   8.5078616825294232e-02   8.5078616825295536e-02   8.5078616825295536e-02   8.5078616825294509e-02   8.5078616825294509e-02   8.5078616825293454e-02   8.5078616825294107e-02   8.5078616825294870e-02   8.5078616825295106e-02   8.5078616825293121e-02   8.5078616825294107e-02   8.5078616825294023e-02   8.5078616825294398e-02   8.5078616825296230e-02   8.5078616825296230e-02   8.5078616825296369e-02   8.5078616825296369e-02   8.5078616825294218e-02   6.7778326233810715e-01   8.5078616825295342e-02   8.5078616825294121e-02   8.5078616825296410e-02   8.5078616825295245e-02   8.5078616825295106e-02   8.5078616825295106e-02   8.5078616825296410e-02   8.5078616825296119e-02   8.5078616825296965e-02   8.5078616825296965e-02   8.5078616825295550e-02   8.5078616825295508e-02   8.5078616825294995e-02   8.5078616825294995e-02   8.5078616825296063e-02   8.5078616825296063e-02   8.5078616825295938e-02   8.5078616825294398e-02   8.5078616825297923e-02   8.5078616825296660e-02   1.1420470418015743e-01   8.5078616825296660e-02   8.5078616825297923e-02   8.5078616825296896e-02   8.5078616825297923e-02   8.5078616825297923e-02   8.5078616825295508e-02   8.5078616825295508e-02   8.5078616825294995e-02   8.5078616825294995e-02   8.5078616825295383e-02   8.5078616825295356e-02   8.5078616825295938e-02   8.5078616825294107e-02   8.5078616825294107e-02   8.5078616825294107e-02   8.5078616825293593e-02   1.1420470418015635e-01   8.5078616825293593e-02   8.5078616825294107e-02   1.1420470418015678e-01   8.5078616825295272e-02   4.0030327590246991e-15   2.9675084169954558e-01   2.9675084169954252e-01   5.0408560669199947e-15   2.9675084169954496e-01   4.5212808296780616e-01   2.9675084169954452e-01   2.9675084169954558e-01   8.3033802528626008e-02   2.9675084169954530e-01   8.3033802528625189e-02   2.9652094511294118e-15   2.9675084169954391e-01   3.7745946084711163e-01   2.9675084169954330e-01   2.9675084169954530e-01   2.9675084169954496e-01   4.5212808296780571e-01   2.9675084169954496e-01   3.7745946084711163e-01   4.5212808296780760e-01   7.9564149497028169e-01   4.5212808296780571e-01   4.5212808296780571e-01   2.9675084169954496e-01   2.9675084169954496e-01   7.2457497907843338e-01   2.9675084169954430e-01   4.5212808296780466e-01