<?xml version="1.0"?>
<VTKFile type="UnstructuredGrid"  version="0.1"  >
<UnstructuredGrid>
<Piece  NumberOfPoints="65" NumberOfCells="96">
<Points>
<DataArray  type="Float64"  NumberOfComponents="3"  format="ascii">0.1495496114427624 -0.1495496114427624 0  1.287144439429404 -1.716192585905872 0  1.716192585905716 -1.287144439429287 0  0.2837720459405749 -0.5675440918811498 0  3.278179782504071 -3.278179782504071 0  0.5675440918811498 -0.2837720459405749 0  1.756932646787236 -7.027730587148944 0  3.898324400662581 -5.847486600993871 0  5.847486600993853 -3.898324400662569 0  7.027730587148944 -1.756932646787236 0  -0.1495496114427624 -0.1495496114427624 0  5.656854249492382 6.280369834735103e-16 0  -7.027730587148944 -1.756932646787237 0  -0.5675440918811498 -0.2837720459405749 0  -1.716192585905716 -1.287144439429287 0  -1.287144439429287 -1.716192585905716 0  -0.2837720459405749 -0.5675440918811498 0  -1.756932646787236 -7.027730587148944 0  0 5.656854249492382 0  0.2922068412242178 -0.8766205236726532 0  0.1910394894585253 -0.1910394894585253 0  0.8766205236725884 -0.2922068412241961 0  -5.656854249492382 0 0  -3.278179782504071 -3.278179782504071 0  23.83793724888972 0 0  -0.8766205236725884 -0.2922068412241961 0  -5.847486600993853 -3.898324400662569 0  -3.898324400662569 -5.847486600993853 0  -0.2922068412241961 -0.8766205236725884 0  0 23.83793724888972 0  1.671770658765338 -3.343541317530675 0  3.343541317530675 -1.671770658765338 0  -23.83793724888972 0 0  7.027730587148944 1.756932646787236 0  -0.1910394894585253 -0.1910394894585253 0  181.019335983452 0 0  -3.343541317530675 -1.671770658765338 0  -1.671770658765338 -3.343541317530675 0  0 181.019335983452 0  0.1068812197939318 -0.1068812197939318 0  -181.019335983452 0 0  0.8766205236726532 0.2922068412242178 0  0.5675440918811498 0.2837720459405749 0  -0.1068812197939318 -0.1068812197939318 0  5792.61875148012 0 0  0 5792.61875148012 0  1.716192585905872 1.287144439429404 0  -5792.61875148012 0 0  3.343541317530675 1.671770658765338 0  5.847486600993871 3.898324400662581 0  0.1495496114427583 0.1495496114427583 0  0 0 0  3.278179782504071 3.278179782504071 0  0.1068812197939318 0.1068812197939318 0  0.1910394894585253 0.1910394894585253 0  1.287144439429287 1.716192585905716 0  0 -5792.61875148012 0  3.898324400662531 5.847486600993797 0  1.671770658765331 3.343541317530662 0  0.2837720459392363 0.5675440918784725 0  0 -181.019335983452 0  0.2922068412241961 0.8766205236725884 0  1.756932646787229 7.027730587148919 0  0 -23.83793724888972 0  0 -5.656854249492387 0  </DataArray>
</Points>
<Cells>
<DataArray  type="UInt32"  Name="connectivity"  format="ascii">0 1 2  2 4 5  1 3 4  1 2 4  9 21 22  8 20 21  5 8 9  8 9 21  6 18 19  3 6 7  7 19 20  6 7 19  4 5 8  7 8 20  3 4 7  4 7 8  45 47 51  38 39 45  39 40 47  39 45 47  18 19 29  19 20 30  29 30 38  19 29 30  21 22 32  31 32 40  20 21 31  21 31 32  30 38 39  20 30 31  31 39 40  30 31 39  22 32 33  33 41 42  32 40 41  32 33 41  46 50 52  49 52 54  42 46 49  46 49 52  47 51 53  40 47 48  48 53 54  47 48 53  41 42 49  48 49 54  40 41 48  41 48 49  62 63 64  60 61 63  59 61 62  61 62 63  51 53 56  53 54 58  56 58 60  53 56 58  50 52 55  55 57 59  52 54 57  52 55 57  58 60 61  54 57 58  57 59 61  57 58 61  17 18 29  28 29 38  16 17 28  17 28 29  43 45 51  34 37 43  37 38 45  37 43 45  10 15 23  15 16 27  23 27 34  15 23 27  28 37 38  27 34 37  16 27 28  27 28 37  11 12 24  12 13 25  24 25 35  12 24 25  10 14 23  23 26 34  13 14 26  14 23 26  43 44 51  35 36 44  34 36 43  36 43 44  13 25 26  26 34 36  25 35 36  25 26 36  </DataArray>
<DataArray  type="UInt32"  Name="offsets"  format="ascii">3 6 9 12 15 18 21 24 27 30 33 36 39 42 45 48 51 54 57 60 63 66 69 72 75 78 81 84 87 90 93 96 99 102 105 108 111 114 117 120 123 126 129 132 135 138 141 144 147 150 153 156 159 162 165 168 171 174 177 180 183 186 189 192 195 198 201 204 207 210 213 216 219 222 225 228 231 234 237 240 243 246 249 252 255 258 261 264 267 270 273 276 279 282 285 288 </DataArray>
<DataArray  type="UInt8"  Name="types"  format="ascii">5 5 5 5 5 5 5 5 5 5 5 5 5 5 5 5 5 5 5 5 5 5 5 5 5 5 5 5 5 5 5 5 5 5 5 5 5 5 5 5 5 5 5 5 5 5 5 5 5 5 5 5 5 5 5 5 5 5 5 5 5 5 5 5 5 5 5 5 5 5 5 5 5 5 5 5 5 5 5 5 5 5 5 5 5 5 5 5 5 5 5 5 5 5 5 5 </DataArray>
</Cells>
<CellData  Scalars="q"> 
<DataArray  type="Float64"  Name="q"  format="ascii">2.6619771998711950e-01   4.5921401972450088e-01   4.5921401972450088e-01   4.5921401972450088e-01   6.7778326233809705e-01   6.4027837755184691e-01   4.6787206622445218e-02   6.7778326233809705e-01   6.7778326233810660e-01   4.6787206622456022e-02   6.4027837755184980e-01   6.7778326233810660e-01   7.9564149497028003e-01   8.4174712267033491e-01   7.9564149497028280e-01   8.4174712267033491e-01   3.4312784235604515e-01   1.8766153637035470e+00   1.8766153637035470e+00   3.4312784235604515e-01   6.3486023561034510e-01   1.5464305236873694e+00   1.4852095269536651e+00   1.5464305236873694e+00   6.3486023561034277e-01   1.4852095269536651e+00   1.5464305236873694e+00   1.5464305236873694e+00   1.9234941936173757e+00   3.1697978982746934e-02   1.9234941936173757e+00   1.9234941936173757e+00   2.2287013037737000e-01   1.2940082123324583e+00   1.4189113932032731e+00   1.4189113932032731e+00   9.9392339373789745e-02   3.2200987107034651e-01   2.6782622227237862e-01   3.2200987107034651e-01   3.4312784235604515e-01   1.8766821465659751e+00   1.9975204216477336e+00   1.9975204216477336e+00   4.1071687171078307e-02   6.1168401145518736e-01   1.8766821465659751e+00   1.8710600395073345e+00   0.0000000000000000e+00   1.4189113932032733e+00   1.2940082123322050e+00   1.4189113932032733e+00   5.5863099692542758e-04   1.9975204216477336e+00   1.8766821465659751e+00   1.9975204216477336e+00   9.9392339373810951e-02   2.6782622227279912e-01   3.2200987107031304e-01   3.2200987107031304e-01   1.8766821465659751e+00   6.1168401145517937e-01   4.1071687171531618e-02   1.8710600395073349e+00   2.2287013037736741e-01   1.4189113932032729e+00   1.2940082123324583e+00   1.4189113932032729e+00   3.4312784235604515e-01   1.9975204216477336e+00   1.8766821465659751e+00   1.9975204216477336e+00   9.9392339373826327e-02   2.6782622227234065e-01   3.2200987107030909e-01   3.2200987107030909e-01   1.8766821465659751e+00   6.1168401145518447e-01   4.1071687171067892e-02   1.8710600395073334e+00   0.0000000000000000e+00   1.2940082123324583e+00   1.4189113932032729e+00   1.4189113932032729e+00   9.9392339373826327e-02   3.2200987107030909e-01   2.6782622227234065e-01   3.2200987107030909e-01   5.5863099692542758e-04   1.8766821465659751e+00   1.9975204216477336e+00   1.9975204216477336e+00   4.1071687171067892e-02   6.1168401145518447e-01   1.8766821465659751e+00   1.8710600395073334e+00   </DataArray> 
</CellData> 
</Piece>
</UnstructuredGrid>
</VTKFile>