<?xml version="1.0"?>
<VTKFile type="UnstructuredGrid"  version="0.1"  >
<UnstructuredGrid>
<Piece  NumberOfPoints="833" NumberOfCells="1536">
<Points>
<DataArray  type="Float64"  NumberOfComponents="3"  format="ascii">-1 1 0  -0.7500000000000002 1 0  -1 0.75 0  -0.5000000000000002 1 0  -0.4687317158419215 0.4687317158419215 0  -1 0.5000000000000002 0  -0.2500000000000001 1 0  -0.167322142694602 0.250983214041903 0  -0.250983214041903 0.167322142694602 0  -1 0.2500000000000001 0  1 1 0  0.9999999999979623 1.110223024622894e-16 0  1 0.2500000000000002 0  1 0.5000000000000002 0  1 0.75 0  0.75 1 0  0.5000000000000002 1 0  0.2500000000000001 1 0  0 0.9999999999979623 0  -0.02996239294911606 0.08988717884734818 0  -0.02199800931582472 0.02199800931582472 0  -0.08988717884734816 0.02996239294911605 0  -0.9999999999979623 0 0  0.4687317158419215 0.4687317158419215 0  0.0563135147094726 0 0  0.08988717884734816 0.02996239294911605 0  0.250983214041903 0.167322142694602 0  0.167322142694602 0.250983214041903 0  0.02996239294911605 0.08988717884734816 0  0 0.0563135147094726 0  -0.001332765915716535 0.00266553183143307 0  -0.00266553183143307 0.001332765915716535 0  -0.0563135147094726 0 0  -1 -0.2500000000000002 0  0.02199800931582472 0.02199800931582472 0  0.0009765624999999977 0 0  0.00266553183143307 0.001332765915716535 0  0.001332765915716535 0.00266553183143307 0  0 0.0009765624999999977 0  -2.157918606448279e-05 2.157918606448279e-05 0  -0.0009765624999999977 0 0  -0.08988717884734818 -0.02996239294911606 0  -1 -0.5000000000000002 0  2.157918606448279e-05 2.157918606448279e-05 0  9.536743164062467e-07 0 0  0 9.536743164062467e-07 0  -1 -0.7500000000000002 0  -9.536743164062467e-07 0 0  -0.00266553183143307 -0.001332765915716535 0  -0.250983214041903 -0.167322142694602 0  -1 -1 0  0 0 0  -0.4687317158419215 -0.4687317158419215 0  -2.157918606448279e-05 -2.157918606448279e-05 0  -0.02199800931582472 -0.02199800931582472 0  -0.7499999999999999 -1 0  0 -9.536743164062467e-07 0  -0.167322142694602 -0.250983214041903 0  -0.001332765915716535 -0.00266553183143307 0  -0.4999999999999993 -0.9999999999999986 0  0 -0.0009765624999999977 0  -0.02996239294911605 -0.08988717884734816 0  -0.2499999999999996 -0.9999999999999987 0  0 -0.0563135147094726 0  0 -0.9999999999979609 0  -0.8750000000000002 1 0  -1 0.8750000000000001 0  -0.8750000000000001 0.8750000000000001 0  -0.6250000000000002 1 0  -0.6093658579209609 0.7343658579209609 0  -0.7343658579209608 0.6093658579209608 0  -1 0.6250000000000001 0  -0.4843658579209609 0.734365857920961 0  -0.3750000000000002 1 0  -0.3336610713473011 0.6254916070209517 0  -0.734365857920961 0.4843658579209609 0  -0.3180269292682618 0.3598574649419123 0  -0.3598574649419123 0.3180269292682618 0  -0.6254916070209517 0.3336610713473012 0  -1 0.3750000000000002 0  -0.2086610713473011 0.6254916070209517 0  -0.1250000000000001 0.9999999999989814 0  -0.1399811964745581 0.5449435894236743 0  -0.2091526783682525 0.2091526783682525 0  -0.09864226782185904 0.1704351964446256 0  -0.09466007600521337 0.1364906116788639 0  -0.6254916070209517 0.2086610713473011 0  -0.1364906116788639 0.09466007600521338 0  -0.1704351964446256 0.09864226782185904 0  -0.5449435894236743 0.1399811964745581 0  -0.9999999999989814 0.1250000000000001 0  1 0.8750000000000001 0  0.8750000000000001 1 0  0.7343658579209609 0.7343658579209609 0  0.9999999999989814 0.1250000000000002 0  0.5281567573537175 5.551115123114471e-17 0  1 0.3750000000000002 0  0.5281567573547366 0.1250000000000001 0  0.5449435894236743 0.1399811964745581 0  1 0.6250000000000001 0  0.5449435894236743 0.2649811964745581 0  0.6254916070209517 0.3336610713473012 0  0.7343658579209608 0.6093658579209608 0  0.6254916070209515 0.4586610713473011 0  0.6250000000000001 1 0  0.6093658579209608 0.7343658579209608 0  0.4586610713473011 0.6254916070209515 0  0.3750000000000002 1 0  0.3336610713473012 0.6254916070209517 0  0.2649811964745581 0.5449435894236743 0  0.1250000000000001 0.9999999999989814 0  0.1399811964745581 0.5449435894236743 0  0.1250000000000001 0.5281567573547366 0  -0.01498119647455803 0.5449435894226552 0  0 0.5281567573537175 0  -0.02598020113247039 0.05594259408158644 0  -0.01498119647455803 0.07310034677841039 0  -0.0156475794324163 0.04627635533939062 0  -0.05594259408158644 0.02598020113247038 0  -0.01166538761577062 0.01233177057362889 0  -0.01233177057362889 0.01166538761577062 0  -0.5449435894226552 0.01498119647455803 0  -0.04627635533939062 0.01564757943241629 0  -0.07310034677841037 0.01498119647455803 0  -0.5281567573537175 0 0  -0.9999999999989814 -0.1250000000000001 0  0.3598574649419123 0.3180269292682618 0  0.3180269292682618 0.3598574649419123 0  0.2453648625788731 0.2453648625788731 0  0.07310034677841037 0.01498119647455803 0  0.0286450386047363 0 0  0.1704351964446256 0.09864226782185904 0  0.04543187067367408 0.01498119647455803 0  0.04627635533939062 0.01564757943241629 0  0.1364906116788639 0.09466007600521338 0  0.1268243729366681 0.0843274543051593 0  0.09864226782185904 0.1704351964446256 0  0.09466007600521338 0.1364906116788639 0  0.0843274543051593 0.1268243729366681 0  0.01498119647455803 0.07310034677841037 0  0.01564757943241629 0.04627635533939062 0  0.01498119647455803 0.04543187067367408 0  -0.0006663829578582675 0.02948952327045283 0  0 0.0286450386047363 0  -0.001999148873574802 0.001999148873574802 0  -0.0006663829578582675 0.001821047165716534 0  -0.0006771725508905089 0.001343555508748776 0  -0.02948952327045283 0.0006663829578582675 0  -0.001343555508748776 0.0006771725508905089 0  -0.001821047165716534 0.0006663829578582675 0  -0.5281567573547366 -0.1250000000000001 0  -0.0286450386047363 0 0  -0.07310034677841039 -0.01498119647455803 0  -0.5449435894236743 -0.1399811964745581 0  -1 -0.3750000000000002 0  0.01233177057362889 0.01166538761577062 0  0.01166538761577062 0.01233177057362889 0  0.0110097942509446 0.0110097942509446 0  0.001821047165716534 0.0006663829578582675 0  0.0004887580871582019 0 0  0.001343555508748776 0.0006771725508905089 0  0.001333242752874738 0.0006663829578582675 0  0.0006663829578582675 0.001821047165716534 0  0.0006771725508905089 0.001343555508748776 0  0.0006663829578582675 0.001333242752874738 0  -1.078959303224139e-05 0.0004990708430322403 0  0 0.0004887580871582019 0  -0.0004990708430322403 1.078959303224139e-05 0  -1.078959303224139e-05 1.126643019044452e-05 0  -1.126643019044452e-05 1.078959303224139e-05 0  -0.04543187067367409 -0.01498119647455803 0  -0.0004887580871582019 0 0  -0.001821047165716534 -0.0006663829578582675 0  -0.5449435894236743 -0.2649811964745581 0  -0.04627635533939062 -0.0156475794324163 0  -0.1704351964446256 -0.09864226782185904 0  -1 -0.6250000000000002 0  -0.6254916070209517 -0.3336610713473011 0  1.126643019044452e-05 1.078959303224139e-05 0  1.078959303224139e-05 1.126643019044452e-05 0  1.078959303224139e-05 1.078959303224139e-05 0  4.768371582031234e-07 0 0  -4.768371582031234e-07 4.768371582031234e-07 0  0 4.768371582031234e-07 0  -0.6254916070209516 -0.4586610713473011 0  -1 -0.8750000000000002 0  -0.7343658579209609 -0.6093658579209609 0  -0.001333242752874738 -0.0006663829578582675 0  -4.768371582031234e-07 0 0  -1.126643019044452e-05 -1.078959303224139e-05 0  -0.1268243729366681 -0.08432745430515928 0  -0.001343555508748776 -0.0006771725508905089 0  -0.01233177057362889 -0.01166538761577062 0  -0.3598574649419123 -0.3180269292682618 0  -0.1364906116788639 -0.09466007600521337 0  -0.7343658579209608 -0.7343658579209609 0  -0.875 -1 0  -1.078959303224139e-05 -1.078959303224139e-05 0  0 -4.768371582031234e-07 0  -0.2453648625788731 -0.2453648625788731 0  -0.6093658579209607 -0.7343658579209608 0  -0.3180269292682617 -0.3598574649419122 0  -0.0110097942509446 -0.0110097942509446 0  -1.078959303224139e-05 -1.126643019044452e-05 0  -0.0006771725508905089 -0.001343555508748776 0  -0.09466007600521335 -0.1364906116788639 0  -0.01166538761577062 -0.01233177057362889 0  -0.4586610713473009 -0.6254916070209515 0  -0.6249999999999996 -0.9999999999999993 0  -0.0006663829578582675 -0.001333242752874738 0  0 -0.0004887580871582019 0  -0.08432745430515927 -0.126824372936668 0  -0.3336610713473006 -0.6254916070209507 0  -0.09864226782185902 -0.1704351964446256 0  -0.0006663829578582675 -0.001821047165716534 0  -0.01564757943241629 -0.04627635533939062 0  -0.2649811964745576 -0.5449435894236734 0  -0.3749999999999994 -0.9999999999999987 0  -0.01498119647455803 -0.04543187067367408 0  0 -0.0286450386047363 0  -0.1399811964745578 -0.5449435894236734 0  -0.01498119647455803 -0.07310034677841037 0  -0.1249999999999998 -0.5281567573547357 0  -0.1249999999999998 -0.9999999999989797 0  0 -0.5281567573537167 0  -0.9375000000000002 1 0  -1 0.9375000000000002 0  -0.9375000000000002 0.9375000000000002 0  -0.8125000000000002 1 0  -0.8125000000000002 0.9375000000000002 0  -0.6875000000000002 1 0  -0.6796829289604805 0.8671829289604805 0  -1 0.8125 0  -0.9375 0.8125 0  -0.8046829289604804 0.7421829289604804 0  -0.8671829289604804 0.6796829289604804 0  -1 0.6875 0  -0.5625000000000002 1 0  -0.5546829289604805 0.8671829289604807 0  -0.4921829289604805 0.8671829289604807 0  -0.4375000000000002 1 0  -0.4168305356736507 0.8127458035104761 0  -0.5390487868814412 0.6015487868814412 0  -0.6015487868814411 0.5390487868814411 0  -0.4765487868814412 0.6015487868814412 0  -0.4011963935946113 0.5471116614314366 0  -0.6015487868814412 0.4765487868814412 0  -0.3933793225550916 0.4142945903919169 0  -0.4142945903919169 0.3933793225550916 0  -0.5471116614314366 0.4011963935946113 0  -0.8671829289604807 0.5546829289604804 0  -1 0.5625000000000002 0  -0.8671829289604807 0.4921829289604805 0  -0.8127458035104761 0.4168305356736507 0  -1 0.4375000000000002 0  -0.3125000000000001 1 0  -0.2918305356736506 0.8127458035104761 0  -0.2293305356736506 0.8127458035104761 0  -0.1875000000000001 0.9999999999994909 0  -0.1949905982372791 0.7724717947118374 0  -0.2504916070209516 0.4382374105314274 0  -0.
[...]
<CellData  Scalars="q"> 
<DataArray  type="Float64"  Name="q"  format="ascii">2.6691571797624238e-15   2.6691571797624238e-15   2.6691571797624163e-15   2.6691571797624163e-15   7.8504622934188707e-16   7.5448753983472394e-01   1.7271017045521527e-15   5.1865771870875310e-01   1.7271017045521570e-15   1.7271017045521570e-15   3.6112126549726826e-15   3.6112126549726826e-15   0.0000000000000000e+00   5.1865771870875488e-01   1.8841109504205319e-15   7.5448753983472394e-01   4.5244637158232508e-02   4.5244637158232494e-02   1.2166542598603013e-01   3.5153565788849045e-01   4.5244637158232889e-02   2.6140292018691846e-01   7.6526102290691470e-02   1.2166542598602939e-01   4.5244637158232598e-02   4.5244637158232494e-02   4.5244637158234326e-02   4.5244637158234326e-02   4.5244637158234624e-02   4.5244637158234624e-02   4.5244637158233514e-02   2.6140292018691957e-01   4.5244637158234138e-02   4.5244637158234138e-02   4.5244637158233368e-02   4.5244637158233264e-02   4.5244637158234104e-02   4.5244637158234104e-02   4.5244637158235394e-02   4.5244637158235394e-02   4.5244637158233264e-02   4.5244637158233264e-02   1.2166542598603050e-01   3.5153565788849023e-01   4.5244637158233264e-02   4.5244637158233264e-02   7.6526102290691081e-02   1.2166542598603050e-01   5.1865771870875310e-01   7.5448753983472394e-01   2.6140292018691846e-01   2.6140292018691846e-01   7.5448753983472394e-01   5.1865771870875488e-01   2.6140292018691846e-01   2.6140292018691846e-01   2.6140292018691846e-01   2.6140292018691846e-01   2.6140292018691846e-01   2.6140292018691957e-01   2.6140292018691846e-01   2.6140292018691846e-01   2.6140292018691846e-01   2.6140292018691846e-01   1.6801841225635647e-02   1.6801841225635647e-02   2.7860559530184573e-02   1.6801841225635647e-02   1.6801841225635532e-02   1.6801841225635647e-02   4.4657174652853349e-02   2.7860559530184705e-02   1.6801841225635647e-02   1.6801841225635647e-02   1.6801841225635647e-02   1.6801841225635647e-02   1.6801841225635532e-02   1.6801841225635647e-02   1.6801841225637430e-02   1.6801841225637430e-02   5.3862206551920644e-01   1.0237171483454917e+00   2.8146438915944910e-01   2.8146438915944905e-01   2.4642371801373789e-01   2.4642371801373827e-01   1.0237171483454914e+00   1.1947890498289193e+00   2.8146438915944866e-01   1.2623729550612843e+00   5.1889060871527404e-01   1.1227079377421982e+00   2.4642371801373722e-01   5.1889060871527404e-01   1.1227079377421987e+00   7.4100935666734535e-01   6.5650349920431089e-02   6.5650349920431214e-02   8.3918112697651287e-02   1.9820965796187900e-01   6.5650349920431367e-02   6.5650349920431367e-02   6.5650349920431492e-02   8.3918112697651412e-02   6.5650349920431783e-02   6.5650349920430950e-02   6.5650349920431783e-02   6.5650349920431783e-02   6.5650349920433407e-02   6.5650349920433407e-02   6.5650349920431519e-02   6.5650349920431519e-02   2.4271557387658116e-01   2.4271557387658196e-01   7.4100935666734535e-01   1.1227079377421987e+00   1.1227079377421982e+00   1.2623729550612843e+00   2.1630654259558682e-01   2.1630654259558682e-01   4.5307539245829326e-01   2.4271557387658163e-01   2.4271557387658230e-01   2.4271557387658230e-01   2.1630654259558493e-01   2.1630654259558493e-01   2.1630654259558682e-01   4.5307539245829326e-01   1.6801841225635647e-02   1.6801841225635647e-02   1.6801841225635647e-02   1.6801841225635647e-02   1.6801841225637430e-02   1.6801841225637430e-02   1.6801841225635532e-02   1.6801841225635647e-02   1.6801841225635647e-02   1.6801841225635647e-02   2.7860559530184573e-02   1.6801841225635647e-02   1.6801841225635647e-02   1.6801841225635647e-02   4.4657174652853467e-02   2.7860559530184705e-02   6.5650349920431783e-02   6.5650349920431783e-02   6.5650349920431783e-02   6.5650349920431367e-02   6.5650349920431519e-02   6.5650349920431519e-02   6.5650349920433684e-02   6.5650349920433684e-02   6.5650349920431089e-02   6.5650349920431089e-02   8.3918112697651287e-02   1.9820965796187900e-01   6.5650349920431089e-02   6.5650349920431089e-02   6.5650349920431492e-02   8.3918112697651412e-02   5.1889060871527326e-01   1.1227079377421982e+00   2.8146438915944866e-01   1.2623729550612846e+00   1.1227079377421987e+00   7.4100935666734535e-01   2.4642371801373850e-01   5.1889060871527326e-01   5.3862206551920599e-01   1.0237171483454910e+00   2.8146438915944949e-01   2.8146438915944949e-01   2.4642371801373808e-01   2.4642371801373808e-01   1.0237171483454912e+00   1.1947890498289193e+00   4.5307539245829326e-01   2.4271557387658163e-01   2.4271557387658230e-01   2.4271557387658230e-01   2.1630654259558493e-01   2.1630654259558493e-01   2.1630654259558682e-01   4.5307539245829326e-01   7.4100935666734535e-01   1.1227079377421987e+00   2.4271557387658116e-01   2.4271557387658196e-01   2.1630654259558682e-01   2.1630654259558682e-01   1.1227079377421982e+00   1.2623729550612846e+00   8.5151168210924527e-02   4.2520210026419530e-01   4.3660454618683403e-01   3.5475055263551708e-01   4.2520210026419564e-01   6.7109526341805570e-01   4.2520210026419530e-01   4.2520210026419530e-01   3.4315705723930745e-01   8.5151168210923514e-02   8.5151168210924139e-02   1.2166542598602939e-01   4.2520210026419342e-01   4.2520210026419342e-01   4.2520210026419530e-01   4.2520210026419530e-01   1.6092181037712924e-01   1.6092181037713105e-01   1.6092181037713019e-01   1.6092181037712999e-01   1.6092181037713019e-01   1.6092181037713019e-01   1.6092181037713019e-01   1.6092181037712996e-01   3.1297737043431823e-01   2.4525657128793921e-01   1.6092181037712999e-01   1.6092181037712999e-01   1.6092181037713091e-01   1.6092181037712980e-01   2.4525657128793937e-01   3.1297737043431922e-01   3.4315705723930701e-01   8.5151168210924277e-02   8.5151168210924916e-02   1.2166542598603050e-01   4.2520210026419342e-01   4.2520210026419342e-01   4.2520210026419547e-01   4.2520210026419547e-01   4.3660454618683475e-01   2.6478213236114634e-01   8.5151168210925290e-02   4.2520210026419503e-01   4.2520210026419503e-01   4.2520210026419503e-01   4.2520210026419564e-01   6.7109526341805570e-01   3.5475055263551614e-01   6.7109526341805570e-01   9.2131945721831157e-02   9.2131945721831920e-02   2.6478213236114634e-01   4.3660454618683475e-01   9.2131945721830560e-02   3.5475055263551708e-01   9.2131945721832351e-02   9.2131945721832351e-02   3.1297737043431823e-01   2.4525657128793921e-01   2.4525657128793937e-01   3.1297737043431922e-01   6.7109526341805570e-01   3.5475055263551614e-01   0.0000000000000000e+00   0.0000000000000000e+00   1.8270873313862563e+00   1.8307051478976732e+00   0.0000000000000000e+00   1.8270873313862563e+00   1.8270873313862563e+00   1.8274240467617207e+00   0.0000000000000000e+00   0.0000000000000000e+00   1.8270873313862563e+00   1.8307051478976732e+00   0.0000000000000000e+00   1.8270873313862563e+00   1.8270873313862563e+00   1.8274240467617207e+00   4.2130387956099601e-02   7.7011136996915031e-01   2.1023235739412210e-02   1.0218966728277625e+00   7.7011136996915031e-01   4.4898883122203875e-01   2.1111826993115212e-02   7.5205636217208272e-01   1.8762921864259892e+00   1.8785482021595257e+00   2.1023235739411630e-02   2.1111826993115215e-02   2.1111826993115441e-02   7.5205636217208260e-01   1.8787878809097978e+00   1.8810100102243026e+00   2.1023235739411630e-02   2.1111826993115215e-02   1.8762921864259892e+00   1.8787878809097980e+00   1.8787878809097978e+00   1.8810100102243026e+00   2.1111826993115441e-02   7.5205636217208260e-01   4.2130387956099601e-02   7.7011136996915031e-01   2.1023235739412210e-02   1.0218966728277625e+00   7.7011136996915031e-01   4.4898883122203875e-01   2.1111826993115212e-02   7.5205636217208272e-01   1.8787878809097978e+00   1.8810100102243026e+00   2.0371907241005017e-03   2.0371907241005017e-03   1.8785482021595257e+00   1.8762921864259892e+00   2.0371907241003885e-03   1.8787878809097980e+00   2.0371907241006149e-03   2.0371907241006149e-03   1.8270873313862563e+00   1.8274240467617207e+00   1.8274240467617207e+00   1.8270873313862563e+00   1.8810100102243026e+00   1.8787878809097978e+00   7.1450742410879245e-02   4.4657174652853467e-02   3.5793537468256628e-02   3.5793537468256753e-02   3.5680017629338638e-02   3.5680017629338638e-02   3.5680017629338659e-02   7.1450742410879245e-02   1.6215929162210667e+00   1.7773880290040995e+00   3.5793537468256878e-02   3.5793537468256878e-02   3.5680017629339006e-02   3.5680017629339006e-02   1.7773880290040998e+00   1.7506896492069755e+00   5.8609421236689452e-01   1.0237171483454912e+00   3.0645676950706974e-01   1.1947890498289193e+00   1.0237171483454910e+00   5.3862206551920599e-01   2.9278437929212298e-01   5.8609421236689452e-01   5.5783676529041304e-01   8.2520771602152398e-01   3.0645676950706924e-01   3.0645676950706974e-01   2.9278437929212248e-01   2.9278437929212286e-01   8.2886914837713810e-01   1.0543096995743975e+00   6.1652002414594335e-02   3.0980522133809151e-02   3.0980522133809019e-02   5.2432835833268410e-01   3.0686132995405735e-02   3.0686132995406901e-02   3.0686132995406516e-02   6.1652002414594335e-02   1.7852821567906720e+00   1.8458160358524320e+00   3.0980522133809821e-02   3.0980522133809821e-02   3.0686132995406127e-02   3.0686132995406644e-02   1.8458160358524318e+00   1.8503014578160228e+00   1.5572926728850736e-01   5.2432835833268310e-01   1.7506896492069755e+00   1.7773880290040998e+00   1.7773880290040995e+00   1.6215929162210667e+00   5.2432835833268410e-01   5.2432835833268410e-01   1.5572926728850736e-01   1.5572926728850736e-01   3.7628021871770795e-01   1.5572926728850622e-01   5.2432835833268343e-01   5.2432835833268343e-01   5.2432835833268376e-01   5.2432835833268410e-01   3.5793537468256878e-02   3.5793537468256878e-02   1.6215929162210667e+00   1.7773880290041000e+00   1.7773880290040998e+00   1.7506896492069755e+00   3.5680017629339006e-02   3.5680017629339006e-02   7.1450742410879245e-02   4.4657174652853349e-02   3.5793537468256628e-02   3.5793537468256878e-02   3.5680017629338638e-02   3.5680017629338638e-02   3.5680017629338659e-02   7.1450742410879245e-02   3.0980522133809821e-02   3.0980522133809821e-02   1.7852821567906720e+00   1.8458160358524320e+00   1.8458160358524318e+00   1.8503014578160228e+00   3.0686132995406127e-02   3.0686132995406644e-02   6.1652002414594335e-02   3.0980522133809151e-02   3.0980522133809019e-02   5.2432835833268376e-01   3.0686132995405735e-02   3.0686132995406901e-02   3.0686132995406516e-02   6.1652002414594335e-02   3.0645676950706874e-01   3.0645676950706957e-01   5.5783676529041304e-01   8.2886914837713643e-01   8.2886914837713777e-01   1.0543096995743970e+00   2.9278437929212281e-01   2.9278437929212342e-01   5.8609421236689396e-01   1.0237171483454914e+00   3.0645676950706957e-01   1.1947890498289193e+00   1.0237171483454917e+00   5.3862206551920644e-01   2.9278437929212314e-01   5.8609421236689396e-01   1.5572926728850670e-01   1.5572926728850714e-01   3.7628021871770889e-01   1.5572926728850553e-01   5.2432835833268410e-01   5.2432835833268410e-01   5.2432835833268332e-01   5.2432835833268376e-01   1.7506896492069755e+00   1.7773880290040998e+00   1.5572926728850714e-01   5.2432835833268310e-01   5.2432835833268399e-01   5.2432835833268399e-01   1.7773880290041000e+00   1.6215929162210667e+00   6.2817154999300628e-01   1.8458160358524318e+00   3.3101015964887515e-01   1.8503014578160228e+00   1.8458160358524320e+00   1.7852821567906720e+00   3.1345569215971769e-01   6.2817154999300628e-01   4.4898883122203875e-01   7.7011136996915031e-01   3.3101015964887476e-01   3.3101015964887398e-01   3.1345569215971697e-01   3.1345569215971758e-01   7.7011136996915031e-01   1.0218966728277625e+00   8.2886914837713810e-01   1.0543096995743975e+00   4.4166712293914421e-03   4.4166712293891219e-03   8.2520771602152398e-01   5.5783676529041304e-01   4.4166712293914421e-03   8.2886914837713643e-01   4.4166712293892451e-03   4.4166712293902260e-03   1.6222387823853597e+00   1.5090458421846016e+00   1.6237469593521014e+00   1.5071404283795713e+00   1.0543096995743970e+00   8.2886914837713777e-01   4.4898883122203875e-01   7.7011136996915031e-01   3.3101015964887476e-01   3.3101015964887398e-01   3.1345569215971697e-01   3.1345569215971758e-01   7.7011136996915031e-01   1.0218966728277625e+00   3.3101015964887515e-01   1.8503014578160228e+00   6.2817154999300628e-01   1.8458160358524318e+00   3.1345569215971769e-01   6.2817154999300628e-01   1.8458160358524320e+00   1.7852821567906720e+00   2.9606182754181515e-01   2.9606182754181531e-01   2.9606182754181432e-01   2.9606182754181409e-01   2.9606182754181515e-01   2.9606182754181487e-01   2.9606182754181432e-01   2.9606182754181387e-01   1.6222387823853597e+00   1.5090458421846016e+00   2.9606182754181537e-01   2.9606182754181537e-01   1.5071404283795713e+00   1.6237469593521014e+00   2.9606182754181537e-01   2.9606182754181409e-01   4.0363069460937240e-12   4.0363069460937240e-12   4.0363069460937240e-12   4.0363069460937240e-12   4.0346010798649606e-12   4.0346010798649606e-12   4.0363069460937240e-12   4.0361932216784726e-12   3.3911023347465381e-02   3.3911023343429769e-02   4.0363069460937240e-12   4.0363069460937240e-12   3.3911023343429769e-02   3.3911023347465374e-02   4.0363069460937240e-12   4.0363069460937240e-12   1.6801841229727082e-02   8.9755772568365352e-02   1.6801841229727082e-02   1.6801841229727082e-02   8.9755772568365505e-02   8.9755772568365505e-02   8.9755772568367240e-02   8.9755772568367240e-02   7.2981446479555054e-02   1.6801841229726815e-02   1.6801841229728713e-02   4.1729658185105913e-02   8.9755772568365033e-02   8.9755772568365269e-02   8.9755772568365241e-02   8.9755772568365241e-02   9.8623123796836895e-02   5.1604190882901935e-01   1.7644788945535035e+00   1.7767931545886539e+00   1.7767931545886539e+00   1.6211963487944567e+00   5.1604190882901935e-01   5.1604190882901935e-01   4.2279822281705992e-01   9.8623123796836895e-02   9.8623123796836895e-02   9.8623123796836895e-02   5.1604190882901968e-01   5.1604190882901968e-01   5.1604190882902012e-01   5.1604190882902012e-01   4.3009200714499776e-02   8.9755772568365269e-02   8.4700854489199603e-02   4.3009200714499519e-02   4.1729658185105607e-02   8.4700854489199603e-02   4.1729658185104018e-02   4.1729658185105913e-02   1.6211963487944567e+00   1.7767931545886539e+00   4.3009200714499651e-02   4.3009200714499776e-02   4.1729658185105482e-02   4.1729658185105961e-02   1.7767931545886539e+00   1.7644788945535035e+00   2.6668346803776077e-01   4.5244637158233264e-02   4.5244637158233264e-02   4.4879377958407735e-01   2.2210882196036646e-01   2.2210882196036646e-01   2.2210882196036641e-01   2.6668346803776077e-01   4.5244637158234624e-02   2.2210882196036694e-01   4.5244637158233882e-02   4.5244637158233882e-02   2.2210882196036635e-01   2.2210882196036635e-01   2.2210882196036766e-01   2.2210882196036766e-01   3.1297737043432000e-01   5.1800979291458515e-01   3.1297737043432033e-01   3.1297737043432033e-01   5.1800979291458549e-01   7.9861810483656515e-01   5.1800979291458571e-01   5.1800979291458571e-01   7.9861810483656481e-01   4.7133022217275805e-01   3.1297737043432000e-01   8.7390946858854346e-01   5.1800979291458649e-01   5.1800979291458649e-01   5.1800979291458538e-01   7.9861810483656481e-01   2.1147118946429674e-01   6.5650349920430937e-02   6.5650349920430937e-02   2.2208497544199099e-01   1.4632871569873210e-01   1.4632871569873210e-01   1.4632871569873157e-01   2.1147118946429674e-01   6.5650349920433101e-02   1.4632871569873207e-01   6.5650349920431339e-02   6.5650349920431339e-02   1.4632871569873254e-01   1.4632871569873254e-01   1.4632871569873382e-01   1.4632871569873382e-01   5.1800979291458549e-01   4.7133022217275949e-01   4.7133022217275905e-01   4.7133022217275883e-01   4.4879377958407707e-01   4.4879377958407729e-01   4.7133022217275805e-01   8.7390946858854346e-01   4.7133022217275800e-01   4.7133022217275905e-01   8.7390946858854468e-01   4.7133022217275872e-01   4.4879377958407685e-01   8.7390946858854468e-01   4.4879377958407612e-01   4.4879377958407735e-01   4.4125519244002161e-02   1.9599461360640318e+00   2.2042136819114412e-02   1.9603199368162141e+00   1.9599461360640318e+00   1.9586719189596662e+00   2.2088753419768903e-02   4.4125519244002161e-02   2.2042136819113829e-02   2.2088753419769052e-02   1.8234036367222795e+00   1.8270873313862563e+00   1.8270873313862563e+00   1.8307051478976732e+00   2.2088753419768372e-02   2.2088753419769052e-02   6.5359181458998727e-01   1.9084003879351972e+00   3.4932357485785270e-01   1.9103314446330142e+00   1.9084003879351972e+00   1.8715293850720511e+00   3.2268680134779160e-01   6.5359181458998727e-01   3.4932357485785187e-01   3.4932357485785193e-01   4.3104270409750189e-01   7.5205636217208272e-01   7.5205636217208260e-01   1.0132685024302917e+00   3.2268680134779093e-01   3.2268680134779154e-01   1.9506731636105110e-01   1.6220656506620412e+00   1.0186081843452939e-01   1.6538276246953829e+00   1.6220656506620406e+00   1.5479258154872051e+00   9.3671805983623624e-02   1.9506731636105110e-01   1.0186081843452939e-01   1.0186081843452939e-01   1.5823631087657195e+00   1.6222387823853597e+00   1.6222387823853597e+00   1.6531097600616402e+00   9.3671805983623666e-02   9.3671805983623790e-02   9.5491545840710543e-03   1.6531097600616402e+00   1.9019316660488859e-02   1.6222387823853597e+00   9.4705920848504547e-03   1.9019316660488859e-02   1.6222387823853597e+00   1.5823631087657195e+00   1.9586719189596662e+00   1.9599461360640318e+00   9.5491545840709069e-03   9.5491545840710543e-03   9.4705920848504582e-03   9.4705920848506056e-03   1.9599461360640318e+00   1.9603199368162141e+00   2.7803355310217298e-01   2.7803355310217298e-01   4.9251567794109341e-01   2.7803355310217226e-01   2.2208497544199055e-01   4.9251567794109341e-01   2.2208497544198885e-01   2.2208497544199099e-01   6.9881812260113685e-01   1.1788593357933315e+00   2.7803355310217193e-01   2.7803355310217254e-01   2.2208497544199060e-01   2.2208497544199060e-01   1.1788593357933315e+00   1.3148829393504828e+00   1.0596740297252311e-01   7.9861810483656515e-01   2.0189120216839715e-01   3.1297737043431922e-01   9.6439603676695365e-02   2.0189120216839715e-01   3.1297737043431850e-01   9.6439603676696170e-02   1.5479258154872051e+00   1.6220656506620406e+00   1.0596740297252369e-01   1.0596740297252369e-01   9.6439603676695476e-02   9.6439603676695476e-02   1.6220656506620412e+00   1.6538276246953829e+00   2.2219420275321165e-02   1.0596353434211645e+00   4.4014065744393309e-02   7.9013958548145358e-01   2.1799975383339491e-02   4.4014065744393309e-02   7.9013958548145347e-01   3.3406789342287940e-01   1.8715293850720511e+00   1.9084003879351972e+00   2.2219420275321009e-02   2.2219420275321165e-02   2.1799975383339630e-02   2.1799975383339630e-02   1.9084003879351972e+00   1.9103314446330142e+00   7.7758600255443466e-01   1.1788593357933315e+00   4.6773903512810905e-01   1.3148829393504828e+00   1.1788593357933315e+00   6.9881812260113685e-01   3.4083831556225308e-01   7.7758600255443466e-01   4.6773903512810988e-01   4.6773903512810988e-01   4.6773903512810922e-01   7.9013958548145347e-01   7.9013958548145358e-01   1.0596353434211645e+00   3.4083831556225302e-01   3.4083831556225302e-01   4.0365343949242324e-12   4.0358520484327242e-12   4.0363069460937297e-12   4.0363069460937297e-12   4.0365343949242324e-12   4.0358520484327274e-12   4.0365343949242324e-12   4.0365343949242324e-12   4.0353971507717227e-12   4.0353971507717203e-12   4.0353971507717227e-12   4.0353971507717227e-12   4.0358520484327258e-12   4.0358520484327258e-12   4.0358520484327258e-12   4.0358520484327258e-12   1.7644788945535033e+00   1.7767931545886535e+00   9.8623123796837658e-02   5.1604190882902068e-01   5.1604190882901912e-01   5.1604190882902068e-01   1.7767931545886537e+00   1.6211963487944561e+00   9.8623123796837783e-02   9.8623123796836784e-02   4.2279822281705981e-01   9.8623123796836784e-02   5.1604190882901990e-01