<?xml version="1.0"?>
<VTKFile type="UnstructuredGrid"  version="0.1"  >
<UnstructuredGrid>
<Piece  NumberOfPoints="833" NumberOfCells="1536">
<Points>
<DataArray  type="Float64"  NumberOfComponents="3"  format="ascii">0.1495496114427624 -0.1495496114427624 0  1.287144439429404 -1.716192585905872 0  1.716192585905716 -1.287144439429287 0  0.2837720459405749 -0.5675440918811498 0  3.278179782504071 -3.278179782504071 0  0.5675440918811498 -0.2837720459405749 0  1.756932646787236 -7.027730587148944 0  3.898324400662581 -5.847486600993871 0  5.847486600993853 -3.898324400662569 0  7.027730587148944 -1.756932646787236 0  -0.1495496114427624 -0.1495496114427624 0  5.656854249492382 6.280369834735103e-16 0  -7.027730587148944 -1.756932646787237 0  -0.5675440918811498 -0.2837720459405749 0  -1.716192585905716 -1.287144439429287 0  -1.287144439429287 -1.716192585905716 0  -0.2837720459405749 -0.5675440918811498 0  -1.756932646787236 -7.027730587148944 0  0 5.656854249492382 0  0.2922068412242178 -0.8766205236726532 0  0.1910394894585253 -0.1910394894585253 0  0.8766205236725884 -0.2922068412241961 0  -5.656854249492382 0 0  -3.278179782504071 -3.278179782504071 0  23.83793724888972 0 0  -0.8766205236725884 -0.2922068412241961 0  -5.847486600993853 -3.898324400662569 0  -3.898324400662569 -5.847486600993853 0  -0.2922068412241961 -0.8766205236725884 0  0 23.83793724888972 0  1.671770658765338 -3.343541317530675 0  3.343541317530675 -1.671770658765338 0  -23.83793724888972 0 0  7.027730587148944 1.756932646787236 0  -0.1910394894585253 -0.1910394894585253 0  181.019335983452 0 0  -3.343541317530675 -1.671770658765338 0  -1.671770658765338 -3.343541317530675 0  0 181.019335983452 0  0.1068812197939318 -0.1068812197939318 0  -181.019335983452 0 0  0.8766205236726532 0.2922068412242178 0  0.5675440918811498 0.2837720459405749 0  -0.1068812197939318 -0.1068812197939318 0  5792.61875148012 0 0  0 5792.61875148012 0  1.716192585905872 1.287144439429404 0  -5792.61875148012 0 0  3.343541317530675 1.671770658765338 0  5.847486600993871 3.898324400662581 0  0.1495496114427583 0.1495496114427583 0  0 0 0  3.278179782504071 3.278179782504071 0  0.1068812197939318 0.1068812197939318 0  0.1910394894585253 0.1910394894585253 0  1.287144439429287 1.716192585905716 0  0 -5792.61875148012 0  3.898324400662531 5.847486600993797 0  1.671770658765331 3.343541317530662 0  0.2837720459392363 0.5675440918784725 0  0 -181.019335983452 0  0.2922068412241961 0.8766205236725884 0  1.756932646787229 7.027730587148919 0  0 -23.83793724888972 0  0 -5.656854249492387 0  0.7183470254360832 -0.9328710986743172 0  0.9328710986742393 -0.7183470254360248 0  1.50166851266756 -1.50166851266758 0  0.7854582426849894 -1.141868338893511 0  2.282662110966737 -2.497186184204971 0  2.497186184204893 -2.282662110966679 0  1.141868338893433 -0.785458242684931 0  1.780975914222323 -1.92286193719261 0  1.020352346363905 -3.797637339515047 0  2.091048223301578 -3.20751534643751 0  1.92286193719261 -1.780975914222323 0  3.588252091583326 -4.562833191748971 0  4.562833191748962 -3.588252091583319 0  3.207515346437501 -2.091048223301572 0  3.797637339515047 -1.020352346363905 0  2.827628523724908 -6.437608594071407 0  0.878466323393618 -0.6854381688282807 0  1.024569744005727 -3.952175555410799 0  4.872905500828216 -4.872905500828219 0  2.095265620943399 -3.362053562333262 0  2.044681945060553 -3.019263045226198 0  6.437608594071398 -2.827628523724902 0  3.019263045226189 -2.044681945060547 0  3.36205356233322 -2.095265620943382 0  3.952175555410766 -1.024569744005716 0  0.6854381688282807 -0.878466323393618 0  -0.9328710986742393 -0.7183470254360248 0  -0.7183470254360248 -0.9328710986742393 0  -1.713864696973416 -1.713864696973416 0  -0.6854381688282807 -0.8784663233936181 0  14.74739574919105 3.140184917367551e-16 0  -3.797637339515047 -1.020352346363906 0  8.405103330870388 -0.8784663233936184 0  -3.952175555410766 -1.024569744005716 0  -1.141868338893433 -0.785458242684931 0  -0.7220823077768691 -0.2879894435823855 0  -3.207515346437501 -2.091048223301572 0  -2.497186184204893 -2.282662110966679 0  -3.781839593449785 -2.592734420045928 0  -0.785458242684931 -1.141868338893433 0  -2.282662110966679 -2.497186184204893 0  -2.592734420045928 -3.781839593449785 0  -1.020352346363905 -3.797637339515047 0  -2.091048223301572 -3.207515346437501 0  -0.2879894435823855 -0.7220823077768691 0  -0.878466323393618 -0.6854381688282807 0  -1.024569744005716 -3.952175555410766 0  -0.878466323393618 8.405103330870388 0  0.1461034206121089 2.390116862909864 0  0 14.74739574919105 0  0.2416231653413715 -0.5338300065655892 0  0.1461034206121089 11.48065836260853 0  0.9819887499947777 -2.110080920601664 0  0.5338300065655568 -0.2416231653413607 0  0.9314050741119314 -1.7672904034946 0  1.7672904034946 -0.9314050741119314 0  -2.390116862909897 -0.1461034206120981 0  2.110080920601632 -0.9819887499947668 0  -11.48065836260857 -0.1461034206120981 0  -14.74739574919105 0 0  0.6854381688282807 0.8784663233936182 0  -4.562833191748962 -3.588252091583319 0  -3.588252091583319 -4.562833191748962 0  -1.734609635981298 -1.734609635981298 0  11.48065836260857 -0.1461034206120981 0  102.4286366161709 0 0  -3.36205356233322 -2.095265620943382 0  90.07135772988971 -0.1461034206120981 0  -2.110080920601632 -0.9819887499947668 0  -3.019263045226189 -2.044681945060547 0  -4.595513959262264 -2.785047529713953 0  -2.095265620943382 -3.36205356233322 0  -2.044681945060547 -3.019263045226189 0  -2.785047529713953 -4.595513959262264 0  -0.1461034206120981 11.48065836260857 0  -0.9819887499947668 -2.110080920601632 0  -0.1461034206120981 90.07135772988971 0  0.8358853293826688 10.24719796567952 0  0 102.4286366161709 0  2.507655988148006 -2.507655988148006 0  0.8358853293826688 88.83789733296067 0  0.8893259392796347 -1.725211268662304 0  -10.24719796567952 -0.8358853293826688 0  1.725211268662304 -0.8893259392796347 0  -88.83789733296067 -0.8358853293826688 0  -8.405103330870388 0.8784663233936182 0  -102.4286366161709 0 0  -11.48065836260853 0.1461034206121089 0  3.952175555410799 1.024569744005727 0  3.797637339515047 1.020352346363906 0  -1.7672904034946 -0.9314050741119314 0  -0.9314050741119314 -1.7672904034946 0  -0.1489603546262285 -0.1489603546262285 0  88.83789733296067 -0.8358853293826688 0  2986.819043731786 0 0  -1.725211268662304 -0.8893259392796347 0  2894.637605081295 -0.8358853293826688 0  -0.8358853293826688 88.83789733296067 0  -0.8893259392796347 -1.725211268662304 0  -0.8358853293826688 2894.637605081295 0  0.05344060989696589 90.45622738182904 0  0 2986.819043731786 0  -90.45622738182904 -0.05344060989696589 0  0.05344060989696589 2896.255935130163 0  -2896.255935130163 -0.05344060989696589 0  -90.07135772988968 0.1461034206121089 0  -2986.819043731786 0 0  -88.83789733296067 0.8358853293826688 0  0.7220823077769015 0.2879894435823964 0  2.110080920601664 0.9819887499947777 0  3.362053562333262 2.095265620943399 0  1.141868338893511 0.7854582426849894 0  3.20751534643751 2.091048223301578 0  2896.255935130163 -0.05344060989696589 0  -0.05344060989696589 2896.255935130163 0  -0.05344060989696589 -0.05344060989696589 0  2896.30937574006 0 0  -2896.30937574006 2896.30937574006 0  0 2896.30937574006 0  3.781839593449871 2.592734420045992 0  0.9328710986743152 0.7183470254360812 0  2.497186184204971 2.282662110966737 0  -2894.637605081295 0.8358853293826688 0  -2896.30937574006 0 0  -2896.255935130163 0.05344060989696589 0  4.595513959262273 2.785047529713959 0  1.725211268662304 0.8893259392796347 0  1.7672904034946 0.9314050741119314 0  4.562833191748971 3.588252091583326 0  3.019263045226198 2.044681945060553 0  1.713864696973414 1.713864696973414 0  0.7183470254360227 0.9328710986742373 0  0.05344060989696589 0.05344060989696589 0  0 -2896.30937574006 0  1.734609635981298 1.734609635981298 0  2.282662110966679 2.497186184204893 0  3.588252091583301 4.562833191748934 0  0.1489603546262285 0.1489603546262285 0  0.05344060989696589 -2896.255935130163 0  0.8893259392796314 1.725211268662297 0  2.044681945060528 3.019263045226161 0  0.9314050741119282 1.767290403494594 0  2.592734420045909 3.781839593449757 0  0.7854582426842617 1.141868338892094 0  0.8358853293826656 -2894.637605081295 0  0 -2986.819043731786 0  2.785047529713931 4.595513959262229 0  2.091048223300884 3.207515346436135 0  2.095265620943364 3.362053562333193 0  0.8358853293826656 -88.83789733296068 0  0.9819887499947636 2.110080920601625 0  0.2879894435817162 0.7220823077755305 0  1.020352346363233 3.797637339513696 0  0.1461034206120981 -90.07135772988971 0  0 -102.4286366161709 0  1.024569744005713 3.952175555410753 0  0.1461034206120981 -11.48065836260857 0  0.8784663233936145 -8.4051033308704 0  0.8784663233936145 0.685438168828266 0  0 -14.74739574919105 0  0.4339483184394228 -0.5412103550585398 0  0.5412103550585008 -0.4339483184393936 0  1.002745732432744 -1.324531842290094 0  1.394406476048482 -1.608930549286726 0  1.036301341057197 -1.429030462399691 0  1.784903275198071 -2.106689385055422 0  1.892165311817149 -1.999427348436275 0  1.534060176825863 -1.819527261549241 0  1.2172698056709 -1.110007769051802 0  1.324531842289978 -1.002745732432656 0  1.608930549286638 -1.394406476048433 0  2.106689385055305 -1.784903275197983 0  1.429030462399575 -1.036301341057109 0  1.819527261549163 -1.534060176825805 0  0.5346151443127822 -0.8547062153873304 0  1.032373980081449 -1.24520301453688 0  0.6520621961522401 -2.182590715698098 0  1.187410134621076 -1.88752971915933 0  2.780420946735404 -2.887682983354521 0  2.887682983354482 -2.780420946735375 0  2.529577848363197 -2.60052085984834 0  2.684614002902824 -3.24284756447079 0  2.60052085984834 -2.529577848363197 0  3.433215937043698 -3.920506487126521 0  3.920506487126517 -3.433215937043695 0  3.242847564470786 -2.684614002902821 0  0.8547062153872914 -0.5346151443127529 0  1.24520301453688 -1.032373980081449 0  1.887529719159326 -1.187410134621073 0  2.182590715698098 -0.65206
[...]
<PointData  Scalars="u"> 
<DataArray  type="Float64"  Name="u"  format="ascii">-1.8571773968624453e-01  -2.9563119284794848e-01  -2.5525756407269939e-01  2.0638313665747160e-01  -1.0940952110420950e+00  3.8020669872098950e-01  5.3221566705781465e-01  -9.6699277852171872e-01  -1.7056391491911991e+00  2.8084103623707231e+00  1.9900690773828369e-01  -1.0141455528572072e+00  -3.2162090952585314e+00  -2.0714386638739660e-02  1.4164646548296616e+00  1.4565181186799186e-01  3.5795927346653555e-01  -4.1575381329323396e-01  -6.2721917064031176e+00  2.7644032009317265e+00  1.0353208343455620e+01  1.7623962445804886e+00  -5.6935853001812964e+00  4.0773876119530550e-01  -2.8251816069504143e-01  -6.0957680938029368e-01  3.5756147554181550e-01  4.7595391877189663e-01  1.2860161723739940e+00  3.8468001101778651e+00  1.1314113262406904e+01  1.2378728733323655e+01  3.6169338900725192e+00  -4.1403489276079097e-01  -4.4273591197750478e-01  5.6177459180276968e-04  -4.7651350941717502e-01  8.5365895459660612e-01  -1.6585430522261493e+00  -3.7397034541505354e+00  -1.2577526288444230e+00  1.1292769765116133e+00  3.3628909458530420e-01  3.1820684260985954e-01  -4.1589943468199580e-05  1.6851703279986054e+00  2.0540928041179765e-01  1.6867490009726411e+00  7.2186859004806314e-01  3.9159534502081811e-01  1.9910823541275921e-01  7.8186230082598021e-02  3.5262412604873639e-01  2.6725211756535283e-01  -3.7891526374134843e-01  1.3917179356121692e+00  -2.9606285621064873e-05  2.8741355499965837e-01  -5.0534424938081779e-01  7.7116055283130442e-03  -8.9960984965074128e-05  -6.7098208492176503e-01  -2.9793400344134131e+00  7.4677545223667836e-03  -8.4306917288670305e-02  -4.7294011880122633e-01  -6.4215046600403114e-01  -4.4587573910130074e-01  -5.2770392647283715e-01  -6.9370217421554847e-01  -8.0473157715668431e-01  -7.6882768421843861e-01  -3.2969720716702633e-01  -4.4047035585507188e-01  -6.8787760317293611e-01  -5.2685481148033375e-01  -1.0506598587631424e+00  -1.4705073139964504e+00  -1.3271965131184860e+00  -1.9129417059461806e+00  7.5524901499816810e-01  -1.2714784975833379e-01  7.8412078833046561e-01  -1.2891182274980255e+00  9.2215482636363699e-01  7.2222048183322285e-01  2.1894626669932808e+00  1.0212117246241545e+00  1.3475045560475050e+00  1.9417415706459304e+00  -8.0485977351584484e-02  6.4735685243686669e-01  4.8896287496277019e-01  7.7829542084413172e-01  8.9849300171061693e-03  -9.9477695259987398e-01  1.8323331347283272e+00  7.1603187412800162e-01  -1.8768228096943733e+00  5.1675712694021025e-01  -3.2493414203281834e-01  2.5119298012112956e-01  6.2761236379790464e-01  2.4661834781463704e-01  7.1111623758211717e-01  4.6561287755329817e-01  6.4240755937179805e-01  6.8201033655573584e-01  9.0732993117958094e-01  2.5498920363240918e-01  2.6261583928951455e+00  -5.0533042923422766e-01  4.3010563457973200e-01  -4.9206938353492227e+00  -6.0278472312457136e+00  8.8998132781185735e+00  -2.0623296236319824e+01  3.9116879473738519e+00  8.8108555993930011e+00  -7.0177027646147554e+00  -8.3493025261437008e+00  -4.6049834136150265e+00  4.1669601020396438e+00  -1.8861813227676869e+01  -4.7971588303992002e-01  2.5292235370251168e+00  3.2896496067545222e-01  5.2074790285644479e-01  -3.6687889459493417e-01  -4.6325358525173811e-02  7.6001166670990198e-03  3.6708222406193286e-01  -2.3645522502509170e-03  3.5229598705254919e+00  -2.3422826831949292e-01  2.8724287838070939e-01  6.8138261306094638e-01  -5.3242968579886329e-01  5.6934468919783732e-01  1.4618886705634365e-01  -2.5302472760775183e+00  -2.4103135136168365e+00  -9.8742277259722275e+00  -1.4551054260932281e+00  5.8464181190953877e+00  3.8211867625222690e-01  9.9069105531835593e+00  3.8966418115685961e+00  7.1407595924290996e+00  1.8968385172183291e+00  1.1151215439452573e-01  -1.5058978591394736e+00  -1.2569032070815631e-01  1.1314524859857322e-02  6.7804043684335069e-01  -3.1186374932349281e-01  -4.1053493211958092e-01  -4.8585948175585392e-01  -4.5207744306511406e-03  -2.2533663769550558e-03  3.1800771262936883e-01  2.2046296811569104e-03  -1.7439383426383703e+00  5.2068095081905930e-01  1.6237251917896547e+00  2.8390278409975114e+00  -1.6476209538235831e+00  1.9705265806319627e+00  1.7637619581271000e+00  1.7646239874142604e+00  -1.8348462159600003e+00  -1.6229386473460747e+00  -1.3950802232801434e+00  4.1538600650033441e-01  -9.8285343188141416e-01  5.8113816510437766e-01  6.8350567027387876e-01  7.8056368019840583e-01  1.4236104097559081e-03  1.6366652526820964e+00  2.3827460732058872e-01  3.8141103321896947e-04  1.6887488487990912e+00  1.6566608253171904e+00  5.8059798198974788e-01  4.8978542964582195e-01  4.8427635020380666e-01  1.6105352057030211e+00  1.6470956880132055e+00  1.6288820249008622e+00  4.7354700075802258e-01  3.6373998337126895e-01  -3.6307728112712417e-01  4.3283165951915781e-01  -4.3616169628886381e-01  7.9555668972235549e-01  6.5060117754043523e-01  1.6692366298635575e-01  4.0779952778898258e-04  -2.9481076167124004e-01  5.6128427927345359e-01  2.5961012382080090e-01  -4.1522303655925441e-01  1.0617383669201982e-03  2.4617411435252848e-01  -1.7457728074170775e-01  -2.3877838914973004e-01  4.7794052539631440e-02  5.1480325293038376e-01  1.2857741473444827e-03  -5.1022151946692319e-04  2.4625880030907907e-01  1.9287497080427007e-01  3.3523858871731393e-01  -8.5638005018507143e-02  3.2164260446114721e+00  -7.1098298805306076e-02  1.9080307832787768e+00  -9.6732334206168155e-03  -4.0980643559951178e-04  -1.9311818542742296e+00  2.6510005169213934e-02  3.7110596760974064e-02  4.2517152238079670e-01  1.0321688044979323e-01  -3.4470416196155379e-01  -4.4631653346656464e-01  -6.6337932315411563e-01  -4.3730921677349843e-01  -6.0431901071898375e-01  -4.1895665560386680e-01  -4.1715560051599165e-01  1.9060771213360675e-01  -7.6930011133308951e-01  -8.2882482866828122e-01  -4.4919103788656090e-01  -4.9202699570337138e-01  -8.5393120325641525e-01  3.0581763261505840e-01  -4.3508706558862592e-01  3.8399122876818292e-01  -3.9515524726983542e-01  -1.6780201955103574e-01  -8.8932820466357310e-01  -9.7778484694210677e-01  -7.5766753726956737e-01  -8.7526216934720058e-01  -8.7446769529566182e-01  -1.0771107568821585e+00  -1.3005675523588369e+00  -1.2052920163983116e+00  -8.3431762449643165e-01  5.2465349687205287e-01  -6.3755536601975171e-01  -1.2850647358309146e+00  -5.4165521357751001e-01  6.5856620769983076e-01  -5.8795549594650109e-01  5.7637643124901627e-01  -7.7251558094748618e-01  -9.1487372027298852e-01  -1.0111058054338300e+00  8.6149250853391623e-01  8.2468371619543501e-01  -1.1147693238763781e+00  9.5309285884552708e-01  1.0149674712142072e+00  -1.5978451492277939e+00  -1.6103275093836509e+00  -1.8611876401539507e+00  -1.4882633556182567e+00  1.3494857253892778e+00  1.9234751448761358e+00  1.5619515995347484e+00  1.6111551809946900e+00  1.8106895008327322e+00  -2.4548010062127417e+00  2.4943130307829628e+00  2.3220653655747903e+00  -2.4312683246570819e+00  4.6683275865543955e-01  3.1925925589876020e-01  6.4267978999960118e-01  -1.4758943997659693e+00  2.5354700624975433e+00  -1.6242271488230636e-01  1.4631416413762717e+00  2.3859544126722101e+00  2.0015899045831831e-01  -2.0443820927507694e+00  1.3826094606448325e+00  8.9991780549114248e-02  -3.0726788325107945e-01  1.2005898190448827e+00  8.0400471836052323e-01  9.4496149410660779e-01  2.3671506496894257e-01  1.7796716180031924e+00  4.7311960057570729e-01  3.7110758780958075e-01  5.9448085537297102e-01  5.7134355126464353e-01  1.2687031889522937e+00  8.7016885096415231e-01  6.7001060210766139e-01  -5.1913204790698952e-01  8.4997447889851041e-01  4.2333044799537384e-01  7.7121596045485263e-01  5.6763716475510906e-01  5.3012377224476248e-01  7.8889190448067681e-01  -8.0670272874146498e-01  -4.7799814262480655e-01  3.6548149006188289e+00  3.8977497825868319e+00  -1.1284052809357819e+01  -1.0747750261593680e+01  -3.0699739424467420e+00  -6.7423638476766468e-01  1.5109513770000489e+00  9.1465052912586675e-01  -4.6381136387893007e-01  -2.2750141204485871e-01  -2.4691041590500351e+00  1.0472572727237729e+01  -1.9996827434258340e+00  -1.0635157824906738e+01  5.9027954255401660e-01  -9.4024784423406693e+00  2.7373434058373175e-01  3.1642217796761007e-01  5.6289212699755424e+00  6.2642435655006699e+00  2.4875480214638737e+00  3.4320402571916930e+00  -1.1733132250308764e+00  -1.3524008589456282e-01  9.8397530980697112e-01  1.5131318066569919e+00  1.0136005633404398e+01  -1.3448961942930739e+01  -2.3365108156764354e+00  -9.7373096723492996e+00  -1.6116097079064982e+00  -1.8545519594113584e+00  3.6410458006156987e+00  -1.0024952285961593e+01  9.3139844722069465e-01  9.8993398118692646e+00  3.8043615211008204e+00  -1.0326637939464431e+01  5.4783660719073113e-01  4.4680608329286819e-01  3.2620199531770860e-01  5.1363341477345847e-01  5.4763952326770393e-01  3.3583955183865283e-01  5.1198736958324176e-01  -3.8436109224790072e-01  -3.4312704483391349e-01  -4.5980199821001988e-01  2.0927998875874088e-01  5.6012190624925594e-02  -8.6487564604005931e-02  1.2519321790545990e-02  2.2014117048234805e-02  1.2240332672310343e+00  6.4529297144226505e-01  -1.3678251214474937e+00  -6.3082971063208593e-01  2.1498766745664786e+00  4.2915434023780247e-01  2.4904457169868226e+00  7.9213488905402640e-02  4.5336320285819243e-01  8.1482436373959521e-02  3.4020082365510551e-01  3.4312775982851262e-01  3.2569083843164276e-01  3.3479932048242894e-01  -2.9876997671273625e-01  3.0448572486881581e-01  4.9527973233500872e-01  5.0088036493251376e-01  5.2223241001995557e-01  4.9931335146430972e-01  -5.6353232340550186e-01  5.6051380833661169e-01  4.0328017830836205e-01  4.5071040494469167e-01  7.7979872536424577e-01  2.4652706019950413e-01  9.0568604033988220e-01  -1.0122424937408667e+00  1.5302693667000378e+00  7.0557473216172129e-01  -9.9765527948686006e-01  -4.7444393100942839e-01  3.4703579068846722e+00  -5.2775356911582492e+00  1.0916973018486197e-01  4.4054001029946850e+00  -3.5279531875785839e+00  -1.3830013785535359e+01  -1.8824862352023503e-01  -2.9628754511653868e+00  4.9753806513585470e+00  -2.8802715432935018e+00  -3.6156829004676960e+00  -3.7723453213823532e+00  7.1155669115618503e+00  -7.4383345463529282e-01  1.7563501161761717e+01  3.7500342724526350e+00  -1.9658336024266225e+00  5.0527569657858944e+00  6.8503416035503948e+00  -2.7965340679292372e+00  1.4116899558207303e+01  4.3927596161648816e+00  2.4113598412126841e-01  -4.8143906865024375e+00  -1.2680234331969780e+01  -5.3637383819142750e+00  2.9842330664867847e+00  -4.1669905253783925e+00  3.9746186927511125e+00  -3.5448172523343220e+00  7.8344965949076428e-01  -4.2824449602765152e-01  -8.0225747990941609e-01  4.9412253564261915e-01  -4.0483291231467522e-01  -3.4281277960052386e-01  -3.7976087798331171e-01  -3.7123323643879769e-01  -4.7546573734958514e-01  -4.8419214140980182e-01  -3.5317614199639030e-01  -4.9758270731820931e-01  -1.0275969693193101e-03  -1.5400917837091487e-03  7.5313872979981640e-03  -3.0516435281824354e-03  -9.8228891616498754e-03  -9.2545448946260211e-02  4.5745679028811315e-01  -1.5933724899504836e-01  2.9479118813387495e-01  -2.6581726726908556e-01  9.4642672163460395e-02  2.1124769021141770e-01  7.6861079812265204e-03  6.9683663080787883e-01  -5.9459278593297826e-01  5.4092451920371154e-01  1.0932938658498406e+00  -4.4629443341348485e-01  -2.2529749640465732e-01  5.1832599603101248e-01  2.1104376211402700e+00  -1.2934005534667044e+00  -1.4307216556530973e+00  1.4453399934503548e+00  -8.6552732520308051e-01  -1.7862466433405702e+00  1.4288672349075973e+00  -1.8922440011268638e+00  -1.6827248342734757e+00  2.8859593709888487e+00  1.1412510906414676e+01  -1.2821342665844433e+00  1.1640870463248523e+00  2.5980650990247267e+00  3.5558122237853409e+00  1.4230910538294101e+00  1.4214543011472625e+00  1.5094373237566985e+00  -1.4295002967857653e+00  1.4839154930369189e+00  -1.8990532478371480e+00  -1.3573321177063624e+00  -2.0365648488633674e+00  -9.0146908373883106e-01  -2.0119417922452469e+00  7.7233054597587592e-01  1.2906180508667322e+00  1.8172982624428799e-01  4.0850243050553053e-01  -9.2752535070708841e-01  -5.8591216103223343e-01  6.8763700358581925e-01  6.1177825327023094e-01  -2.3963825608877951e-01  4.3626206961217823e-01  4.2876493824874179e-01  5.1201102005423660e-01  7.8380693037848237e-01  4.4497250339772665e-01  -5.0059197486589690e-01  3.5809817735147276e-01  -3.2047707259618069e-01  4.1523888546038645e-01  2.6421780910296415e+00  3.1779691108670847e-03  2.0092901667043495e+00  2.8219766599254492e-01  -3.3778310016127706e-05  1.8443654073009641e-05  3.1797879039472527e-05  2.2936124892204914e-05  1.6953116313501924e+00  -1.6954801820443539e+00  1.6796680025428341e+00  1.6953205838752428e+00  1.6869943571000614e+00  1.6931266045393059e+00  1.1760235008322522e+00  -4.6814741013517264e-01  2.9320485025948903e-02  5.9365524080481835e-01  8.0000607254222644e-01  5.7289507644428139e-01  1.6833311131459947e+00  -1.6993157094808704e+00  1.6887266829740408e+00  1.6986225708035945e+00  1.6957944078198055e+00  1.6986305819793144e+00  -2.1289421148951075e+00  1.0202461632066471e+00  5.9089647439814597e-01  2.8609668498539671e+00  4.4988019080737657e-01  4.2025582087173491e-01  -3.0894640185759442e-01  -4.9107540853626158e-01  4.0878257417981445e-01  5.5189388325249500e-01  4.0825581523037863e-01  4.7207004642804196e-01  4.3400687472192551e-01  -4.4969136838651003e-01  3.2082941302135748e-01  6.0592202388625582e-01  4.6481042003223139e-01  2.0622802495714088e-03  1.9595377168447305e+00  1.5831848523413616e-01  5.9048697829049222e-04  1.8958805655655222e+00  1.8761501908035367e+00  1.9658857453852450e+00  1.3398243698637230e-01  -3.3654539399862009e-02  6.7731250161352167e-04  4.5813863709801311e-01  4.3398926852189795e-01  4.2350574274035790e-01  -3.7388352926252827e-01  4.7734199636518981e-01  -3.0170431799589426e-01  3.7184860954832483e-01  2.6207706597955072e-01  -2.6457392472055413e-01  2.5331260875382272e-01  2.6633632850249298e+00  2.0191825706869255e+00  3.7326862744790906e-01  2.3360633563968863e-01  -4.2802078458775494e-01  -2.6662214373109883e-01  2.8760337479242487e-01  -2.6602809636685498e-01  -4.3659853168024976e-01  -4.1595710024365812e-01  -3.2645066559941860e-01  -3.4077702052113618e-01  -4.1394309773650667e-01  -2.8882379762877886e-01  -2.7298743418440974e-01  -3.0473410908690196e-01  9.2934153868072100e-01  8.0445288838993279e-01  4.2109380882794190e-01  2.9025276226532948e-01  2.1285563455334683e-01  1.7330245630049332e+00  1.6218209747701988e-05  2.3243381207843799e-05  -1.2820625860567238e-03  -2.7960729529200230e-05  2.5474920543274382e-01  -2.2717572711582654e-01  2.7029473886491373e-01  2.3509395597763597e-01  2.6837696027086233e-01  1.7106888649625746e-01  1.3060768318477900e-01  -8.5148836781406265e-02  -1.8046167473907149e-01  3.5952272599405772e-03  2.6985191631340943e-01  -1.3933536096258303e-01  8.9185659640730175e-01  4.0634426132678647e-01  8.3292900229044106e-02  1.0113344350143545e+00  -2.9311889556715592e-01  1.3370528629576279e+00  -2.3160339236820968e-03  -2.8008316429521256e-04  5.2039889863823158e-04  4.3755682744042295e-04  -2.4786330004363390e-04  2.0265365180623429e+00  2.3669293497418042e+00  9.3117267220402145e-02  3.0030673766116012e-01  -6.3144743348652577e-01  1.4561568760935182e+00  6.2126660810696191e-02  -1.3766020090217252e+00  4.5284113794557485e-01  7.1575552843713572e-02  2.4103510704936193e+00  -2.3676810183520565e+00  1.1817039624839372e-01  1.7276340796536456e+00  1.7104799672731347e-02  5.0216116104056839e-03  -6.7932041050229519e-03  3.9821941409643992e-02  3.5177736297611313e-03  2.6552640155470243e-02  6.1837482378280802e-02  1.1224834290251735e-02  -5.5540335809550989e-01  -6.7349788071861838e-01  -4.5061073374964428e-01  -1.7844203173559614e-01  -7.3863871187744157e-01  5.9658153555001847e-01  7.0954269267582404e-01  -9.1266033838321575e-02  -5.2734146676227633e-01  -5.5222903703831039e-01  -6.4231374441410405e-01  -8.9708697323822806e-01  -9.3558075176261368e-01  -1.2435834555482388e+00  -1.1793846905201033e+00  -1.4057572947851993e+00  -1.3776955122055865e+00  -1.6004071745083490e+00  -2.1351834292245520e+00  7.0691061581113079e-01  -1.7431551566444578e-01  8.8958279516574909e-02  7.5586732658515599e-01  1.1279712675504552e+00  7.6715289589762470e-01  9.2011384599228119e-01  -8.2708537096948065e-01  2.0736387809359349e+00  1.1832729287542081e+00  -5.7842331164154415e-01  1.5941470619978868e+00  -8.0569072038976808e-01  2.1825396614600304e-01  7.1285553828882742e-01  7.0274089252620575e-01  5.9340055047124363e-01  6.8788408492402064e-01  -7.9152154446902212e-01  -6.2692994467763150e-02  1.8560175133910981e+00  1.1191695622503897e+00  4.5715679430147388e-01  1.7562859553450827e-02  1.6216748237319354e+00  1.9687233058530365e+00  1.8787634199006004e-01  2.6173255842662102e-01  3.8870864263923988e-01  3.3210174207557708e-01  -2.2982958088002847e-01  5.7878034686640900e-01  7.1779625615187759e-01  5.0554037628298409e-01  5.9283451617997118e-01  5.3861725478410383e-01  -4.0971135449206419e-01  6.2497890233709041e-01  5.1828517282399389e-01  -1.1507056827645512e+00  -2.1671745925330579e-01  1.0880036599309476e-01  3.3202929214516415e+00  5.4440163592583026e+00  2.6580370680214704e+00  -1.4031253575920046e+00  -7.5347596775198076e+00  -8.7948135337834152e+00  2.3466548944867123e+00  -5.3746651624962727e+00  -7.5689591652364152e+00  -4.6426398735955070e+00  3.2644853832439051e+00  -7.7161891212907161e+00  5.3976036496858510e+00  -8.8259122917924204e-01  6.0167848197856810e-02  6.1761465152631290e-01  -3.1301989031819766e-01  -5.1777831356392989e-01  -3.1798405916041295e-01  -4.2764862166130796e-01  7.3695153800965127e-02  3.4951354472782391e-03  -3.0638139767333022e-01  4.0433319064540646e-01  -5.2549975779314249e-03  1.0850094754641369e-01  -2.7518364649270327e-01  -2.9261431212522560e-01  4.1791452148110925e-01  1.5210578503345362e+00  -5.4260549595575291e-01  -4.3883979646478827e-01  -2.6160883731017337e-01  -3.2077514005007268e-01  -2.2209408188018407e+00  -2.2511091906933469e+00  -3.9817205849988104e+00  -2.8511456429818578e+00  4.2606910411404284e+00  3.4042803170885350e+00  3.0632156834209123e+00  5.0967431142053004e+00  -4.4487048262242173e+00  4.4679376311848644e+00  -2.0977670157428112e+00  2.1142826068654008e+00  -1.0989428356436434e-01  -1.1758444726377664e+00  -1.7172822745562584e+00  -4.3057732907924745e-01  5.3507873221165103e-01  5.9686867243667552e-01  -3.0169184028943946e-01  -4.2594608458639543e-01  -3.6408984924086746e-01  -4.8536524567266531e-01  -9.7260385297196564e-03  -2.5075829923540795e-03  7.4989887649428242e-03  2.1905036539574588e-03  -2.1111285190958631e+00  2.1089524116755336e+00  -1.6220540015731981e+00  1.6237647504137238e+00  -1.6822223894465165e+00  -1.6811117816644550e+00  -1.7088118861719030e+00  1.5563277355333542e+00  1.6606404998934432e+00  -1.6713650773776665e+00  1.6591077777227714e+00  -1.7159648726309975e+00  -1.6068893524752117e+00  -4.0698507189234034e-01  -2.1229819762739481e+00  -3.0849838209443742e-01  1.3404420481168886e+00  5.3327157335996456e-01  3.4143715445673489e-01  -1.5987104907052696e-01  6.1145063662645649e-01  2.7374922697107023e-03  1.1032977945236800e-03  1.9952289572997395e+00  1.6436417451153016e+00  -1.7079915487939659e+00  -1.7096421818233360e+00  -1.7809143754206362e+00  4.9912513303929623e-01  4.1642886526743123e-01  6.9665897695494639e-01  6.3920105251188097e-01  1.6106134079114318e+00  2.1245408721912629e+00  1.6380935704161588e+00  1.9934592362041799e+00  -4.4907388195355696e-01  -3.7098506269553361e-01  -4.2699596951177005e-01  -3.6019828372337870e-01  -4.2709853594908692e-01  -3.4685808285831615e-01  7.1411242398796693e-01  5.5019268302524860e-01  1.0000395798022488e-03  6.4175960726354988e-04  -2.4180443572527380e-01  3.2213190562187199e-01  -2.3948439430811580e-01  2.6111721894641704e-01  -3.0022778475759310e-01  1.2762102251742545e-03  -2.2969413072542058e-01  3.4842054715974072e-03  -2.1334384143336307e-01  -2.0486219888689861e-01  1.20231511955