<?xml version="1.0"?>
<VTKFile type="UnstructuredGrid"  version="0.1"  >
<UnstructuredGrid>
<Piece  NumberOfPoints="12545" NumberOfCells="24576">
<Points>
<DataArray  type="Float64"  NumberOfComponents="3"  format="ascii">-1 1 0  -0.7500000000000002 1 0  -1 0.75 0  -0.5000000000000002 1 0  -0.4687317158419215 0.4687317158419215 0  -1 0.5000000000000002 0  -0.2500000000000001 1 0  -0.167322142694602 0.250983214041903 0  -0.250983214041903 0.167322142694602 0  -1 0.2500000000000001 0  1 1 0  0.9999999999979623 1.110223024622894e-16 0  1 0.2500000000000002 0  1 0.5000000000000002 0  1 0.75 0  0.75 1 0  0.5000000000000002 1 0  0.2500000000000001 1 0  0 0.9999999999979623 0  -0.02996239294911606 0.08988717884734818 0  -0.02199800931582472 0.02199800931582472 0  -0.08988717884734816 0.02996239294911605 0  -0.9999999999979623 0 0  0.4687317158419215 0.4687317158419215 0  0.0563135147094726 0 0  0.08988717884734816 0.02996239294911605 0  0.250983214041903 0.167322142694602 0  0.167322142694602 0.250983214041903 0  0.02996239294911605 0.08988717884734816 0  0 0.0563135147094726 0  -0.001332765915716535 0.00266553183143307 0  -0.00266553183143307 0.001332765915716535 0  -0.0563135147094726 0 0  -1 -0.2500000000000002 0  0.02199800931582472 0.02199800931582472 0  0.0009765624999999977 0 0  0.00266553183143307 0.001332765915716535 0  0.001332765915716535 0.00266553183143307 0  0 0.0009765624999999977 0  -2.157918606448279e-05 2.157918606448279e-05 0  -0.0009765624999999977 0 0  -0.08988717884734818 -0.02996239294911606 0  -1 -0.5000000000000002 0  2.157918606448279e-05 2.157918606448279e-05 0  9.536743164062467e-07 0 0  0 9.536743164062467e-07 0  -1 -0.7500000000000002 0  -9.536743164062467e-07 0 0  -0.00266553183143307 -0.001332765915716535 0  -0.250983214041903 -0.167322142694602 0  -1 -1 0  0 0 0  -0.4687317158419215 -0.4687317158419215 0  -2.157918606448279e-05 -2.157918606448279e-05 0  -0.02199800931582472 -0.02199800931582472 0  -0.7499999999999999 -1 0  0 -9.536743164062467e-07 0  -0.167322142694602 -0.250983214041903 0  -0.001332765915716535 -0.00266553183143307 0  -0.4999999999999993 -0.9999999999999986 0  0 -0.0009765624999999977 0  -0.02996239294911605 -0.08988717884734816 0  -0.2499999999999996 -0.9999999999999987 0  0 -0.0563135147094726 0  0 -0.9999999999979609 0  -0.8750000000000002 1 0  -1 0.8750000000000001 0  -0.8750000000000001 0.8750000000000001 0  -0.6250000000000002 1 0  -0.6093658579209609 0.7343658579209609 0  -0.7343658579209608 0.6093658579209608 0  -1 0.6250000000000001 0  -0.4843658579209609 0.734365857920961 0  -0.3750000000000002 1 0  -0.3336610713473011 0.6254916070209517 0  -0.734365857920961 0.4843658579209609 0  -0.3180269292682618 0.3598574649419123 0  -0.3598574649419123 0.3180269292682618 0  -0.6254916070209517 0.3336610713473012 0  -1 0.3750000000000002 0  -0.2086610713473011 0.6254916070209517 0  -0.1250000000000001 0.9999999999989814 0  -0.1399811964745581 0.5449435894236743 0  -0.2091526783682525 0.2091526783682525 0  -0.09864226782185904 0.1704351964446256 0  -0.09466007600521337 0.1364906116788639 0  -0.6254916070209517 0.2086610713473011 0  -0.1364906116788639 0.09466007600521338 0  -0.1704351964446256 0.09864226782185904 0  -0.5449435894236743 0.1399811964745581 0  -0.9999999999989814 0.1250000000000001 0  1 0.8750000000000001 0  0.8750000000000001 1 0  0.7343658579209609 0.7343658579209609 0  0.9999999999989814 0.1250000000000002 0  0.5281567573537175 5.551115123114471e-17 0  1 0.3750000000000002 0  0.5281567573547366 0.1250000000000001 0  0.5449435894236743 0.1399811964745581 0  1 0.6250000000000001 0  0.5449435894236743 0.2649811964745581 0  0.6254916070209517 0.3336610713473012 0  0.7343658579209608 0.6093658579209608 0  0.6254916070209515 0.4586610713473011 0  0.6250000000000001 1 0  0.6093658579209608 0.7343658579209608 0  0.4586610713473011 0.6254916070209515 0  0.3750000000000002 1 0  0.3336610713473012 0.6254916070209517 0  0.2649811964745581 0.5449435894236743 0  0.1250000000000001 0.9999999999989814 0  0.1399811964745581 0.5449435894236743 0  0.1250000000000001 0.5281567573547366 0  -0.01498119647455803 0.5449435894226552 0  0 0.5281567573537175 0  -0.02598020113247039 0.05594259408158644 0  -0.01498119647455803 0.07310034677841039 0  -0.0156475794324163 0.04627635533939062 0  -0.05594259408158644 0.02598020113247038 0  -0.01166538761577062 0.01233177057362889 0  -0.01233177057362889 0.01166538761577062 0  -0.5449435894226552 0.01498119647455803 0  -0.04627635533939062 0.01564757943241629 0  -0.07310034677841037 0.01498119647455803 0  -0.5281567573537175 0 0  -0.9999999999989814 -0.1250000000000001 0  0.3598574649419123 0.3180269292682618 0  0.3180269292682618 0.3598574649419123 0  0.2453648625788731 0.2453648625788731 0  0.07310034677841037 0.01498119647455803 0  0.0286450386047363 0 0  0.1704351964446256 0.09864226782185904 0  0.04543187067367408 0.01498119647455803 0  0.04627635533939062 0.01564757943241629 0  0.1364906116788639 0.09466007600521338 0  0.1268243729366681 0.0843274543051593 0  0.09864226782185904 0.1704351964446256 0  0.09466007600521338 0.1364906116788639 0  0.0843274543051593 0.1268243729366681 0  0.01498119647455803 0.07310034677841037 0  0.01564757943241629 0.04627635533939062 0  0.01498119647455803 0.04543187067367408 0  -0.0006663829578582675 0.02948952327045283 0  0 0.0286450386047363 0  -0.001999148873574802 0.001999148873574802 0  -0.0006663829578582675 0.001821047165716534 0  -0.0006771725508905089 0.001343555508748776 0  -0.02948952327045283 0.0006663829578582675 0  -0.001343555508748776 0.0006771725508905089 0  -0.001821047165716534 0.0006663829578582675 0  -0.5281567573547366 -0.1250000000000001 0  -0.0286450386047363 0 0  -0.07310034677841039 -0.01498119647455803 0  -0.5449435894236743 -0.1399811964745581 0  -1 -0.3750000000000002 0  0.01233177057362889 0.01166538761577062 0  0.01166538761577062 0.01233177057362889 0  0.0110097942509446 0.0110097942509446 0  0.001821047165716534 0.0006663829578582675 0  0.0004887580871582019 0 0  0.001343555508748776 0.0006771725508905089 0  0.001333242752874738 0.0006663829578582675 0  0.0006663829578582675 0.001821047165716534 0  0.0006771725508905089 0.001343555508748776 0  0.0006663829578582675 0.001333242752874738 0  -1.078959303224139e-05 0.0004990708430322403 0  0 0.0004887580871582019 0  -0.0004990708430322403 1.078959303224139e-05 0  -1.078959303224139e-05 1.126643019044452e-05 0  -1.126643019044452e-05 1.078959303224139e-05 0  -0.04543187067367409 -0.01498119647455803 0  -0.0004887580871582019 0 0  -0.001821047165716534 -0.0006663829578582675 0  -0.5449435894236743 -0.2649811964745581 0  -0.04627635533939062 -0.0156475794324163 0  -0.1704351964446256 -0.09864226782185904 0  -1 -0.6250000000000002 0  -0.6254916070209517 -0.3336610713473011 0  1.126643019044452e-05 1.078959303224139e-05 0  1.078959303224139e-05 1.126643019044452e-05 0  1.078959303224139e-05 1.078959303224139e-05 0  4.768371582031234e-07 0 0  -4.768371582031234e-07 4.768371582031234e-07 0  0 4.768371582031234e-07 0  -0.6254916070209516 -0.4586610713473011 0  -1 -0.8750000000000002 0  -0.7343658579209609 -0.6093658579209609 0  -0.001333242752874738 -0.0006663829578582675 0  -4.768371582031234e-07 0 0  -1.126643019044452e-05 -1.078959303224139e-05 0  -0.1268243729366681 -0.08432745430515928 0  -0.001343555508748776 -0.0006771725508905089 0  -0.01233177057362889 -0.01166538761577062 0  -0.3598574649419123 -0.3180269292682618 0  -0.1364906116788639 -0.09466007600521337 0  -0.7343658579209608 -0.7343658579209609 0  -0.875 -1 0  -1.078959303224139e-05 -1.078959303224139e-05 0  0 -4.768371582031234e-07 0  -0.2453648625788731 -0.2453648625788731 0  -0.6093658579209607 -0.7343658579209608 0  -0.3180269292682617 -0.3598574649419122 0  -0.0110097942509446 -0.0110097942509446 0  -1.078959303224139e-05 -1.126643019044452e-05 0  -0.0006771725508905089 -0.001343555508748776 0  -0.09466007600521335 -0.1364906116788639 0  -0.01166538761577062 -0.01233177057362889 0  -0.4586610713473009 -0.6254916070209515 0  -0.6249999999999996 -0.9999999999999993 0  -0.0006663829578582675 -0.001333242752874738 0  0 -0.0004887580871582019 0  -0.08432745430515927 -0.126824372936668 0  -0.3336610713473006 -0.6254916070209507 0  -0.09864226782185902 -0.1704351964446256 0  -0.0006663829578582675 -0.001821047165716534 0  -0.01564757943241629 -0.04627635533939062 0  -0.2649811964745576 -0.5449435894236734 0  -0.3749999999999994 -0.9999999999999987 0  -0.01498119647455803 -0.04543187067367408 0  0 -0.0286450386047363 0  -0.1399811964745578 -0.5449435894236734 0  -0.01498119647455803 -0.07310034677841037 0  -0.1249999999999998 -0.5281567573547357 0  -0.1249999999999998 -0.9999999999989797 0  0 -0.5281567573537167 0  -0.9375000000000002 1 0  -1 0.9375000000000002 0  -0.9375000000000002 0.9375000000000002 0  -0.8125000000000002 1 0  -0.8125000000000002 0.9375000000000002 0  -0.6875000000000002 1 0  -0.6796829289604805 0.8671829289604805 0  -1 0.8125 0  -0.9375 0.8125 0  -0.8046829289604804 0.7421829289604804 0  -0.8671829289604804 0.6796829289604804 0  -1 0.6875 0  -0.5625000000000002 1 0  -0.5546829289604805 0.8671829289604807 0  -0.4921829289604805 0.8671829289604807 0  -0.4375000000000002 1 0  -0.4168305356736507 0.8127458035104761 0  -0.5390487868814412 0.6015487868814412 0  -0.6015487868814411 0.5390487868814411 0  -0.4765487868814412 0.6015487868814412 0  -0.4011963935946113 0.5471116614314366 0  -0.6015487868814412 0.4765487868814412 0  -0.3933793225550916 0.4142945903919169 0  -0.4142945903919169 0.3933793225550916 0  -0.5471116614314366 0.4011963935946113 0  -0.8671829289604807 0.5546829289604804 0  -1 0.5625000000000002 0  -0.8671829289604807 0.4921829289604805 0  -0.8127458035104761 0.4168305356736507 0  -1 0.4375000000000002 0  -0.3125000000000001 1 0  -0.2918305356736506 0.8127458035104761 0  -0.2293305356736506 0.8127458035104761 0  -0.1875000000000001 0.9999999999994909 0  -0.1949905982372791 0.7724717947118374 0  -0.2504916070209516 0.4382374105314274 0  
[...]
<PointData  Scalars="u"> 
<DataArray  type="Float64"  Name="u"  format="ascii">1.2599243874744657e+00  1.1552058886596259e+00  1.1552170899172287e+00  1.0525514922659271e+00  7.6015744410442732e-01  1.0525514921070858e+00  9.5493076836959434e-01  4.4569980430250256e-01  4.4574345858361542e-01  9.5493076840927194e-01  6.2997079238645026e-01  -4.4615303680399450e-05  1.6593312628557905e-01  3.2768506644222595e-01  4.8269562468829247e-01  6.7254490850250703e-01  7.2487321046812780e-01  7.8900502626064983e-01  8.6605734208806950e-01  1.9789193629836002e-01  9.8931789458008346e-02  1.9789191602227540e-01  8.6605734209386842e-01  3.8008546644443658e-01  5.4687502023926800e-04  4.4629272344586600e-02  1.7174570987638202e-01  2.7397269643999078e-01  1.5357035658678575e-01  1.2788413834779316e-01  2.0306660400969682e-02  2.0278266591423642e-02  1.2788492726823500e-01  7.8900502626885494e-01  4.9560561830283748e-02  7.3237813844563798e-04  7.4320312040762849e-03  1.6053650247695585e-02  9.4600806549486431e-03  1.1901990071218151e-03  9.4599616487196780e-03  1.5359481528903071e-01  7.2487321047049169e-01  7.8352661348966271e-04  1.9674342693742547e-04  3.6892510560414021e-04  6.7254490850494020e-01  3.6978504487124162e-04  1.6053620294539037e-02  2.7397270615819747e-01  6.2997079238728249e-01  4.6806877355039706e-05  3.8008041080347760e-01  7.5385634663822812e-04  4.9757196599860325e-02  4.8269562468874483e-01  1.9702508392328792e-04  1.7174572356867396e-01  7.4321092189314347e-03  3.2768506644182765e-01  7.3235142536358367e-04  4.4629341959232030e-02  1.6593312628515794e-01  5.4688187186246442e-04  -4.4615304242658538e-05  1.2074594842280804e+00  1.2074594844180246e+00  1.1526032240904762e+00  1.1034492030107252e+00  9.6738405789248560e-01  9.6738679563714292e-01  1.1034431297921523e+00  9.0970542244980446e-01  1.0028620203000222e+00  7.7965561893291180e-01  9.0970551373307196e-01  6.1257402847882902e-01  6.1258630872691366e-01  7.7966850285404155e-01  1.0028475730701985e+00  7.2162452564123136e-01  9.0914887015778811e-01  6.3880781608906145e-01  4.4367458086168293e-01  3.3302012967726274e-01  2.9963320042444419e-01  7.2162450658238575e-01  2.9965978310352320e-01  3.3312989347254290e-01  6.3880266485528481e-01  9.0912851680922968e-01  5.5729067056102288e-01  6.5017399060300440e-01  5.1276459993018786e-01  8.3212718146196102e-02  -8.8536319058682856e-05  2.4752940320308620e-01  1.0266739709826737e-01  1.1369503770201222e-01  4.0612815088739973e-01  2.1282521985296943e-01  2.5512764359955004e-01  4.3181533130402477e-01  3.4562222203087911e-01  6.9734307218563363e-01  5.3555970388257479e-01  4.9420271723228448e-01  7.5535623379377625e-01  5.2453451311386812e-01  4.8577452432526602e-01  8.2593895017290775e-01  5.2507824264156977e-01  5.1798323937320345e-01  5.8393296598674027e-01  5.6587270791241850e-01  1.5184717157530805e-01  1.6391918486327287e-01  1.2745529927457389e-01  1.5184739660738406e-01  6.5690180860573127e-02  6.5685015563548665e-02  5.8393293731166029e-01  1.2744804213401648e-01  1.6394089469733095e-01  5.6585166333353021e-01  8.2593895017015684e-01  2.8447379184576477e-01  3.2810763723652847e-01  2.4686070272156166e-01  2.3349190745322476e-02  -4.1585811590925870e-07  1.1592448536840783e-01  2.7795173648363643e-02  2.8930442926606188e-02  1.1865363881224901e-01  1.0858488162990422e-01  2.1719373819258289e-01  1.8083521895517607e-01  1.7371757567615578e-01  1.4029704443403651e-01  9.8576574091215868e-02  9.7692754362835060e-02  8.3175357228600907e-02  8.0867742390518069e-02  2.0228737097360394e-02  1.5342003122078474e-02  1.3254568024597551e-02  8.3175871288288697e-02  1.3257241416573478e-02  1.5365559468314105e-02  5.1798322599785751e-01  8.0846259255050734e-02  1.4029749782018319e-01  5.2507201093945433e-01  7.5535623379723249e-01  3.0705948121696917e-02  3.2906802269566153e-02  3.0094534609139557e-02  4.1973843304350120e-03  3.4901682171450826e-06  4.5795232038037927e-03  4.4848533826765749e-03  1.1817085045725899e-02  9.4901061241873599e-03  9.3827096027460886e-03  5.8482291455832268e-03  5.6315109273815467e-03  5.8481671166247676e-03  7.7934210898720992e-04  7.7775887911345676e-04  9.7693322627180335e-02  5.6169398534771696e-03  1.1817164557822300e-02  4.8577451835556723e-01  9.8603214449130158e-02  2.1719377897250228e-01  6.9734307218742941e-01  5.2453738639476810e-01  5.1621428956569898e-04  5.4000306514202616e-04  5.2352030520341427e-04  1.3709986940982361e-05  2.9383743773671783e-04  2.0869359231951213e-04  4.9418998186596830e-01  6.5017399060340031e-01  5.3556860084661295e-01  9.3828007971301450e-03  2.1946316236890568e-04  5.4018426386464821e-04  1.7371766201535430e-01  9.4907694270940941e-03  3.2907126355872139e-02  3.2810763754900923e-01  1.8082912007399735e-01  5.1276351729931902e-01  5.5728360947070044e-01  5.2372824405178984e-04  1.3652735168432179e-05  2.4682844875181303e-01  4.3181533079486256e-01  2.8447337465805045e-01  3.0094742383812913e-02  5.3826836601318249e-04  4.5795695827343351e-03  1.1865369516540754e-01  3.0471133362828945e-02  3.4563941473136539e-01  4.0610992673026264e-01  4.4848798364570197e-03  1.2492091638478517e-06  1.0858494497830609e-01  2.5511246724271602e-01  1.1595903564822478e-01  4.3874774701706427e-03  2.8900087113198587e-02  2.1282522064829054e-01  2.4749932744002523e-01  2.7806451952780992e-02  -6.7908031198906817e-06  1.1366937733131335e-01  2.4033978540248861e-02  1.0266739817828464e-01  8.3199630111803299e-02  -7.1818209766456127e-05  1.2336743257238105e+00  1.2336741950965977e+00  1.2068620374528312e+00  1.1812929699093597e+00  1.1532466987968040e+00  1.1292461195545473e+00  1.0633009884821121e+00  1.1812929712747875e+00  1.1532679845327076e+00  1.0617574167722137e+00  1.0633175130268600e+00  1.1292405764300479e+00  1.0778732367880628e+00  1.0088889855496523e+00  9.8201102010662367e-01  1.0275121461269627e+00  9.2116203390797291e-01  8.6667019738066120e-01  8.6667876787773490e-01  8.3567720442780058e-01  7.6800893187237840e-01  8.3567719778864202e-01  6.8827490014601722e-01  6.8828448725717040e-01  7.6799569081658603e-01  1.0088941646580063e+00  1.0778741041598299e+00  9.8201102756838432e-01  9.2116206119762456e-01  1.0274983124151167e+00  9.7866023514523426e-01  8.6792864481939092e-01  8.4215877739520573e-01  9.3172183433886469e-01  8.0469529810990237e-01  6.2394237739810599e-01  5.3214602979896475e-01  5.3145826462175727e-01  5.9077589551849730e-01  5.4474779895424341e-01  4.4419616856494448e-01  3.9131792276621075e-01  3.7618924427171652e-01  3.7482148046306674e-01  5.3213140077525356e-01  6.2396201201990276e-01  4.4418261515849244e-01  5.9077576750603333e-01  3.7618557383569373e-01  3.9131729774808066e-01  5.4476833202932107e-01  8.6794383543787657e-01  9.7865930129609169e-01  8.4215878099540198e-01  8.0469529737117151e-01  9.3170174767797109e-01  5.9386517011694917e-01  6.3981867899833245e-01  5.7287098879311915e-01  4.1672215707581700e-02  4.3201669328374005e-05  4.5504689042117331e-02  1.2465242060529208e-01  2.0685209796206516e-01  1.3614229987659546e-01  1.4103697935559817e-01  1.8555368409554357e-01  2.8781016265054821e-01  3.6711933583619649e-01  2.7331533763620813e-01  2.9249256518799460e-01  3.3457383337788532e-01  5.2022240152643895e-01  4.9649448657120004e-01  4.4464611120961617e-01  4.5743948890244240e-01  4.1698921442562575e-01  6.6106431558418521e-01  5.9420854543807211e-01  6.8462183842143798e-01  6.0585381722083875e-01  5.8677207610872006e-01  7.1074239566955588e-01  6.1379207426336557e-01  7.3972651629939501e-01  6.2865658652277390e-01  6.1120666293483139e-01  7.7178231223134319e-01  6.4504551259448817e-01  8.0707196619366472e-01  6.6364677198094379e-01  6.6049672930741454e-01  8.8726141161522620e-01  7.5512982407178975e-01  8.4559218746045717e-01  7.0157877665606572e-01  7.3181566209115168e-01  7.2380469594300467e-01  4.4748975801491203e-01  2.6927517624549724e-01  2.5062445109975928e-01  4.1407400549792889e-01  4.0330793533401937e-01  1.7551225099748943e-01  1.8112534263266455e-01  1.6455897886191154e-01  2.1189662352938815e-01  2.1195251315112024e-01  1.2627431963676547e-01  1.1281791141118717e-01  1.2628659610081330e-01  8.3080124415937318e-02  8.3073082795451794e-02  1.1282178163736392e-01  2.5062215429637325e-01  2.6946316421504840e-01  4.4745124473126785e-01  1.7551200140263615e-01  4.1407399630369690e-01  1.6455412498263397e-01  1.8114245309545385e-01  4.0346500746506730e-01  7.5515261640324338e-01  8.8725907047986141e-01  7.3181565350636213e-01  7.2378461216280143e-01  8.4559218746320519e-01  7.0159454014176303e-01  4.4889767956928467e-01  4.0593879918403325e-01  3.6190471967456106e-01  4.6075779879900958e-01  4.3801969421984221e-01  3.3385075317804458e-01  3.5442542172372432e-01  3.1701887301155557e-01  -2.1980740429866324e-04  6.2638004439106734e-02  1.2918386224843365e-02  5.3820166136551854e-06  1.3541729713362666e-02  7.6170661611975859e-02  8.2634260155286701e-02  1.4203828556510389e-01  3.4562272413551427e-02  8.3003424425027700e-02  3.6547861208231093e-02  3.7028398018480145e-02  7.8224060226802186e-02  1.9197642707869117e-01  2.1506934350655782e-01  2.6594748928786399e-01  2.3096267275703491e-01  2.0978200859014862e-01  1.4504683416506436e-01  1.4640213321340406e-01  1.4192979588011273e-01  3.9197346581137965e-01  4.0889984196765450e-01  3.8679154668476101e-01  3.0116789285458334e-01  2.5962104052147605e-01  2.4630103559990008e-01  2.2979686890517248e-01  2.2662222593736284e-01  3.4125112415519493e-01  3.6487940732151242e-01  3.6047349510166421e-01  1.8614637277332094e-01  1.6292410290445922e-01  1.4694792071370069e-01  1.2759404937166355e-01  1.2720873542361666e-01  3.5201630481249158e-01  3.8153411539327625e-01  1.4625056738689035e-01  1.2706297656929558e-01  1.3376356863417857e-01  1.1258048768283296e-01  1.0649255575887311e-01  1.0547797535054551e-01  8.3446093915298697e-02  4.5712826878537866e-02  4.5683652110715976e-02  5.5931195724797302e-02  5.4522352151240509e-02  2.0142263926837961e-02  1.7785243658953107e-02  1.7005810304830511e-02  1.6847817305073232e-02  4.5734736455880977e-02  8.3446052864999634e-02  2.0144060608905182e-02  5.5931255416137672e-02  1.7010829388440930e-02  1.7772745495585943e-02  5.4526019032605913e-02  1.2706408094008809e-01  1.4625125010843376e-01  3.8147839025115426e-01  1.0649361103418378e-01  3.5201629782858174e-01  1.0547285923014446e-01  1.3376414472354248e-01  1.1258047773250637e-01  8.0707196618881794e-01  6.6052707903029140e-01  6.6364332305142448e-01  7.7178231222567306e-01  6.4506229560203188e-01  1.6468994828935529e-01  8.7432632293077864e-02  8.1490096238536855e-02  1.2449278433495703e-01  1.2004679379758268e-01  4.0638389039783084e-02  4.1405672730744664e-02  4.0462954266115035e-02  -1.0553536076051947e-06  1.7247911438682324e-02  2.3400961254928330e-03  2.1825523010502833e-07  2.5527894867643599e-03  1.8554374643247544e-02  1.9432899977963863e-02  6.9182426126800617e-02  2.0901879931428405e-02  2.0205755938599659e-02  5.7462606223491093e-03  5.8529793823686796e-03  5.8386186182402995e-03  1.1137075787382117e-01  6.4004526071128151e-02  6.3427033402635280e-02  2.5082645155312742e-02  2.2672612556244018e-02  1.3736291047255770e-02  1.2396884434967771e-02  1.2304753802844298e-02  6.2251335022948058e-02  5.1625946346587993e-02  1.2139428712460074e-02  1.1245531121624991e-02  1.0637727139831214e-02  9.4933337126892735e-03  7.6573525216361016e-03  7.5987397273900971e-03  8.6744735908700927e-03  8.6863731983833695e-03  3.7601145422088414e-03  3.6787974666205960e-03  3.7603800373352671e-03  9.5387591136770957e-04  9.6597812207864248e-04  3.6799766243506868e-03  1.1243591085021005e-02  1.2133642968830079e-02  5.1581751759967570e-02  7.6578192171655136e-03  6.2251688452188626e-02  7.5991935433108639e-03  1.0638309570218780e-02  9.4933746350593460e-03  3.6047348922946837e-01  1.4694823482670683e-01  3.6482023761700266e-01  1.2721466152440800e-01  3.4125112319492779e-01  1.2759445437882688e-01  1.8614647197405942e-01  1.6292425179208012e-01  7.3972651630240849e-01  6.1119309898690655e-01  7.1074239566837150e-01  6.2867182529626287e-01  6.1379129241613783e-01  1.9156330992967138e-02  2.7883902718265061e-03  2.8002005414010179e-03  5.8837019403636410e-03  5.8826145355523286e-03  6.5255540063396402e-04  6.4921721139159650e-04  6.2625494715072777e-04  1.7870761143099012e-05  2.6948953833977191e-03  3.9119197324655463e-04  4.0304043140808500e-04  3.8365501328349591e-05  5.7564243725251726e-03  3.5139181681454654e-03  5.9132383134153775e-04  5.9020617455249759e-04  4.2127343897184922e-04  4.2125210004883179e-04  3.1006673475989568e-04  2.8602694347889764e-04  6.8462183842289615e-01  5.8676352821791522e-01  6.6106431558386347e-01  6.0585979811844526e-01  5.9420819684837367e-01  5.9126766754783258e-04  3.5140632955632102e-03  3.1091592759866979e-04  5.7565190895051670e-03  2.8599413180560162e-04  4.2169694784094624e-04  4.2162884537511356e-04  6.3427393352636890e-02  1.3736243526242828e-02  6.4039819491400959e-02  1.2364190756892013e-02  1.1134839684930679e-01  1.2399269281861263e-02  2.5082719000042383e-02  2.2672759154083399e-02  3.8679154304324997e-01  2.4630105541382102e-01  4.0890810303296549e-01  3.9197346330191274e-01  2.2662225419868304e-01  3.0116789609206024e-01  2.2979107152657652e-01  2.5961543255239278e-01  6.3981867899869338e-01  5.7287018138223389e-01  5.9385912610933866e-01  4.0583102178899422e-04  2.9154372688349283e-05  1.9928046920258849e-04  1.4777744751166686e-04  1.4599957645600203e-04  4.0625634979309431e-04  2.9188095947414668e-05  4.3801979438044730e-01  4.6075560183925873e-01  3.5442542089858686e-01  4.4889767854153678e-01  3.1700034748136174e-01  4.0593879832677005e-01  3.3385075288239874e-01  3.6189701747918140e-01  5.8827088556621257e-03  6.4929723966705483e-04  5.9733594795382313e-03  6.3107142009528872e-04  1.9156467811934624e-02  6.5261192101574912e-04  2.7883653740628481e-03  2.8001834205789908e-03  1.2004701059159015e-01  4.1406014882017769e-02  1.2433736813927132e-01  1.6468999670571197e-01  4.0691031821649223e-02  8.7432761384668850e-02  4.0638598385549188e-02  8.1435948217443876e-02  4.9649452336692385e-01  5.2022240152631982e-01  4.5743948868183965e-01  4.1698921411134793e-01  4.4462998263120418e-01  4.0339542472506379e-04  3.8533491037573143e-05  3.8096069901959688e-04  2.7038292622194714e-03  9.1215981272622081e-06  2.0978219564478640e-01  2.3096303787540132e-01  1.4640215990047670e-01  2.6597331218448322e-01  1.4191344261442937e-01  2.1508599319599839e-01  1.4505689795335036e-01  1.9198392181465826e-01  2.0205902190385181e-02  5.8530691778902778e-03  2.0838259960398651e-02  5.8386876481930040e-03  6.9292898174472678e-02  5.7463734760124308e-03  1.9388467113489894e-02  1.8563231693836679e-02  3.3457383317935308e-01  3.6711933583637157e-01  2.9248207542421545e-01  2.7330231809433853e-01  2.8778286281924631e-01  2.5497044539642857e-03  2.1821389526761499e-07  2.4558200393547738e-03  1.7219022619814908e-02  -1.5265508182354623e-05  7.8210381143179603e-02  8.3236678135497719e-02  3.7028485820281197e-02  1.4206081591131134e-01  3.6542859226312466e-02  8.2678801993059714e-02  3.4562337086917930e-02  7.6208021577442567e-02  1.8555368419192383e-01  2.0685209796244555e-01  1.4101979702961265e-01  1.3614842016995668e-01  1.2464090617200273e-01  1.3541537003738943e-02  -4.0047123682142213e-06  1.2637224250480654e-02  6.2711914609409697e-02  -1.7781452670863568e-04  4.5522785045817825e-02  4.1689404465988837e-02  3.5690676939163943e-05  1.1800460483846034e+00  1.1800459179642548e+00  1.0617690177896408e+00  1.0360070417811253e+00  9.6643902941103421e-01  9.3844195528158547e-01  1.0360069422668507e+00  9.3844213242199637e-01  8.4569510571151774e-01  8.9429827036894227e-01  6.9755067614151844e-01  7.5026084106607693e-01  8.4569515637170523e-01  6.1231308265919238e-01  6.9755061757577941e-01  5.3145709642976224e-01  8.9429828939197775e-01  7.5026083814108457e-01  6.8067562533913395e-01  7.7946427638493399e-01  4.9710493043907178e-01  6.1056260199773638e-01  3.7484450428604726e-01  3.1644130445850327e-01  2.9855837885692615e-01  2.3157446668381704e-01  6.8067558979746268e-01  3.1644079053542812e-01  2.3158037382992333e-01  4.9710486863045544e-01  7.7946427075773417e-01  6.1056256357880057e-01  5.3496859861315427e-01  5.8323807772446612e-01  4.7263554749993220e-01  5.2377469131575460e-01  9.0931848688930159e-02  5.1408811548117231e-02  2.2970752224507696e-01  1.0818585889628191e-01  6.9586960313496135e-02  1.6356119541171793e-01  3.7609698076558262e-01  2.3431106840569191e-01  1.6773964501864647e-01  3.0076728275897063e-01  3.8968408946624800e-01  3.1540446981100284e-01  5.9985681300824922e-01  5.1490514855388381e-01  5.0873916580607959e-01  4.1506178378842529e-01  6.2758210335827336e-01  5.0522745970706817e-01  5.0455262341479423e-01  3.6423626137846060e-01  6.8048425473926655e-01  5.2152803001863846e-01  5.4101423098830914e-01  3.5624194233790457e-01  5.7489554786639829e-01  3.9247898592038544e-01  1.3984118057342459e-01  1.4629533889795404e-01  9.8605756447076517e-02  1.0618917743931616e-01  1.3984333647154940e-01  6.5679175828907504e-02  9.8605679552409203e-02  4.5659549439648200e-02  5.7489551968144814e-01  1.4629628090213317e-01  1.0619061659206142e-01  3.9247897988100822e-01  5.4101421169468888e-01  6.8048424748909397e-01  2.6584408532478032e-01  2.8876480115376779e-01  1.8768962127347644e-01  2.1455678115702587e-01  2.5609576366260180e-02  1.4919954408390218e-02  1.1212540432359795e-01  2.8320157298805351e-02  1.7885087778210733e-02  7.3631848562728835e-02  1.1367071341375554e-01  7.5427645370156532e-02  1.9592528608533025e-01  1.7734461481010122e-01  1.3819244234249348e-01  1.1565988610566885e-01  1.1982490067012222e-01  9.8165607833273216e-02  8.9136084785010103e-02  6.2813431868300754e-02  8.2024799131672599e-02  5.3077325066545916e-02  1.6848954022020749e-02  1.4277228352674254e-02  1.3099220677535084e-02  1.0040007480683549e-02  8.2025290710724175e-02  1.4279433889833250e-02  1.0040865142048954e-02  5.3077512509664665e-02  3.5624193606012150e-01  5.2152801721599384e-01  8.9136725017332649e-02  1.1982544052692022e-01  5.0455261481276092e-01  6.2758209988219260e-01  3.0715594365345315e-02  3.1721447398267086e-02  1.9815560670924943e-02  2.1094611694359180e-02  4.2553949388464945e-03  2.5634519959716389e-03  4.5384430364122470e-03  2.7523622859935140e-03  1.0730479593852392e-02  9.5050887646472172e-03  7.7919665432476413e-03  5.8756337581546830e-03  5.6950816923341269e-03  3.5974885103685766e-03  5.6951943801310471e-03  7.7830680131632827e-04  3.5975868802222339e-03  5.9114112933686327e-04  6.2813786145081041e-02  9.8166172364638066e-02  7.7921708528142413e-03  1.0730703984350895e-02  3.6423625881460414e-01  5.0522745461095631e-01  1.3819264968638070e-01  1.9592534682533785e-01  5.9985681190187101e-01  5.0873916269355579e-01  5.2219129516460801e-04  5.3105332841014757e-04  3.8537075602761096e-04  3.9515673363040992e-04  2.5400911690988073e-04  2.5397719522648093e-04  5.1490514702275259e-01  4.1506178150965978e-01  5.8323807751714096e-01  5.2377469059702897e-01  5.8757305355288305e-03  9.5051830409191417e-03  3.9555546796522236e-04  5.3124866062229017e-04  1.1566012862135243e-01  1.7734469246095369e-01  2.1094762315588714e-02  3.1721667125213210e-02  2.8876480436519403e-01  2.1455680338790795e-01  5.3496859843604827e-01  4.7263554696539561e-01  3.8576036697481400e-04  5.2239136771183297e-04  2.6584408938047011e-01  1.8768964409053615e-01  3.8968408891156314e-01  3.1540446969928870e-01  1.9815670096090903e-02  3.0715816343260361e-02  2.7523532766263546e-03  4.5384945653143133e-03  1.1367077303913378e-01  7.5427792219039586e-02  3.7609698049771173e-01  3.0076728260981861e-01  2.5634757019861632e-03  4.2554512436460057e-03  1.1212545188180940e-01  7.3631954199743915e-02  2.3431106882920172e-01  1.6773965019320564e-01  1.7885193061761985e-02  2.8320263305918136e-02  2.2970752226226607e-01  1.6356119644291076e-01  1.4920022787922689e-02  2.5609650518171160e-02  1.081858599356