<?xml version="1.0"?>
<VTKFile type="UnstructuredGrid"  version="0.1"  >
<UnstructuredGrid>
<Piece  NumberOfPoints="3201" NumberOfCells="6144">
<Points>
<DataArray  type="Float64"  NumberOfComponents="3"  format="ascii">0.1495496114427624 -0.1495496114427624 0  1.287144439429404 -1.716192585905872 0  1.716192585905716 -1.287144439429287 0  0.2837720459405749 -0.5675440918811498 0  3.278179782504071 -3.278179782504071 0  0.5675440918811498 -0.2837720459405749 0  1.756932646787236 -7.027730587148944 0  3.898324400662581 -5.847486600993871 0  5.847486600993853 -3.898324400662569 0  7.027730587148944 -1.756932646787236 0  -0.1495496114427624 -0.1495496114427624 0  5.656854249492382 6.280369834735103e-16 0  -7.027730587148944 -1.756932646787237 0  -0.5675440918811498 -0.2837720459405749 0  -1.716192585905716 -1.287144439429287 0  -1.287144439429287 -1.716192585905716 0  -0.2837720459405749 -0.5675440918811498 0  -1.756932646787236 -7.027730587148944 0  0 5.656854249492382 0  0.2922068412242178 -0.8766205236726532 0  0.1910394894585253 -0.1910394894585253 0  0.8766205236725884 -0.2922068412241961 0  -5.656854249492382 0 0  -3.278179782504071 -3.278179782504071 0  23.83793724888972 0 0  -0.8766205236725884 -0.2922068412241961 0  -5.847486600993853 -3.898324400662569 0  -3.898324400662569 -5.847486600993853 0  -0.2922068412241961 -0.8766205236725884 0  0 23.83793724888972 0  1.671770658765338 -3.343541317530675 0  3.343541317530675 -1.671770658765338 0  -23.83793724888972 0 0  7.027730587148944 1.756932646787236 0  -0.1910394894585253 -0.1910394894585253 0  181.019335983452 0 0  -3.343541317530675 -1.671770658765338 0  -1.671770658765338 -3.343541317530675 0  0 181.019335983452 0  0.1068812197939318 -0.1068812197939318 0  -181.019335983452 0 0  0.8766205236726532 0.2922068412242178 0  0.5675440918811498 0.2837720459405749 0  -0.1068812197939318 -0.1068812197939318 0  5792.61875148012 0 0  0 5792.61875148012 0  1.716192585905872 1.287144439429404 0  -5792.61875148012 0 0  3.343541317530675 1.671770658765338 0  5.847486600993871 3.898324400662581 0  0.1495496114427583 0.1495496114427583 0  0 0 0  3.278179782504071 3.278179782504071 0  0.1068812197939318 0.1068812197939318 0  0.1910394894585253 0.1910394894585253 0  1.287144439429287 1.716192585905716 0  0 -5792.61875148012 0  3.898324400662531 5.847486600993797 0  1.671770658765331 3.343541317530662 0  0.2837720459392363 0.5675440918784725 0  0 -181.019335983452 0  0.2922068412241961 0.8766205236725884 0  1.756932646787229 7.027730587148919 0  0 -23.83793724888972 0  0 -5.656854249492387 0  0.7183470254360832 -0.9328710986743172 0  0.9328710986742393 -0.7183470254360248 0  1.50166851266756 -1.50166851266758 0  0.7854582426849894 -1.141868338893511 0  2.282662110966737 -2.497186184204971 0  2.497186184204893 -2.282662110966679 0  1.141868338893433 -0.785458242684931 0  1.780975914222323 -1.92286193719261 0  1.020352346363905 -3.797637339515047 0  2.091048223301578 -3.20751534643751 0  1.92286193719261 -1.780975914222323 0  3.588252091583326 -4.562833191748971 0  4.562833191748962 -3.588252091583319 0  3.207515346437501 -2.091048223301572 0  3.797637339515047 -1.020352346363905 0  2.827628523724908 -6.437608594071407 0  0.878466323393618 -0.6854381688282807 0  1.024569744005727 -3.952175555410799 0  4.872905500828216 -4.872905500828219 0  2.095265620943399 -3.362053562333262 0  2.044681945060553 -3.019263045226198 0  6.437608594071398 -2.827628523724902 0  3.019263045226189 -2.044681945060547 0  3.36205356233322 -2.095265620943382 0  3.952175555410766 -1.024569744005716 0  0.6854381688282807 -0.878466323393618 0  -0.9328710986742393 -0.7183470254360248 0  -0.7183470254360248 -0.9328710986742393 0  -1.713864696973416 -1.713864696973416 0  -0.6854381688282807 -0.8784663233936181 0  14.74739574919105 3.140184917367551e-16 0  -3.797637339515047 -1.020352346363906 0  8.405103330870388 -0.8784663233936184 0  -3.952175555410766 -1.024569744005716 0  -1.141868338893433 -0.785458242684931 0  -0.7220823077768691 -0.2879894435823855 0  -3.207515346437501 -2.091048223301572 0  -2.497186184204893 -2.282662110966679 0  -3.781839593449785 -2.592734420045928 0  -0.785458242684931 -1.141868338893433 0  -2.282662110966679 -2.497186184204893 0  -2.592734420045928 -3.781839593449785 0  -1.020352346363905 -3.797637339515047 0  -2.091048223301572 -3.207515346437501 0  -0.2879894435823855 -0.7220823077768691 0  -0.878466323393618 -0.6854381688282807 0  -1.024569744005716 -3.952175555410766 0  -0.878466323393618 8.405103330870388 0  0.1461034206121089 2.390116862909864 0  0 14.74739574919105 0  0.2416231653413715 -0.5338300065655892 0  0.1461034206121089 11.48065836260853 0  0.9819887499947777 -2.110080920601664 0  0.5338300065655568 -0.2416231653413607 0  0.9314050741119314 -1.7672904034946 0  1.7672904034946 -0.9314050741119314 0  -2.390116862909897 -0.1461034206120981 0  2.110080920601632 -0.9819887499947668 0  -11.48065836260857 -0.1461034206120981 0  -14.74739574919105 0 0  0.6854381688282807 0.8784663233936182 0  -4.562833191748962 -3.588252091583319 0  -3.588252091583319 -4.562833191748962 0  -1.734609635981298 -1.734609635981298 0  11.48065836260857 -0.1461034206120981 0  102.4286366161709 0 0  -3.36205356233322 -2.095265620943382 0  90.07135772988971 -0.1461034206120981 0  -2.110080920601632 -0.9819887499947668 0  -3.019263045226189 -2.044681945060547 0  -4.595513959262264 -2.785047529713953 0  -2.095265620943382 -3.36205356233322 0  -2.044681945060547 -3.019263045226189 0  -2.785047529713953 -4.595513959262264 0  -0.1461034206120981 11.48065836260857 0  -0.9819887499947668 -2.110080920601632 0  -0.1461034206120981 90.07135772988971 0  0.8358853293826688 10.24719796567952 0  0 102.4286366161709 0  2.507655988148006 -2.507655988148006 0  0.8358853293826688 88.83789733296067 0  0.8893259392796347 -1.725211268662304 0  -10.24719796567952 -0.8358853293826688 0  1.725211268662304 -0.8893259392796347 0  -88.83789733296067 -0.8358853293826688 0  -8.405103330870388 0.8784663233936182 0  -102.4286366161709 0 0  -11.48065836260853 0.1461034206121089 0  3.952175555410799 1.024569744005727 0  3.797637339515047 1.020352346363906 0  -1.7672904034946 -0.9314050741119314 0  -0.9314050741119314 -1.7672904034946 0  -0.1489603546262285 -0.1489603546262285 0  88.83789733296067 -0.8358853293826688 0  2986.819043731786 0 0  -1.725211268662304 -0.8893259392796347 0  2894.637605081295 -0.8358853293826688 0  -0.8358853293826688 88.83789733296067 0  -0.8893259392796347 -1.725211268662304 0  -0.8358853293826688 2894.637605081295 0  0.05344060989696589 90.45622738182904 0  0 2986.819043731786 0  -90.45622738182904 -0.05344060989696589 0  0.05344060989696589 2896.255935130163 0  -2896.255935130163 -0.05344060989696589 0  -90.07135772988968 0.1461034206121089 0  -2986.819043731786 0 0  -88.83789733296067 0.8358853293826688 0  0.7220823077769015 0.2879894435823964 0  2.110080920601664 0.9819887499947777 0  3.362053562333262 2.095265620943399 0  1.141868338893511 0.7854582426849894 0  3.20751534643751 2.091048223301578 0  2896.255935130163 -0.05344060989696589 0  -0.05344060989696589 2896.255935130163 0  -0.05344060989696589 -0.05344060989696589 0  2896.30937574006 0 0  -2896.30937574006 2896.30937574006 0  0 2896.30937574006 0  3.781839593449871 2.592734420045992 0  0.9328710986743152 0.7183470254360812 0  2.497186184204971 2.282662110966737 0  -2894.637605081295 0.8358853293826688 0  -2896.30937574006 0 0  -2896.255935130163 0.05344060989696589 0  4.595513959262273 2.785047529713959 0  1.725211268662304 0.8893259392796347 0  1.7672904034946 0.9314050741119314 0  4.562833191748971 3.588252091583326 0  3.019263045226198 2.044681945060553 0  1.713864696973414 1.713864696973414 0  0.7183470254360227 0.9328710986742373 0  0.05344060989696589 0.05344060989696589 0  0 -2896.30937574006 0  1.734609635981298 1.734609635981298 0  2.282662110966679 2.497186184204893 0  3.588252091583301 4.562833191748934 0  0.1489603546262285 0.1489603546262285 0  0.05344060989696589 -2896.255935130163 0  0.8893259392796314 1.725211268662297 0  2.044681945060528 3.019263045226161 0  0.9314050741119282 1.767290403494594 0  2.592734420045909 3.781839593449757 0  0.7854582426842617 1.141868338892094 0  0.8358853293826656 -2894.637605081295 0  0 -2986.819043731786 0  2.785047529713931 4.595513959262229 0  2.091048223300884 3.207515346436135 0  2.095265620943364 3.362053562333193 0  0.8358853293826656 -88.83789733296068 0  0.9819887499947636 2.110080920601625 0  0.2879894435817162 0.7220823077755305 0  1.020352346363233 3.797637339513696 0  0.1461034206120981 -90.07135772988971 0  0 -102.4286366161709 0  1.024569744005713 3.952175555410753 0  0.1461034206120981 -11.48065836260857 0  0.8784663233936145 -8.4051033308704 0  0.8784663233936145 0.685438168828266 0  0 -14.74739574919105 0  0.4339483184394228 -0.5412103550585398 0  0.5412103550585008 -0.4339483184393936 0  1.002745732432744 -1.324531842290094 0  1.394406476048482 -1.608930549286726 0  1.036301341057197 -1.429030462399691 0  1.784903275198071 -2.106689385055422 0  1.892165311817149 -1.999427348436275 0  1.534060176825863 -1.819527261549241 0  1.2172698056709 -1.110007769051802 0  1.324531842289978 -1.002745732432656 0  1.608930549286638 -1.394406476048433 0  2.106689385055305 -1.784903275197983 0  1.429030462399575 -1.036301341057109 0  1.819527261549163 -1.534060176825805 0  0.5346151443127822 -0.8547062153873304 0  1.032373980081449 -1.24520301453688 0  0.6520621961522401 -2.182590715698098 0  1.187410134621076 -1.88752971915933 0  2.780420946735404 -2.887682983354521 0  2.887682983354482 -2.780420946735375 0  2.529577848363197 -2.60052085984834 0  2.684614002902824 -3.24284756447079 0  2.60052085984834 -2.529577848363197 0  3.433215937043698 -3.920506487126521 0  3.920506487126517 -3.433215937043695 0  3.242847564470786 -2.684614002902821 0  0.8547062153872914 -0.5346151443127529 0  1.24520301453688 -1.032373980081449 0  1.887529719159326 -1.187410134621073 0  2.182590715698098 -0.6520
[...]
<PointData  Scalars="u"> 
<DataArray  type="Float64"  Name="u"  format="ascii">-1.8026833883033780e-01  -2.8988263194040947e-01  -2.3554466708005964e-01  1.4309845846278518e-01  -1.1403017253809951e+00  3.1538302937921980e-01  6.0200361051758400e-01  -1.0026883281763612e+00  -1.7367494203226790e+00  2.8814469874760076e+00  1.8895495007730917e-01  -2.3896553899976154e+00  -2.9045058168438880e+00  1.9330631424537184e-01  7.0070669283873199e-01  5.9179890509163091e-01  1.3355372092692824e-01  -6.3283664429143849e-01  -2.2783128051003559e-01  4.7109385703416390e-01  -9.3839689020623784e-02  -3.2315344922210210e-01  -2.2022182817430627e-01  2.8447741434702689e-01  -2.0150687234077427e-01  9.8651648620947767e-03  2.9613042677068563e-01  2.6918546115627129e-01  -4.1216412613587702e-02  2.9088349056317209e-01  -6.6386314075559416e-01  -6.5860001924425837e-01  2.7720858969228052e-01  -6.3286014381572109e-01  -1.5523035859011677e-01  -1.5747596191071688e-03  2.5890515137828451e-01  2.1184207548038733e-01  -2.6499348571238807e-01  -7.1919779700332820e-01  -2.6350491960768768e-01  -4.4861104490002156e-02  1.3457757547743038e-01  1.3259454317918443e-01  -1.2680383257836149e-06  2.7058549027498618e-01  5.8411665027894988e-01  2.7062637424985547e-01  1.8035333954878119e-01  2.1912934206370535e-01  1.8895863281190814e-01  1.7833988344262010e-02  2.2948635193085842e-01  8.4823011869893744e-02  -1.0213693727214330e-01  6.9337767015853513e-01  -4.7228624346855817e-07  2.3407120309325652e-01  2.0520620006980622e-01  1.9918329698434156e-01  -5.3987207343155353e-04  -2.1720854230819132e-02  -2.9203133209462528e+00  4.4089241256733837e-02  -5.2652940061940344e-02  -4.7271287848486765e-01  -6.3949716911753685e-01  -5.0375810229603024e-01  -4.7655400585360636e-01  -7.4960045791515262e-01  -8.3284325038716012e-01  -7.1847994142348592e-01  -3.8025995760220654e-01  -4.3436243314167117e-01  -6.9862262184709156e-01  -5.8048945027532983e-01  -1.0788548501763489e+00  -1.5003548650982745e+00  -1.3221731442246636e+00  -1.9085072533904808e+00  7.7353150157219408e-01  -5.8224130120317275e-01  6.2838537858696508e-01  -1.3270667097485154e+00  9.2250579747882699e-01  9.3764797151034063e-01  2.1931580681210141e+00  1.3168050867151802e+00  1.4248489933054111e+00  1.8107247865814056e+00  -4.6890726444996378e-01  6.3880693390851306e-01  4.7376493077709059e-01  6.0915631123627045e-01  1.2151018076095726e-01  8.6112853270118861e-01  1.9139000986180541e+00  1.2062725087600537e-01  -2.0005083088050775e+00  7.7060471181135393e-01  -2.1238322293302889e-01  3.5181704312260953e-01  4.0889991581162743e-01  3.3297743385535072e-01  5.0079080692869715e-01  3.9181111415061765e-01  2.8176438217933303e-01  4.2340864330566336e-01  2.9733644130660358e-01  -7.9056338933636394e-02  8.4690157111246156e-01  -4.0507194287191417e-01  5.9613760146292175e-02  -1.5312706550111583e+00  -1.9422074121309441e-01  -1.2961257338499291e-01  -2.2415352355527229e-01  -5.5410912568125426e-01  -1.3620013394476319e-01  5.3839225241470046e-01  5.5342397671437193e-01  -1.5370739316626014e+00  -5.6733460453165308e-01  -2.1661653917094462e-01  -1.5929530029375738e-01  8.4701302730261130e-01  2.8982840221433409e-01  2.6764605195109531e-01  -1.7942545408186703e-01  -3.4668154180014399e-02  1.3055333074505136e-03  3.0214403141720741e-01  3.9861841643302502e-03  2.3197484816359948e-01  -2.5814366673848360e-01  2.9511684058483012e-01  2.7161103860265551e-01  -1.7791658325552143e-01  2.6812875781514839e-01  1.7012191181251921e-01  3.5226903205643312e-01  -2.6681897814002836e-01  -3.5755514141857625e-01  -2.5561838116877894e-01  -7.0480100749682173e-01  2.3610936764553206e-01  -7.5252653215296950e-01  -1.6574465998152552e-01  -7.5553860229475955e-01  2.4283632557234280e-01  5.6824278574143523e-02  -2.4980108423554037e-01  1.5777704995340497e-01  -4.0627751852009591e-01  4.2334779980928783e-01  -2.0099162813132906e-01  -1.3746675181702872e-01  -1.5708478453523769e-01  3.1448065459756848e-03  1.0016260664747707e-04  1.9391613094046986e-01  -3.1754353977241789e-04  -2.2582360771666973e-01  1.4163314785473086e-01  2.6857620756768191e-01  2.5048064482111054e-01  -2.6961744571677526e-01  2.4738654348290248e-01  2.7060758099491783e-01  2.7064719655019481e-01  -2.6253417114138106e-01  -2.6939756972079348e-01  -2.2329697204177396e-01  -4.5111301743059787e-02  3.2062769988969336e-01  2.3112986788436488e-01  5.0189701164898037e-01  2.5944042139456092e-01  -1.5801286042635825e-04  2.6953448323336870e-01  8.3516912053562181e-02  -2.3455552569926811e-05  2.7059646411240401e-01  2.7047337382715442e-01  2.3335104311701732e-01  4.7378554098774439e-01  3.5366492241171194e-01  2.6849681216213694e-01  2.7049396690191002e-01  2.6952771827984667e-01  2.1825051356265612e-01  8.6504041987377281e-02  -8.5596051945562343e-02  2.1743252124614945e-01  -1.3186473036063473e-01  5.9937935103173501e-01  6.3900139309443427e-01  4.7362724709096540e-02  -1.4362662195048464e-05  -1.0778696193696566e-01  3.6451108738930599e-01  2.2797048882945603e-01  -1.0256782213398813e-01  -7.2309111834694651e-05  1.1196943775771867e-01  -1.6426061092315469e-01  -1.1462941142151238e-01  2.6906383130497724e-01  7.6821344952551929e-01  -1.2425262733135265e-04  7.1495998737121446e-06  2.3009268107037945e-01  2.9350354551391705e-01  2.4495796035919204e-01  -3.1781091515527521e-02  2.7860715706676736e-01  -2.6207394034888548e-01  1.9163724370761448e+00  5.5739129556012425e-03  3.1225207746761311e-04  -1.9797524951446301e+00  -1.3954354286041344e-02  -1.5205642862040123e-02  3.0564969615781584e-01  5.0994527228490162e-02  -3.4178055616370873e-01  -4.4241302179901187e-01  -5.8994803869731072e-01  -4.5949659879671528e-01  -5.9652008135633250e-01  -4.7867730430851679e-01  -5.1404404151530436e-01  2.3878346307606485e-01  -7.1460645980681159e-01  -8.0734067815879640e-01  -4.9855061367728476e-01  -6.0524537633872122e-01  -8.6372292488086999e-01  3.1751668087045853e-01  -3.4548612304566295e-01  3.6105208441144188e-01  -3.3588469738540017e-01  -1.4895583892992612e-01  -9.5812812505664624e-01  -9.9740539681470575e-01  -7.8743737129665159e-01  -8.9516749699474041e-01  -9.1757889635177725e-01  -1.1091275784842707e+00  -1.3353617074405499e+00  -1.2054088190815060e+00  -5.6442723640548742e-01  4.1479936505418658e-01  -5.6972473481604535e-01  -1.2925377404319978e+00  -5.2601147197361964e-01  6.7506100515472700e-01  -5.5502812239063548e-01  6.1073311469956215e-01  -7.8113385880747876e-01  -9.3226089135109491e-01  -1.0417912934009808e+00  8.8702827289702257e-01  8.6512621032782389e-01  -1.1473254448908095e+00  1.0043049140767051e+00  1.0208945454535776e+00  -1.6340085334625980e+00  -1.6279604636371900e+00  -1.8674373606586347e+00  -1.5289595163959577e+00  1.3912341955206879e+00  1.9388126068851022e+00  1.6155598993396070e+00  1.6564186490087951e+00  1.8668882747917954e+00  -2.4292745086260634e+00  2.5031691506130986e+00  2.3648203651634763e+00  -1.8840637566494627e+00  4.4089495169142534e-01  3.4481949226975195e-01  6.0485040917092636e-01  -1.4940687449936052e+00  3.4972029514541090e+00  1.4616671935810677e-01  1.8426354393817677e+00  2.4270963979774507e+00  4.1963765114084989e-01  -2.4553671605384202e+00  1.2899716180061056e+00  5.6734858189791171e-01  -1.3332226792713125e-01  6.5874198425525832e-01  8.0932387718979693e-01  6.8932491215325398e-01  8.9197475377059310e-01  6.9036609764628487e-01  5.3442172900296259e-01  3.3215253865722150e-01  5.8679837221384079e-01  6.1776415583006949e-01  6.1181287245987415e-01  4.8592829416501149e-01  3.3141245726927054e-01  3.9353047672059105e-01  3.5596853551183266e-01  3.1599686790729575e-01  5.0909698992150221e-01  5.0516727711057571e-02  5.1788060200860819e-01  5.9333790041608803e-01  -5.2659773928057929e-01  -9.1714967886453624e-01  1.4832860258782166e+00  1.7160078474536498e+00  -2.3317685983773939e-02  -2.1732726198204482e+00  -2.1780917272340874e-01  -2.2220360423500529e-01  -4.6718914973432568e-01  6.3059458405499147e-01  7.4182103577459069e-01  7.2152506182641085e-01  -5.9603280602372366e-01  -1.5296889077245696e-01  -1.9933795963109573e+00  -5.2764334038480476e-01  4.9420540347251724e-01  -1.4517151900677498e+00  6.9606695071039648e-01  8.3103678706170181e-01  -8.2381381809886592e-02  -7.7586965160550220e-02  2.5490916810268927e-01  3.1052934410637006e-01  9.6914900012235439e-01  1.0399160105197975e+00  1.1966519459552443e+00  -3.6892868521038108e-01  -1.5289472024295336e-01  4.4111848035044099e-01  -6.5641569221722218e-01  -5.3399138784904132e-01  -1.9907242918639876e+00  -1.9269796955560705e+00  1.4797519009614191e+00  -2.1786630214800788e+00  -6.4707344139559819e-01  2.6637577369208017e-02  1.7159387865701639e+00  -1.1199831600988357e-02  3.7800970099423420e-01  3.3242452890658963e-01  3.0368362874842292e-01  3.2874028217969636e-01  2.8494180723445650e-01  2.8983253678317461e-01  2.6940842540114268e-01  -2.1847039304855526e-01  -2.5977670914417100e-01  -2.3630364786719960e-01  -1.1956655633888740e+00  -5.4071884983558793e-01  -6.7452794307342995e-02  1.7031207270683885e-02  7.6052385087154459e-03  1.3779310458717187e+00  1.0297425203037611e+00  -1.3964151149800177e+00  -1.8626970863684056e-01  5.1093305514317355e-01  4.3726937986102571e-01  4.3769876867327728e-01  -3.5748418043990106e-03  1.0690242830623988e+00  3.8953601275244221e-02  2.9279429376763549e-01  2.9314546640904732e-01  2.9340171985045965e-01  2.9227625483376662e-01  -2.9247945285588411e-01  2.8730186892436299e-01  2.6887330617972566e-01  2.6806123720352026e-01  2.6859030432432485e-01  2.6793989523328859e-01  -2.6748211805546229e-01  2.6693161615097682e-01  3.3252724846655651e-01  4.5327579967601700e-01  -6.2588355397673684e-02  -3.3803051068268269e-01  -8.0825838378101000e-01  4.4843916628208658e-01  -3.8619677615055714e-01  9.0975611219749702e-02  -2.2817907544040969e-01  -2.8436322251551399e-01  1.1552330441250865e-01  -2.7153922627232235e-01  -4.6534541998021217e-01  1.6309559874680260e-01  -2.1949448189468257e-01  -1.6746758836708300e-01  -2.5368370110473171e-01  -2.3533700028703985e-01  -6.8134535702719279e-01  6.2759387408963840e-01  6.6495889612385972e-01  -8.7251066480432771e-01  -7.0037248769611704e-01  2.6373361296007830e-01  -7.3321902342242529e-01  -7.3708068369261004e-01  6.0449929509768907e-01  -6.8130020825238513e-01  -7.0799302110666684e-01  -8.9111774811896349e-01  -7.3499466898071697e-01  2.7014551533886300e-01  -4.4144897089356766e-01  -2.4678592721988937e-01  -1.5991755554931830e-01  -2.5752018122023740e-01  1.0810022118149480e-01  -1.9840345541926277e-01  1.5315394421193401e-01  -1.8668435846751114e-01  5.9362135098603708e-01  -7.9911678423069699e-01  -5.0819546113828018e-01  5.1130328201540498e-01  -1.6566665848079051e-01  -1.8654797051400154e-01  -1.5413235906826883e-01  -1.7137257571912359e-01  -1.5546448621208361e-01  -1.5712658475758604e-01  -1.7182815876997412e-01  -1.5490535532186767e-01  -2.9190337814668837e-04  -9.6657423639683352e-04  1.8342971755759344e-03  -1.9451144088918773e-03  -1.6838271479580190e-03  3.0365456059032492e-01  7.4022091605851459e-01  -2.6905387754871513e-01  2.9785234872373051e-01  -2.4414811448056842e-01  2.8834507989482370e-02  2.3977753931970291e-01  -2.2597027970456063e-03  2.5507090378449804e-01  -1.6202977725073636e-01  2.6144476578025028e-01  3.5195168381172925e-01  -1.1684904662209959e-01  -3.2656582076440366e-01  1.0105472796358439e-01  2.5662922235164087e-01  -2.6022924517280988e-01  -2.6156235538393874e-01  2.6039970851539401e-01  -2.6412522959418405e-01  -2.6075921240982275e-01  2.6136433453650393e-01  -2.6605800061743595e-01  -2.6777671900524636e-01  2.6818159778841977e-01  -7.2949684843858886e-01  -7.1356380081218684e-01  2.9704309857293537e-01  2.7628461400382526e-01  2.7252678009906095e-01  2.7861480018249918e-01  2.7895861450916448e-01  2.5779112777614066e-01  -2.5972531036592106e-01  2.5880659259080452e-01  -2.6124613118787821e-01  -2.5776340254374752e-01  -2.5950238992290675e-01  -2.6133299853365505e-01  -2.5693034627263950e-01  -8.1069698381933086e-01  -3.9281103313101429e-01  -3.3795209984229119e-01  3.3246922207935253e-01  -2.2280983183581715e-01  -2.7834155988546755e-01  -6.3196311444599459e-02  2.1971064504633497e-01  4.0215267466887311e-01  4.3982974721654577e-01  3.1593522604328300e-01  -1.2706493462704131e-02  3.5683606896625780e-01  4.8833341530755403e-01  -1.5765180966922474e-01  1.6991037900756853e-01  -5.6125283010944830e-03  1.5600441888497704e-01  2.5855815652450631e-01  -1.5800953051205485e-03  2.6249805259711151e-01  1.1622708024580855e-01  -6.1964887212299999e-06  7.7897488811137386e-06  4.8469863053199016e-06  1.1632231497113763e-06  2.7046582500085914e-01  -2.7047553314237227e-01  2.7055463048731332e-01  2.7051717185511248e-01  2.7058651883266566e-01  2.7059105284008506e-01  6.1270185340307626e-01  4.3994706054231342e-01  3.5567132112355448e-01  5.8677888868995187e-01  4.7123051135837574e-01  6.0613307358058288e-01  2.7059158458927490e-01  -2.7049455427807628e-01  2.7062310644846832e-01  2.7049742570804503e-01  2.7060859073398408e-01  2.7055330702970537e-01  -4.5867961036329996e-01  3.3800758670878150e-01  2.1892559895152180e-01  2.4573773850848063e-01  2.1435518074573792e-01  5.2319777246560388e-02  -7.9942727190080498e-02  -1.2350843143469381e-01  2.1788391065715168e-01  2.1381157894607095e-01  2.1908574213921650e-01  2.1670506478977097e-01  2.1854500857925963e-01  -2.1804718377498947e-01  3.4481615037257551e-01  6.0161841382013093e-01  4.4288098769753581e-01  -6.5792301191761960e-04  2.6576241609791923e-01  5.0750138923561373e-02  5.5940136313872831e-05  2.6945666649825045e-01  2.7651751605831826e-01  2.6570555610694013e-01  3.2163737965235320e-02  -5.7614566161079633e-04  -2.0136801273348221e-04  2.3542040590278063e-01  2.8026914297836014e-01  2.1863226866942453e-01  -1.8063344276208246e-01  3.3374945599090289e-01  -1.5046611483304845e-01  2.8218108133774461e-01  2.2814673671387814e-01  -1.9126275077997695e-01  2.4620915206106020e-01  2.5632852514799181e-01  2.6215545915040017e-01  1.0125652106061893e-01  6.8436801635708436e-02  -1.0326923112533253e-01  -4.1093781885681059e-05  1.0454278043766888e-01  -1.6942176021930041e-04  -9.9499722306725005e-02  -9.9622111290257429e-02  -9.3960601882163916e-02  -1.0239629670154426e-01  -1.0293025488162032e-01  -1.0550770875330726e-01  -1.0885668610489106e-01  -1.0579416469919085e-01  6.7522321615898617e-01  8.0930164761216850e-01  5.0173626410810934e-01  2.7915732145301353e-01  8.9405132961421574e-01  4.6296786896476017e-01  7.0719607068535026e-07  1.7039770505735392e-06  2.0074677660737347e-05  -3.0865439072303388e-07  2.3112214334931414e-01  -2.3021865261733299e-01  2.1314974518587529e-01  2.2785178628710123e-01  2.3066047240481938e-01  2.6115200646445058e-01  1.2598459072944732e-01  -1.7037826055436675e-01  -1.3264202486021384e-01  -7.7081414131320320e-04  2.3138486505996081e-01  2.3969909958411506e-01  -1.2491883465362638e-01  6.2132425039601757e-01  5.6447423148927989e-01  6.7754668582775590e-01  1.9111018249872096e-02  1.3061327937363401e+00  7.5017966806041310e-04  4.2526302225898448e-05  -4.1705026692741287e-04  -4.2361289442277507e-04  -6.3674777401323578e-04  5.1753130646618872e-01  4.5206604811830331e-01  -5.2887326019432787e-02  7.3573830700171639e-01  -2.0764383525586194e-01  1.3608459628955156e+00  -3.0203054037928480e-02  -1.3897069742200083e+00  -3.2510312262796555e-02  1.0173424925592785e-01  2.4259289268782038e+00  -2.4480730509299864e+00  2.2743887463818183e-01  1.8804955808523209e+00  -4.1218767333695231e-03  2.7905629173963736e-03  1.4577643418429417e-01  2.7042020536486237e-02  1.0337014821520038e-01  2.2480898167056848e-03  -2.2783568750510191e-01  2.6492806523968165e-02  -5.5499506076400840e-01  -6.4683908093876241e-01  -5.5533004698117627e-01  -3.4125315766223413e-01  -7.8932243721776207e-01  5.9169981838632035e-01  8.2022921153096673e-01  -3.9737974781682306e-01  -5.8669201646793190e-01  -5.5394516009204597e-01  -6.4722726592550384e-01  -9.2760512646269344e-01  -1.0070844605043936e+00  -1.2742050787455101e+00  -1.2125998547132302e+00  -1.4375841275404080e+00  -1.4122355123265073e+00  -1.5962284225004078e+00  -2.1357693189326015e+00  7.3448457810371204e-01  -5.6710173239703299e-01  5.4123638467270563e-01  7.7089766464429188e-01  1.1952778039969167e+00  9.2778534397031909e-01  1.1105206981276106e+00  7.1091728491914785e-01  2.1042060495948087e+00  1.3666438241511905e+00  8.9421778087798232e-01  1.6079893774635718e+00  -1.2499647508846214e+00  6.2531185126091671e-01  7.6860363223060546e-01  6.9890138653545675e-01  4.9482640184989191e-01  4.7949693286734257e-01  -1.5444700972136012e+00  -9.9612535151953382e-02  1.9369032213344417e+00  1.3353643501467032e+00  7.6108002785681250e-01  1.1110003645205456e-01  5.5300644777633889e-01  5.9574270611902924e-01  3.1289904837103888e-01  3.3875517785026715e-01  3.3207376261517357e-01  2.8919097740728539e-01  4.5033958614020486e-01  3.0938948147338319e-01  2.8424959858142490e-01  2.6864085411275362e-01  3.2913608846104225e-01  4.4339738557225833e-01  4.7582867772609999e-01  2.8993678480990920e-01  1.6855466255049623e+00  -9.3513533434656737e-01  -1.9464642876260535e-01  1.4770905204562171e-01  -1.7049963383510197e-01  -1.8970741935145105e-01  4.0269939526677662e-01  -3.2320479042648997e-01  5.6294711350220628e-01  -1.2696512752198614e+00  4.3659314094554585e-01  5.4332733666227850e-01  5.5812674542836216e-01  6.7054905485317728e-01  -1.7408846946592263e-01  -1.2653259371381478e+00  -1.8182520505329267e-01  -3.1432315792365012e-01  -1.8367997405257119e-01  1.6867744183498932e+00  -2.8432450993589725e-01  -2.6077079441500300e-01  -2.1875404464445491e-01  -1.6773016087928158e-01  2.4643626649170674e-02  2.1133321625130658e-03  5.5712269521853330e-01  3.0962667582370257e-01  1.6083696747847943e-03  2.1578478329605869e-02  -2.8793429719962738e-01  -2.2912229541692888e-01  2.6973759936841268e-01  3.6956528382086401e-01  -2.5580508371217842e-01  -1.3044588199274293e-01  -2.3455688637141164e-01  -3.1222774338149251e-01  -2.5085107725201983e-01  -2.5982725063289824e-01  -2.3440124755028488e-01  -2.5307023501638837e-01  -7.4206819427201653e-01  2.7397702116704986e-01  2.4819430152894534e-01  -7.4455484177464704e-01  -2.3049229881507560e-01  2.7125693518495209e-01  -2.4983028376556987e-01  2.4504487485894669e-01  1.3697783542335318e-01  -9.3726887342735676e-01  -2.4773793412549577e-01  -2.3010480270585215e-01  4.4339928503277359e-01  3.2910637150859740e-01  -2.0184400339308048e-01  -1.3721493375375041e-01  -1.7273020539614103e-01  -1.5381589317622466e-01  -1.9685231243838802e-03  3.1540086468146090e-04  -2.1530022011462631e-03  -2.8390674911836440e-04  -2.5623856109789872e-01  2.5775710280410580e-01  -2.6944122102967599e-01  2.6870892314752298e-01  -2.6833097104279219e-01  -2.7009952291627959e-01  -2.6805631396607771e-01  2.6823382955346564e-01  2.7003218353640634e-01  -2.7008472782023402e-01  2.7006177697503453e-01  -2.5585884281629079e-01  -2.6940597134505123e-01  -3.0588250723064819e-01  -2.5548835159645988e-01  4.6409421554789121e-01  3.4761346485861411e-01  2.5100602397520383e-01  2.2205475997603241e-01  4.3178233718978559e-01  2.4094706688322440e-01  -8.9520363997780080e-04  -1.1713974379661596e-04  2.6452928015163768e-01  2.6983386022478789e-01  -2.7114112124690137e-01  -2.7117346458734792e-01  -2.7290183926250250e-01  2.6579678327726242e-01  2.1850616115090685e-01  6.9866286989742898e-01  4.4866510932531317e-01  2.6863991311691321e-01  2.5699711599652608e-01  2.6985018988618165e-01  2.6435725696376366e-01  -2.0739688490756583e-01  -8.6541160411415102e-02  -9.8661915132624983e-02  -8.2012529171334406e-02  -2.0968153240126106e-01  -1.0920399738906422e-01  7.6830597363072695e-01  4.6123206239836861e-01  -2.8080100005024107e-04  -4.6021191913728289e-05  -1.3239990126332338e-01  2.7678204965439168e-01  -2.2098246390508916e-01  2.2749083288877101e-01  -1.0623381455097224e-01  -1.1107716624205339e-04  -1.1531587084582588e-01  -7.2704626556882612e-04  -1.2657359220656447e-01  -2.226