<?xml version="1.0"?>
<VTKFile type="UnstructuredGrid"  version="0.1"  >
<UnstructuredGrid>
<Piece  NumberOfPoints="833" NumberOfCells="1536">
<Points>
<DataArray  type="Float64"  NumberOfComponents="3"  format="ascii">-1 1 0  -0.7500000000000002 1 0  -1 0.75 0  -0.5000000000000002 1 0  -0.4687317158419215 0.4687317158419215 0  -1 0.5000000000000002 0  -0.2500000000000001 1 0  -0.167322142694602 0.250983214041903 0  -0.250983214041903 0.167322142694602 0  -1 0.2500000000000001 0  1 1 0  0.9999999999979623 1.110223024622894e-16 0  1 0.2500000000000002 0  1 0.5000000000000002 0  1 0.75 0  0.75 1 0  0.5000000000000002 1 0  0.2500000000000001 1 0  0 0.9999999999979623 0  -0.02996239294911606 0.08988717884734818 0  -0.02199800931582472 0.02199800931582472 0  -0.08988717884734816 0.02996239294911605 0  -0.9999999999979623 0 0  0.4687317158419215 0.4687317158419215 0  0.0563135147094726 0 0  0.08988717884734816 0.02996239294911605 0  0.250983214041903 0.167322142694602 0  0.167322142694602 0.250983214041903 0  0.02996239294911605 0.08988717884734816 0  0 0.0563135147094726 0  -0.001332765915716535 0.00266553183143307 0  -0.00266553183143307 0.001332765915716535 0  -0.0563135147094726 0 0  -1 -0.2500000000000002 0  0.02199800931582472 0.02199800931582472 0  0.0009765624999999977 0 0  0.00266553183143307 0.001332765915716535 0  0.001332765915716535 0.00266553183143307 0  0 0.0009765624999999977 0  -2.157918606448279e-05 2.157918606448279e-05 0  -0.0009765624999999977 0 0  -0.08988717884734818 -0.02996239294911606 0  -1 -0.5000000000000002 0  2.157918606448279e-05 2.157918606448279e-05 0  9.536743164062467e-07 0 0  0 9.536743164062467e-07 0  -1 -0.7500000000000002 0  -9.536743164062467e-07 0 0  -0.00266553183143307 -0.001332765915716535 0  -0.250983214041903 -0.167322142694602 0  -1 -1 0  0 0 0  -0.4687317158419215 -0.4687317158419215 0  -2.157918606448279e-05 -2.157918606448279e-05 0  -0.02199800931582472 -0.02199800931582472 0  -0.7499999999999999 -1 0  0 -9.536743164062467e-07 0  -0.167322142694602 -0.250983214041903 0  -0.001332765915716535 -0.00266553183143307 0  -0.4999999999999993 -0.9999999999999986 0  0 -0.0009765624999999977 0  -0.02996239294911605 -0.08988717884734816 0  -0.2499999999999996 -0.9999999999999987 0  0 -0.0563135147094726 0  0 -0.9999999999979609 0  -0.8750000000000002 1 0  -1 0.8750000000000001 0  -0.8750000000000001 0.8750000000000001 0  -0.6250000000000002 1 0  -0.6093658579209609 0.7343658579209609 0  -0.7343658579209608 0.6093658579209608 0  -1 0.6250000000000001 0  -0.4843658579209609 0.734365857920961 0  -0.3750000000000002 1 0  -0.3336610713473011 0.6254916070209517 0  -0.734365857920961 0.4843658579209609 0  -0.3180269292682618 0.3598574649419123 0  -0.3598574649419123 0.3180269292682618 0  -0.6254916070209517 0.3336610713473012 0  -1 0.3750000000000002 0  -0.2086610713473011 0.6254916070209517 0  -0.1250000000000001 0.9999999999989814 0  -0.1399811964745581 0.5449435894236743 0  -0.2091526783682525 0.2091526783682525 0  -0.09864226782185904 0.1704351964446256 0  -0.09466007600521337 0.1364906116788639 0  -0.6254916070209517 0.2086610713473011 0  -0.1364906116788639 0.09466007600521338 0  -0.1704351964446256 0.09864226782185904 0  -0.5449435894236743 0.1399811964745581 0  -0.9999999999989814 0.1250000000000001 0  1 0.8750000000000001 0  0.8750000000000001 1 0  0.7343658579209609 0.7343658579209609 0  0.9999999999989814 0.1250000000000002 0  0.5281567573537175 5.551115123114471e-17 0  1 0.3750000000000002 0  0.5281567573547366 0.1250000000000001 0  0.5449435894236743 0.1399811964745581 0  1 0.6250000000000001 0  0.5449435894236743 0.2649811964745581 0  0.6254916070209517 0.3336610713473012 0  0.7343658579209608 0.6093658579209608 0  0.6254916070209515 0.4586610713473011 0  0.6250000000000001 1 0  0.6093658579209608 0.7343658579209608 0  0.4586610713473011 0.6254916070209515 0  0.3750000000000002 1 0  0.3336610713473012 0.6254916070209517 0  0.2649811964745581 0.5449435894236743 0  0.1250000000000001 0.9999999999989814 0  0.1399811964745581 0.5449435894236743 0  0.1250000000000001 0.5281567573547366 0  -0.01498119647455803 0.5449435894226552 0  0 0.5281567573537175 0  -0.02598020113247039 0.05594259408158644 0  -0.01498119647455803 0.07310034677841039 0  -0.0156475794324163 0.04627635533939062 0  -0.05594259408158644 0.02598020113247038 0  -0.01166538761577062 0.01233177057362889 0  -0.01233177057362889 0.01166538761577062 0  -0.5449435894226552 0.01498119647455803 0  -0.04627635533939062 0.01564757943241629 0  -0.07310034677841037 0.01498119647455803 0  -0.5281567573537175 0 0  -0.9999999999989814 -0.1250000000000001 0  0.3598574649419123 0.3180269292682618 0  0.3180269292682618 0.3598574649419123 0  0.2453648625788731 0.2453648625788731 0  0.07310034677841037 0.01498119647455803 0  0.0286450386047363 0 0  0.1704351964446256 0.09864226782185904 0  0.04543187067367408 0.01498119647455803 0  0.04627635533939062 0.01564757943241629 0  0.1364906116788639 0.09466007600521338 0  0.1268243729366681 0.0843274543051593 0  0.09864226782185904 0.1704351964446256 0  0.09466007600521338 0.1364906116788639 0  0.0843274543051593 0.1268243729366681 0  0.01498119647455803 0.07310034677841037 0  0.01564757943241629 0.04627635533939062 0  0.01498119647455803 0.04543187067367408 0  -0.0006663829578582675 0.02948952327045283 0  0 0.0286450386047363 0  -0.001999148873574802 0.001999148873574802 0  -0.0006663829578582675 0.001821047165716534 0  -0.0006771725508905089 0.001343555508748776 0  -0.02948952327045283 0.0006663829578582675 0  -0.001343555508748776 0.0006771725508905089 0  -0.001821047165716534 0.0006663829578582675 0  -0.5281567573547366 -0.1250000000000001 0  -0.0286450386047363 0 0  -0.07310034677841039 -0.01498119647455803 0  -0.5449435894236743 -0.1399811964745581 0  -1 -0.3750000000000002 0  0.01233177057362889 0.01166538761577062 0  0.01166538761577062 0.01233177057362889 0  0.0110097942509446 0.0110097942509446 0  0.001821047165716534 0.0006663829578582675 0  0.0004887580871582019 0 0  0.001343555508748776 0.0006771725508905089 0  0.001333242752874738 0.0006663829578582675 0  0.0006663829578582675 0.001821047165716534 0  0.0006771725508905089 0.001343555508748776 0  0.0006663829578582675 0.001333242752874738 0  -1.078959303224139e-05 0.0004990708430322403 0  0 0.0004887580871582019 0  -0.0004990708430322403 1.078959303224139e-05 0  -1.078959303224139e-05 1.126643019044452e-05 0  -1.126643019044452e-05 1.078959303224139e-05 0  -0.04543187067367409 -0.01498119647455803 0  -0.0004887580871582019 0 0  -0.001821047165716534 -0.0006663829578582675 0  -0.5449435894236743 -0.2649811964745581 0  -0.04627635533939062 -0.0156475794324163 0  -0.1704351964446256 -0.09864226782185904 0  -1 -0.6250000000000002 0  -0.6254916070209517 -0.3336610713473011 0  1.126643019044452e-05 1.078959303224139e-05 0  1.078959303224139e-05 1.126643019044452e-05 0  1.078959303224139e-05 1.078959303224139e-05 0  4.768371582031234e-07 0 0  -4.768371582031234e-07 4.768371582031234e-07 0  0 4.768371582031234e-07 0  -0.6254916070209516 -0.4586610713473011 0  -1 -0.8750000000000002 0  -0.7343658579209609 -0.6093658579209609 0  -0.001333242752874738 -0.0006663829578582675 0  -4.768371582031234e-07 0 0  -1.126643019044452e-05 -1.078959303224139e-05 0  -0.1268243729366681 -0.08432745430515928 0  -0.001343555508748776 -0.0006771725508905089 0  -0.01233177057362889 -0.01166538761577062 0  -0.3598574649419123 -0.3180269292682618 0  -0.1364906116788639 -0.09466007600521337 0  -0.7343658579209608 -0.7343658579209609 0  -0.875 -1 0  -1.078959303224139e-05 -1.078959303224139e-05 0  0 -4.768371582031234e-07 0  -0.2453648625788731 -0.2453648625788731 0  -0.6093658579209607 -0.7343658579209608 0  -0.3180269292682617 -0.3598574649419122 0  -0.0110097942509446 -0.0110097942509446 0  -1.078959303224139e-05 -1.126643019044452e-05 0  -0.0006771725508905089 -0.001343555508748776 0  -0.09466007600521335 -0.1364906116788639 0  -0.01166538761577062 -0.01233177057362889 0  -0.4586610713473009 -0.6254916070209515 0  -0.6249999999999996 -0.9999999999999993 0  -0.0006663829578582675 -0.001333242752874738 0  0 -0.0004887580871582019 0  -0.08432745430515927 -0.126824372936668 0  -0.3336610713473006 -0.6254916070209507 0  -0.09864226782185902 -0.1704351964446256 0  -0.0006663829578582675 -0.001821047165716534 0  -0.01564757943241629 -0.04627635533939062 0  -0.2649811964745576 -0.5449435894236734 0  -0.3749999999999994 -0.9999999999999987 0  -0.01498119647455803 -0.04543187067367408 0  0 -0.0286450386047363 0  -0.1399811964745578 -0.5449435894236734 0  -0.01498119647455803 -0.07310034677841037 0  -0.1249999999999998 -0.5281567573547357 0  -0.1249999999999998 -0.9999999999989797 0  0 -0.5281567573537167 0  -0.9375000000000002 1 0  -1 0.9375000000000002 0  -0.9375000000000002 0.9375000000000002 0  -0.8125000000000002 1 0  -0.8125000000000002 0.9375000000000002 0  -0.6875000000000002 1 0  -0.6796829289604805 0.8671829289604805 0  -1 0.8125 0  -0.9375 0.8125 0  -0.8046829289604804 0.7421829289604804 0  -0.8671829289604804 0.6796829289604804 0  -1 0.6875 0  -0.5625000000000002 1 0  -0.5546829289604805 0.8671829289604807 0  -0.4921829289604805 0.8671829289604807 0  -0.4375000000000002 1 0  -0.4168305356736507 0.8127458035104761 0  -0.5390487868814412 0.6015487868814412 0  -0.6015487868814411 0.5390487868814411 0  -0.4765487868814412 0.6015487868814412 0  -0.4011963935946113 0.5471116614314366 0  -0.6015487868814412 0.4765487868814412 0  -0.3933793225550916 0.4142945903919169 0  -0.4142945903919169 0.3933793225550916 0  -0.5471116614314366 0.4011963935946113 0  -0.8671829289604807 0.5546829289604804 0  -1 0.5625000000000002 0  -0.8671829289604807 0.4921829289604805 0  -0.8127458035104761 0.4168305356736507 0  -1 0.4375000000000002 0  -0.3125000000000001 1 0  -0.2918305356736506 0.8127458035104761 0  -0.2293305356736506 0.8127458035104761 0  -0.1875000000000001 0.9999999999994909 0  -0.1949905982372791 0.7724717947118374 0  -0.2504916070209516 0.4382374105314274 0  -0.
[...]
<PointData  Scalars="u"> 
<DataArray  type="Float64"  Name="u"  format="ascii">1.2599779343750355e+00  1.1552422735570786e+00  1.1553389953584492e+00  1.0528922431645626e+00  7.5854809892497665e-01  1.0528918622260452e+00  9.5542565519115952e-01  4.4233226925897778e-01  4.4294488015658606e-01  9.5542570239452296e-01  6.3014126088345956e-01  -8.1357808130397204e-04  1.6628371551930168e-01  3.2764216727161105e-01  4.8292123962462757e-01  6.7284296887880068e-01  7.2549051491041816e-01  7.8928666843893103e-01  8.6657550566848784e-01  1.9858887635161634e-01  1.0085357993922238e-01  1.9863052167561579e-01  8.6657550936061101e-01  3.7927977282381042e-01  5.3547706116184209e-03  4.8023893051487777e-02  1.6981452980732201e-01  2.7090626655062205e-01  1.5238375731540468e-01  1.3315727517828488e-01  2.8917887875962344e-02  2.9812074948393660e-02  1.3316031186485572e-01  7.8928667126900887e-01  4.9259521656875374e-02  6.7952597109945528e-03  1.2038859657282183e-02  2.1018107300254912e-02  2.2111389621586885e-02  -2.8444434065386358e-06  2.1978696793702162e-02  1.5261585398570141e-01  7.2549051652398622e-01  1.3764990642131897e-03  1.2069053915969309e-04  3.9531573721654533e-05  6.7284296694805412e-01  3.9663086011865229e-05  2.0997253210581598e-02  2.7090801048580609e-01  6.3014125951016697e-01  -1.7043191701111534e-05  3.7920653494936568e-01  5.6653975967784886e-04  4.9477985940512226e-02  4.8292123732560982e-01  1.2054381642510100e-04  1.6981564912604999e-01  1.2023108203173495e-02  3.2764216333193596e-01  6.7795528190621717e-03  4.8025404771661839e-02  1.6628371659104693e-01  5.3551980520115455e-03  -8.1358419898431504e-04  1.2074954274434606e+00  1.2074987571132583e+00  1.1525318752338878e+00  1.1034110748781063e+00  9.6670583403034471e-01  9.6687863625822468e-01  1.1032994086397159e+00  9.0884275368865108e-01  1.0029113018185407e+00  7.7904021821098679e-01  9.0884550842542833e-01  6.0993770255977675e-01  6.1001867347143213e-01  7.7911460353382844e-01  1.0026557347728171e+00  7.2001121628331433e-01  9.0925224268605709e-01  6.3907661050930187e-01  4.4006558990143041e-01  3.2741996144662266e-01  2.9617675333572580e-01  7.2001325071359068e-01  2.9625204225940749e-01  3.2851291965344392e-01  6.3840244097734833e-01  9.0887821186065787e-01  5.5726624506781486e-01  6.5027817203539162e-01  5.1272030142545111e-01  8.2769456610573292e-02  -2.2201954940602787e-03  2.4744212111343836e-01  1.0290450058343245e-01  1.1379006447484113e-01  4.0604545231972111e-01  2.1343930722673921e-01  2.5451631938841757e-01  4.3166915668569200e-01  3.4563600952030471e-01  6.9757398163648665e-01  5.3508683395114687e-01  4.9440591496146136e-01  7.5568385713263153e-01  5.2337908449452486e-01  4.8636004304740549e-01  8.2654864710077225e-01  5.2503629766243853e-01  5.1789204053555227e-01  5.8351258336790801e-01  5.6704119629516958e-01  1.5266058727606133e-01  1.6641037620732643e-01  1.2960373522737839e-01  1.5263675816225450e-01  6.6272723234547595e-02  6.6057291432643814e-02  5.8351219111567276e-01  1.2920649560042749e-01  1.6654142718570250e-01  5.6639988568113409e-01  8.2654866342625022e-01  2.8330871253313195e-01  3.2652227128006506e-01  2.4603825795039133e-01  2.3601490183417399e-02  1.4687110057945855e-04  1.1392743205340178e-01  2.7485307231909412e-02  2.9228436151924320e-02  1.1714001715337145e-01  1.0648867614793550e-01  2.1265574252558980e-01  1.7781593531491124e-01  1.7004616691194721e-01  1.4249964800823994e-01  9.8543528543870523e-02  9.7786649636182069e-02  8.2163176331876406e-02  8.0373386915373671e-02  2.6748086374946297e-02  2.0462733477257293e-02  1.6701446553909902e-02  8.2170955070420201e-02  1.7034532668273678e-02  2.1050862628386142e-02  5.1789155854905000e-01  7.9736109443011349e-02  1.4250204469677419e-01  5.2493458828643391e-01  7.5568385774581104e-01  3.2692164296590560e-02  3.3368718260614057e-02  3.1746422720707955e-02  8.9043142159272101e-03  3.1228516631516507e-04  8.8236188307275042e-03  6.4274441971975162e-03  2.1533806667624781e-02  6.8704232731632382e-03  5.8628389398955386e-03  2.5699834985580508e-03  2.5416543312094947e-03  2.5692063533881955e-03  8.8618676529097931e-05  7.5246468705558676e-05  9.7770448661850806e-02  2.2770358865674485e-03  2.1424387495843491e-02  4.8636012202125167e-01  9.9660216262654200e-02  2.1265839820676607e-01  6.9757398128354275e-01  5.2387056874727445e-01  2.9114532703761973e-04  2.0488681870113476e-04  2.6726016141973696e-04  1.3338624132554827e-05  -1.6390307638404466e-06  5.9093830791502008e-06  4.9411794109731111e-01  6.5027817166663060e-01  5.3536602035679504e-01  5.8727020354101336e-03  -1.8956448984397495e-05  2.0522744320341908e-04  1.7004973631097584e-01  5.8539956181699474e-03  3.3358673349217299e-02  3.2652295669306775e-01  1.7817650976865343e-01  5.1267221307196786e-01  5.5721612154237321e-01  2.6754981898310774e-04  1.3307116393554923e-05  2.4527807012945504e-01  4.3166923913007499e-01  2.8328764693808017e-01  3.1732378067291282e-02  3.4805158577285475e-04  8.8035363144118080e-03  1.1714183793887924e-01  3.3274081105026193e-02  3.4582320583906445e-01  4.0589706206176251e-01  6.4146155013998498e-03  3.5400681522415142e-05  1.0649003405098148e-01  2.5390652748857218e-01  1.1446575738111189e-01  9.0286780903627087e-03  2.7925789190142877e-02  2.1343956787371746e-01  2.4704935695154742e-01  2.7116463621026765e-02  -2.6732488411567302e-04  1.1337700558410711e-01  2.5537749962013974e-02  1.0290467683987690e-01  8.2581281440842300e-02  -1.8481134492388356e-03  1.2336571264593170e+00  1.2336569711928285e+00  1.2068709491969951e+00  1.1813067896076122e+00  1.1531509396281543e+00  1.1292141884373590e+00  1.0630008468214387e+00  1.1813117178663355e+00  1.1532072588887603e+00  1.0613606320342355e+00  1.0631333575835042e+00  1.1292137216171010e+00  1.0779312067334677e+00  1.0083062102297502e+00  9.8129964106216805e-01  1.0275193138902017e+00  9.2101231121899696e-01  8.6556203457605585e-01  8.6565676395003333e-01  8.3444716916206119e-01  7.6643742540770488e-01  8.3446293544004602e-01  6.8608843711679457e-01  6.8622522889760107e-01  7.6644268896002532e-01  1.0083957724810786e+00  1.0779310038330097e+00  9.8129954222949778e-01  9.2101464296334956e-01  1.0275193341415605e+00  9.7881181075937229e-01  8.6726458214596769e-01  8.4146678328819136e-01  9.3177561239063655e-01  8.0468713498427569e-01  6.2292754027828456e-01  5.2831290943520914e-01  5.2810262239978156e-01  5.8871248896398409e-01  5.4168068391738367e-01  4.4068463550060483e-01  3.8599451928262540e-01  3.7169850246817088e-01  3.7049896084412154e-01  5.2835464525263209e-01  6.2278805005052740e-01  4.4062406412774197e-01  5.8870798296526072e-01  3.7172428540586760e-01  3.8598146395379240e-01  5.4158156134235902e-01  8.6744692539648849e-01  9.7881181169869047e-01  8.4146840693127190e-01  8.0468913018947741e-01  9.3177559127405107e-01  5.9380634637160801e-01  6.3986917140298349e-01  5.7294885595102951e-01  4.1741509199376782e-02  1.9655711753416749e-04  4.4653206964600921e-02  1.2455608507808603e-01  2.0663556901246316e-01  1.3632648170211772e-01  1.4094409118522444e-01  1.8516318640956383e-01  2.8714651951258963e-01  3.6691151987130094e-01  2.7268610238864838e-01  2.9438369706931539e-01  3.3455560353238717e-01  5.2017206359771873e-01  4.9629280589238706e-01  4.4454005293951099e-01  4.5720485707272041e-01  4.1726156963050126e-01  6.6107621678332362e-01  5.9398819937081471e-01  6.8477400600440796e-01  6.0543692016138562e-01  5.8681733889838739e-01  7.1090527899364697e-01  6.1304732956800345e-01  7.4037743546109358e-01  6.2667494890717013e-01  6.1160498809211217e-01  7.7199221631842485e-01  6.4501189285233529e-01  8.0730339339976909e-01  6.6366612135368430e-01  6.6043645617149149e-01  8.8753112292560854e-01  7.5441547469568671e-01  8.4577385218540890e-01  7.0184309352068985e-01  7.3129914169194743e-01  7.2343161255836830e-01  4.4762120670984601e-01  2.6536722462267542e-01  2.4868586298676634e-01  4.1308555880125236e-01  4.0161741467610840e-01  1.7636703519397579e-01  1.8268818562419925e-01  1.6656091127516337e-01  2.1318613933021910e-01  2.1349199448078945e-01  1.2734927487786210e-01  1.1420422592819776e-01  1.2732272392302921e-01  8.3942351809590227e-02  8.3879275011485455e-02  1.1431750188107642e-01  2.4898727280521243e-01  2.6537548249586185e-01  4.4680108930786117e-01  1.7638833370590251e-01  4.1307926031188674e-01  1.6632286264070370e-01  1.8271428833562856e-01  3.9926330711058500e-01  7.5476554944588248e-01  8.8753114466253136e-01  7.3129953792911484e-01  7.2343203403173062e-01  8.4577384730040284e-01  7.0224080679459089e-01  4.4883638634770218e-01  4.0544901349681056e-01  3.6134605574601081e-01  4.6050372054859651e-01  4.3709234129115043e-01  3.3266965516288222e-01  3.5283757182371001e-01  3.1636873017885303e-01  -1.0599790250397805e-03  6.4839019235318471e-02  1.4141856513232532e-02  -1.1073992074637531e-04  1.3729392099376885e-02  7.2275401065932457e-02  8.1183948063033987e-02  1.4239131842632599e-01  3.5372782700184041e-02  8.1772715024881093e-02  3.6855077989428893e-02  3.6850902772757807e-02  7.7143464833382330e-02  1.9101636322390347e-01  2.1444657223582109e-01  2.6586428990171845e-01  2.2857311171683786e-01  2.0793101409552800e-01  1.4287213160088474e-01  1.4397808557344785e-01  1.4014698963402475e-01  3.9226477066370879e-01  4.0854838420764233e-01  3.8546356579280916e-01  2.9895028200383239e-01  2.5772948869459872e-01  2.4204586867532535e-01  2.2628956569170999e-01  2.2332043822313216e-01  3.4222600363897815e-01  3.6718243415961016e-01  3.6146486953458917e-01  1.8155583936575984e-01  1.5925584827810205e-01  1.4684957255113146e-01  1.2777823764274188e-01  1.2818491119462241e-01  3.5258079506923878e-01  3.8295808662396852e-01  1.4885530291892166e-01  1.2922238109081371e-01  1.3752398540406857e-01  1.1401048993032206e-01  1.0709639411763809e-01  1.0627573361205174e-01  8.4801781853825225e-02  4.6503710003288547e-02  4.6460253372557749e-02  5.5104000403227438e-02  5.4507900170460109e-02  2.7247006334463822e-02  3.0010498217123677e-02  2.3923908835554300e-02  2.2370736061155881e-02  4.6530189550321531e-02  8.4823196096088155e-02  2.6826161448711684e-02  5.5084703513580698e-02  2.3305829134473280e-02  3.0701254281928009e-02  5.4099706878884379e-02  1.2917534058259428e-01  1.4885790973025789e-01  3.8296103792814723e-01  1.0709102946322126e-01  3.5258407621973947e-01  1.0625507394483312e-01  1.3752633276036064e-01  1.1400830704739422e-01  8.0730339878173329e-01  6.6059643499185849e-01  6.6366621574957929e-01  7.7199221771270710e-01  6.4501196376781156e-01  1.6717073619903194e-01  8.5418913578058697e-02  7.9583176768140876e-02  1.2354625688041204e-01  1.1614692936448764e-01  4.0721974924861258e-02  4.3235478741086644e-02  4.1718903440184522e-02  4.5177113767815713e-04  1.8053544576205682e-02  7.6102164538580748e-03  2.4753628989406534e-05  5.6182061019617374e-03  1.7987063777863906e-02  1.8816836099255649e-02  6.9322791248596777e-02  2.4562539895807312e-02  2.6876164353313643e-02  1.0014863973026301e-02  8.0810451631945363e-03  5.4636609290054441e-03  1.1650290261096732e-01  6.0613534559437937e-02  6.1676032729442290e-02  2.5889065551901215e-02  2.6078741794765891e-02  1.4894717765246623e-02  1.7889112226208734e-02  1.8799118370019578e-02  5.5715269072376568e-02  5.0136359926844815e-02  8.9554146219795235e-03  1.3439617232808706e-02  2.2334657086026111e-02  5.2323665852363347e-03  2.0609075334214804e-03  2.9446139942011702e-03  7.1149596766802549e-03  7.1916148851422874e-03  1.5471632099042609e-03  1.3603574039837249e-03  1.5399783094242898e-03  1.0272263370523043e-04  1.3903804421090180e-04  1.4771564624157425e-03  1.6663288712994603e-02  1.1744473292664755e-02  5.0177913341434656e-02  2.0850536536314163e-03  5.5800077990366119e-02  2.9618227750918620e-03  2.2209638531949460e-02  5.2501390700873899e-03  3.6146721661288228e-01  1.4685131088093603e-01  3.6515117888181758e-01  1.2795863863557161e-01  3.4222783249025207e-01  1.2777814988122280e-01  1.8155868970750322e-01  1.5925810818120714e-01  7.4037743895155528e-01  6.1219619275652370e-01  7.1090527954485450e-01  6.2667499628853385e-01  6.1336464794832324e-01  3.5421217377280156e-02  3.5805268760218082e-03  2.1736169342506423e-03  3.5827202902799032e-03  5.4323350062514325e-03  3.5909904936430267e-04  2.8058721172826041e-04  3.1831915390104763e-04  3.9219632600022094e-05  5.0028731181151146e-03  2.2356935257412141e-04  2.1916505833591895e-04  3.2284511092156808e-05  2.2338342080384741e-03  1.2965990691835049e-03  1.9878813425860081e-05  1.9300990662250189e-05  4.4560635174834550e-05  1.5977984955310200e-04  -2.4309105093318118e-06  -5.6789953430417976e-06  6.8477400589259507e-01  5.8660209866094715e-01  6.6107621698746333e-01  6.0543695206385462e-01  5.9397671663860663e-01  9.7260593082447537e-06  1.2944841253882363e-03  -1.5503186918761784e-06  2.2433948453853933e-03  -5.5996264705192577e-06  4.4906983912849219e-05  1.5991567750039897e-04  6.1683114697044947e-02  1.4868911790519510e-02  6.0606710889046740e-02  1.7980152047605825e-02  1.1366305397582248e-01  1.7841686030395151e-02  2.5871497008407809e-02  2.6065626228776766e-02  3.8546457095955500e-01  2.4204809108411929e-01  4.0877538534102759e-01  3.9226523136412594e-01  2.2332260604353371e-01  2.9895141210842052e-01  2.2629191807327106e-01  2.5775201913488183e-01  6.3986917142191146e-01  5.7287686096244339e-01  5.9380634639013119e-01  1.6115972887676867e-04  1.7345199137439199e-05  -3.0985180837678143e-06  -2.7415407247747025e-06  -2.7059855201749885e-06  1.6126118028522794e-04  1.7298735390212836e-05  4.3707166006568676e-01  4.6061223123899636e-01  3.5283802853951562e-01  4.4883651123186680e-01  3.1592815205908081e-01  4.0544917009815234e-01  3.3267010649347140e-01  3.6133980233984742e-01  5.4284448171473803e-03  2.8093813288292298e-04  7.4002715530265559e-03  2.2845432118690290e-04  3.5362357148779749e-02  3.5908398424549755e-04  3.5758092122302838e-03  2.1736121611731682e-03  1.1614859958401390e-01  4.3221740802318012e-02  1.1854176963395688e-01  1.6717613801821979e-01  4.2497684519870398e-02  8.5421530244743651e-02  4.0713936158008765e-02  7.8449752126022745e-02  4.9629581947418172e-01  5.2017206381432213e-01  4.5720489129000580e-01  4.1726162318789262e-01  4.4454005281074982e-01  2.1912872898914942e-04  3.2199066867211354e-05  2.2325588747459696e-04  2.3299294237724482e-03  3.8900950687014595e-05  2.0794031334574903e-01  2.2857398487136668e-01  1.4397969827373322e-01  2.6580260145482731e-01  1.3953712314585998e-01  2.1354538245218282e-01  1.4287355540263386e-01  1.9101686008795163e-01  2.6853019375852018e-02  8.0717149179755192e-03  2.4539015481378768e-02  5.4642668414646304e-03  7.0539941300850201e-02  9.9977954895577696e-03  1.8808048868223806e-02  1.8611274335091844e-02  3.3455567583143353e-01  3.6691151962619073e-01  2.9438378491251438e-01  2.7324916116105125e-01  2.8714651556115817e-01  2.9686873778415898e-03  2.4681388241024514e-05  7.5942554320188897e-03  1.7356198760890749e-02  4.5072386175674646e-04  7.7144687786293020e-02  8.2435667769553259e-02  3.6852064755185571e-02  1.4188903187730473e-01  3.7064749004314328e-02  8.0709206934639982e-02  3.5373888223693861e-02  7.2275626797074430e-02  1.8516326968834379e-01  2.0663556858570356e-01  1.4094416200515991e-01  1.3649347173603071e-01  1.2455608451620125e-01  1.3796311474876080e-02  -8.8503350471422218e-05  1.4142415346277689e-02  6.1588347542959256e-02  -1.0600496585063143e-03  4.5232401074332150e-02  4.1741509766688327e-02  1.9655879650744564e-04  1.1800058083501170e+00  1.1800147067860758e+00  1.0614779126285190e+00  1.0355603337843673e+00  9.6582601256280354e-01  9.3758340257272432e-01  1.0355642733696873e+00  9.3760536513080206e-01  8.4429700419700615e-01  8.9368117187132667e-01  6.9514170652332430e-01  7.4899503309124593e-01  8.4430334043022381e-01  6.0965189409962017e-01  6.9514883093524893e-01  5.2784898117385537e-01  8.9368334362597646e-01  7.4899916244769371e-01  6.7918420325747653e-01  7.7891172541771170e-01  4.9448611503142392e-01  6.0982832842670243e-01  3.7072593147008120e-01  3.1192114051716602e-01  2.9533416624669595e-01  2.3095662277203063e-01  6.7918497678346113e-01  3.1193172646180051e-01  2.3114709749778561e-01  4.9448006090280899e-01  7.7891284331624866e-01  6.0982791256776836e-01  5.3476127870528700e-01  5.8313996135556756e-01  4.7225789273214042e-01  5.2354090114775920e-01  9.0693896907000346e-02  5.0306743411102028e-02  2.2951667467009965e-01  1.0811725424542468e-01  6.8914403144194850e-02  1.6299390080964316e-01  3.7597558302022543e-01  2.3275465645042420e-01  1.6623728122265008e-01  3.0000586909954996e-01  3.8909556519822891e-01  3.1413776992358172e-01  5.9963393552457966e-01  5.1432720564895884e-01  5.0858415700305482e-01  4.1397413383109488e-01  6.2746751365017928e-01  5.0510603487022876e-01  5.0471301287375481e-01  3.6363103306590078e-01  6.8045996324582048e-01  5.2181109862717145e-01  5.4103415576384262e-01  3.5750644578156177e-01  5.7464351605300412e-01  3.9084646297878894e-01  1.4093684698878597e-01  1.4838812882615288e-01  9.9538001405183610e-02  1.0663694524400165e-01  1.4091581427055017e-01  6.6301666458443473e-02  9.9533201874804231e-02  4.6681914136900919e-02  5.7464291259038136e-01  1.4838496352602046e-01  1.0662993087771581e-01  3.9084566330041010e-01  5.4103315906999572e-01  6.8046014167894187e-01  2.6376204351028315e-01  2.8661741754664177e-01  1.8486280784807066e-01  2.1157744126907674e-01  2.6145696016750430e-02  1.4480898883296159e-02  1.1024232123434066e-01  2.8000743601502356e-02  1.7893824635371189e-02  7.2822415711337393e-02  1.1176773461575602e-01  7.4675122826887388e-02  1.9196603938281070e-01  1.7447619475404574e-01  1.3428119737356564e-01  1.1570648487026140e-01  1.2114626671576623e-01  9.9321342865896611e-02  8.8194396345657997e-02  6.0832445114179033e-02  8.1158133173368327e-02  5.2078740390512510e-02  2.2563375246786387e-02  1.9114275026180818e-02  1.6193046427525989e-02  9.6708990321321912e-03  8.1162092555497986e-02  1.9117695289599723e-02  9.6533787381961941e-03  5.2126206295866909e-02  3.5750881138177287e-01  5.2181076690872585e-01  8.8188904051426820e-02  1.2114522585355610e-01  5.0471299394673053e-01  6.2746758692041615e-01  3.1980715021783360e-02  3.2206695633916281e-02  2.5064274700946451e-02  2.7979760404150008e-02  5.5291061265381729e-03  3.0008327353860196e-03  8.2277035155933955e-03  2.4419886883802842e-03  1.0234021837958136e-02  7.1478099884433851e-03  4.9776900346425405e-03  5.1784834417907804e-03  2.5730893364617705e-03  1.3516465006612015e-03  2.5713368994184070e-03  8.1882680618723070e-05  1.3477668458990151e-03  1.0785798323828660e-05  6.0842930971729943e-02  9.9315434956477391e-02  4.9857234132650793e-03  1.0226317442458331e-02  3.6363237887810318e-01  5.0510618279611330e-01  1.3428210858566489e-01  1.9196908418753875e-01  5.9963399149014651e-01  5.0858430228665397e-01  2.8664022509395910e-04  2.5861083437322881e-04  2.0402426997563641e-04  1.7775463290408753e-04  -6.8889441751508958e-07  -5.9004869351039314e-07  5.1432731794410624e-01  4.1397448161262834e-01  5.8313998119564825e-01  5.2354096758121316e-01  5.1752198529042689e-03  7.1443523028860145e-03  1.7784120553427090e-04  2.5893158660686124e-04  1.1570949121333690e-01  1.7447957096046451e-01  2.7955204600634116e-02  3.2193877784663476e-02  2.8661835486867338e-01  2.1157961814503168e-01  5.3476129892499003e-01  4.7225796137660914e-01  2.0403368563338939e-04  2.8684151156554077e-04  2.6376290738619090e-01  1.8486445938293450e-01  3.8909568920773546e-01  3.1413809972716655e-01  2.5045474858029406e-02  3.1965497420033753e-02  2.4409138154713114e-03  8.2096357016254468e-03  1.1176931109848731e-01  7.4677768679906928e-02  3.7597564811724354e-01  3.0000605282935905e-01  2.9969400258445986e-03  5.5213282742305357e-03  1.1024404796925713e-01  7.2823740918072699e-02  2.3275487903633693e-01  1.6623784025150293e-01  1.7887443676534068e-02  2.8001502711034479e-02  2.2951676606663352e-01  1.6299412427876744e-01  1.4479328296411026e-02  2.6146682855290634e-02  1.0