<?xml version="1.0"?>
<VTKFile type="UnstructuredGrid"  version="0.1"  >
<UnstructuredGrid>
<Piece  NumberOfPoints="3201" NumberOfCells="6144">
<Points>
<DataArray  type="Float64"  NumberOfComponents="3"  format="ascii">-1 1 0  -0.7500000000000002 1 0  -1 0.75 0  -0.5000000000000002 1 0  -0.4687317158419215 0.4687317158419215 0  -1 0.5000000000000002 0  -0.2500000000000001 1 0  -0.167322142694602 0.250983214041903 0  -0.250983214041903 0.167322142694602 0  -1 0.2500000000000001 0  1 1 0  0.9999999999979623 1.110223024622894e-16 0  1 0.2500000000000002 0  1 0.5000000000000002 0  1 0.75 0  0.75 1 0  0.5000000000000002 1 0  0.2500000000000001 1 0  0 0.9999999999979623 0  -0.02996239294911606 0.08988717884734818 0  -0.02199800931582472 0.02199800931582472 0  -0.08988717884734816 0.02996239294911605 0  -0.9999999999979623 0 0  0.4687317158419215 0.4687317158419215 0  0.0563135147094726 0 0  0.08988717884734816 0.02996239294911605 0  0.250983214041903 0.167322142694602 0  0.167322142694602 0.250983214041903 0  0.02996239294911605 0.08988717884734816 0  0 0.0563135147094726 0  -0.001332765915716535 0.00266553183143307 0  -0.00266553183143307 0.001332765915716535 0  -0.0563135147094726 0 0  -1 -0.2500000000000002 0  0.02199800931582472 0.02199800931582472 0  0.0009765624999999977 0 0  0.00266553183143307 0.001332765915716535 0  0.001332765915716535 0.00266553183143307 0  0 0.0009765624999999977 0  -2.157918606448279e-05 2.157918606448279e-05 0  -0.0009765624999999977 0 0  -0.08988717884734818 -0.02996239294911606 0  -1 -0.5000000000000002 0  2.157918606448279e-05 2.157918606448279e-05 0  9.536743164062467e-07 0 0  0 9.536743164062467e-07 0  -1 -0.7500000000000002 0  -9.536743164062467e-07 0 0  -0.00266553183143307 -0.001332765915716535 0  -0.250983214041903 -0.167322142694602 0  -1 -1 0  0 0 0  -0.4687317158419215 -0.4687317158419215 0  -2.157918606448279e-05 -2.157918606448279e-05 0  -0.02199800931582472 -0.02199800931582472 0  -0.7499999999999999 -1 0  0 -9.536743164062467e-07 0  -0.167322142694602 -0.250983214041903 0  -0.001332765915716535 -0.00266553183143307 0  -0.4999999999999993 -0.9999999999999986 0  0 -0.0009765624999999977 0  -0.02996239294911605 -0.08988717884734816 0  -0.2499999999999996 -0.9999999999999987 0  0 -0.0563135147094726 0  0 -0.9999999999979609 0  -0.8750000000000002 1 0  -1 0.8750000000000001 0  -0.8750000000000001 0.8750000000000001 0  -0.6250000000000002 1 0  -0.6093658579209609 0.7343658579209609 0  -0.7343658579209608 0.6093658579209608 0  -1 0.6250000000000001 0  -0.4843658579209609 0.734365857920961 0  -0.3750000000000002 1 0  -0.3336610713473011 0.6254916070209517 0  -0.734365857920961 0.4843658579209609 0  -0.3180269292682618 0.3598574649419123 0  -0.3598574649419123 0.3180269292682618 0  -0.6254916070209517 0.3336610713473012 0  -1 0.3750000000000002 0  -0.2086610713473011 0.6254916070209517 0  -0.1250000000000001 0.9999999999989814 0  -0.1399811964745581 0.5449435894236743 0  -0.2091526783682525 0.2091526783682525 0  -0.09864226782185904 0.1704351964446256 0  -0.09466007600521337 0.1364906116788639 0  -0.6254916070209517 0.2086610713473011 0  -0.1364906116788639 0.09466007600521338 0  -0.1704351964446256 0.09864226782185904 0  -0.5449435894236743 0.1399811964745581 0  -0.9999999999989814 0.1250000000000001 0  1 0.8750000000000001 0  0.8750000000000001 1 0  0.7343658579209609 0.7343658579209609 0  0.9999999999989814 0.1250000000000002 0  0.5281567573537175 5.551115123114471e-17 0  1 0.3750000000000002 0  0.5281567573547366 0.1250000000000001 0  0.5449435894236743 0.1399811964745581 0  1 0.6250000000000001 0  0.5449435894236743 0.2649811964745581 0  0.6254916070209517 0.3336610713473012 0  0.7343658579209608 0.6093658579209608 0  0.6254916070209515 0.4586610713473011 0  0.6250000000000001 1 0  0.6093658579209608 0.7343658579209608 0  0.4586610713473011 0.6254916070209515 0  0.3750000000000002 1 0  0.3336610713473012 0.6254916070209517 0  0.2649811964745581 0.5449435894236743 0  0.1250000000000001 0.9999999999989814 0  0.1399811964745581 0.5449435894236743 0  0.1250000000000001 0.5281567573547366 0  -0.01498119647455803 0.5449435894226552 0  0 0.5281567573537175 0  -0.02598020113247039 0.05594259408158644 0  -0.01498119647455803 0.07310034677841039 0  -0.0156475794324163 0.04627635533939062 0  -0.05594259408158644 0.02598020113247038 0  -0.01166538761577062 0.01233177057362889 0  -0.01233177057362889 0.01166538761577062 0  -0.5449435894226552 0.01498119647455803 0  -0.04627635533939062 0.01564757943241629 0  -0.07310034677841037 0.01498119647455803 0  -0.5281567573537175 0 0  -0.9999999999989814 -0.1250000000000001 0  0.3598574649419123 0.3180269292682618 0  0.3180269292682618 0.3598574649419123 0  0.2453648625788731 0.2453648625788731 0  0.07310034677841037 0.01498119647455803 0  0.0286450386047363 0 0  0.1704351964446256 0.09864226782185904 0  0.04543187067367408 0.01498119647455803 0  0.04627635533939062 0.01564757943241629 0  0.1364906116788639 0.09466007600521338 0  0.1268243729366681 0.0843274543051593 0  0.09864226782185904 0.1704351964446256 0  0.09466007600521338 0.1364906116788639 0  0.0843274543051593 0.1268243729366681 0  0.01498119647455803 0.07310034677841037 0  0.01564757943241629 0.04627635533939062 0  0.01498119647455803 0.04543187067367408 0  -0.0006663829578582675 0.02948952327045283 0  0 0.0286450386047363 0  -0.001999148873574802 0.001999148873574802 0  -0.0006663829578582675 0.001821047165716534 0  -0.0006771725508905089 0.001343555508748776 0  -0.02948952327045283 0.0006663829578582675 0  -0.001343555508748776 0.0006771725508905089 0  -0.001821047165716534 0.0006663829578582675 0  -0.5281567573547366 -0.1250000000000001 0  -0.0286450386047363 0 0  -0.07310034677841039 -0.01498119647455803 0  -0.5449435894236743 -0.1399811964745581 0  -1 -0.3750000000000002 0  0.01233177057362889 0.01166538761577062 0  0.01166538761577062 0.01233177057362889 0  0.0110097942509446 0.0110097942509446 0  0.001821047165716534 0.0006663829578582675 0  0.0004887580871582019 0 0  0.001343555508748776 0.0006771725508905089 0  0.001333242752874738 0.0006663829578582675 0  0.0006663829578582675 0.001821047165716534 0  0.0006771725508905089 0.001343555508748776 0  0.0006663829578582675 0.001333242752874738 0  -1.078959303224139e-05 0.0004990708430322403 0  0 0.0004887580871582019 0  -0.0004990708430322403 1.078959303224139e-05 0  -1.078959303224139e-05 1.126643019044452e-05 0  -1.126643019044452e-05 1.078959303224139e-05 0  -0.04543187067367409 -0.01498119647455803 0  -0.0004887580871582019 0 0  -0.001821047165716534 -0.0006663829578582675 0  -0.5449435894236743 -0.2649811964745581 0  -0.04627635533939062 -0.0156475794324163 0  -0.1704351964446256 -0.09864226782185904 0  -1 -0.6250000000000002 0  -0.6254916070209517 -0.3336610713473011 0  1.126643019044452e-05 1.078959303224139e-05 0  1.078959303224139e-05 1.126643019044452e-05 0  1.078959303224139e-05 1.078959303224139e-05 0  4.768371582031234e-07 0 0  -4.768371582031234e-07 4.768371582031234e-07 0  0 4.768371582031234e-07 0  -0.6254916070209516 -0.4586610713473011 0  -1 -0.8750000000000002 0  -0.7343658579209609 -0.6093658579209609 0  -0.001333242752874738 -0.0006663829578582675 0  -4.768371582031234e-07 0 0  -1.126643019044452e-05 -1.078959303224139e-05 0  -0.1268243729366681 -0.08432745430515928 0  -0.001343555508748776 -0.0006771725508905089 0  -0.01233177057362889 -0.01166538761577062 0  -0.3598574649419123 -0.3180269292682618 0  -0.1364906116788639 -0.09466007600521337 0  -0.7343658579209608 -0.7343658579209609 0  -0.875 -1 0  -1.078959303224139e-05 -1.078959303224139e-05 0  0 -4.768371582031234e-07 0  -0.2453648625788731 -0.2453648625788731 0  -0.6093658579209607 -0.7343658579209608 0  -0.3180269292682617 -0.3598574649419122 0  -0.0110097942509446 -0.0110097942509446 0  -1.078959303224139e-05 -1.126643019044452e-05 0  -0.0006771725508905089 -0.001343555508748776 0  -0.09466007600521335 -0.1364906116788639 0  -0.01166538761577062 -0.01233177057362889 0  -0.4586610713473009 -0.6254916070209515 0  -0.6249999999999996 -0.9999999999999993 0  -0.0006663829578582675 -0.001333242752874738 0  0 -0.0004887580871582019 0  -0.08432745430515927 -0.126824372936668 0  -0.3336610713473006 -0.6254916070209507 0  -0.09864226782185902 -0.1704351964446256 0  -0.0006663829578582675 -0.001821047165716534 0  -0.01564757943241629 -0.04627635533939062 0  -0.2649811964745576 -0.5449435894236734 0  -0.3749999999999994 -0.9999999999999987 0  -0.01498119647455803 -0.04543187067367408 0  0 -0.0286450386047363 0  -0.1399811964745578 -0.5449435894236734 0  -0.01498119647455803 -0.07310034677841037 0  -0.1249999999999998 -0.5281567573547357 0  -0.1249999999999998 -0.9999999999989797 0  0 -0.5281567573537167 0  -0.9375000000000002 1 0  -1 0.9375000000000002 0  -0.9375000000000002 0.9375000000000002 0  -0.8125000000000002 1 0  -0.8125000000000002 0.9375000000000002 0  -0.6875000000000002 1 0  -0.6796829289604805 0.8671829289604805 0  -1 0.8125 0  -0.9375 0.8125 0  -0.8046829289604804 0.7421829289604804 0  -0.8671829289604804 0.6796829289604804 0  -1 0.6875 0  -0.5625000000000002 1 0  -0.5546829289604805 0.8671829289604807 0  -0.4921829289604805 0.8671829289604807 0  -0.4375000000000002 1 0  -0.4168305356736507 0.8127458035104761 0  -0.5390487868814412 0.6015487868814412 0  -0.6015487868814411 0.5390487868814411 0  -0.4765487868814412 0.6015487868814412 0  -0.4011963935946113 0.5471116614314366 0  -0.6015487868814412 0.4765487868814412 0  -0.3933793225550916 0.4142945903919169 0  -0.4142945903919169 0.3933793225550916 0  -0.5471116614314366 0.4011963935946113 0  -0.8671829289604807 0.5546829289604804 0  -1 0.5625000000000002 0  -0.8671829289604807 0.4921829289604805 0  -0.8127458035104761 0.4168305356736507 0  -1 0.4375000000000002 0  -0.3125000000000001 1 0  -0.2918305356736506 0.8127458035104761 0  -0.2293305356736506 0.8127458035104761 0  -0.1875000000000001 0.9999999999994909 0  -0.1949905982372791 0.7724717947118374 0  -0.2504916070209516 0.4382374105314274 0  -0
[...]
<PointData  Scalars="u"> 
<DataArray  type="Float64"  Name="u"  format="ascii">1.2599346064636721e+00  1.1551947230851360e+00  1.1552414524631793e+00  1.0526161931829585e+00  7.5983812090012237e-01  1.0526161949634649e+00  9.5502284755211553e-01  4.4501383945083306e-01  4.4517918832311903e-01  9.5502284751983302e-01  6.3000269643221507e-01  -1.8549046083033783e-04  1.6599493771554505e-01  3.2767084236909511e-01  4.8273903214118358e-01  6.7259988861295283e-01  7.2497646857494791e-01  7.8905760735902830e-01  8.6615685940596210e-01  1.9776420842322712e-01  9.8947760752837496e-02  1.9776546449645827e-01  8.6615686000541470e-01  3.7994094801939793e-01  2.8718634590331796e-03  4.6218812836559889e-02  1.7133145862247495e-01  2.7355367092945820e-01  1.5318439803351588e-01  1.2897475685143125e-01  1.9220899742446038e-02  1.8116283119011121e-02  1.2897967269352689e-01  7.8905760720091978e-01  4.7925510587506638e-02  -1.9286213920290660e-04  8.8686080300260095e-03  1.8716404407041230e-02  8.6803333753649996e-03  2.0565674807944702e-03  8.6789272145985936e-03  1.5324079241054303e-01  7.2497646870519283e-01  1.3537510862904269e-03  7.1322929056850807e-04  9.9307336948709492e-04  6.7259988873581888e-01  1.0025722591540693e-03  1.8735563336989999e-02  2.7355356177996010e-01  6.3000269649802842e-01  2.1633684660585665e-04  3.7992083321025488e-01  1.5402021264454867e-03  4.7380002219628674e-02  4.8273903222377945e-01  7.1940929695580756e-04  1.7133146037368877e-01  8.8775238637789407e-03  3.2767084239185656e-01  -1.9123989572952549e-04  4.6218911371307340e-02  1.6599493765733145e-01  2.8718275068348896e-03  -1.8549032881127092e-04  1.2074669676740806e+00  1.2074668193301925e+00  1.1525834801155734e+00  1.1034402741903753e+00  9.6727293222184652e-01  9.6728055505572874e-01  1.1034159933632484e+00  9.0949703182993991e-01  1.0028712875638095e+00  7.7952762630285810e-01  9.0949718530010848e-01  6.1202490986402269e-01  6.1207541272168842e-01  7.7956868027661597e-01  1.0028121231413223e+00  7.2134884470035121e-01  9.0916933066913841e-01  6.3882254143162776e-01  4.4284474873921775e-01  3.3184162716418797e-01  2.9848693246573393e-01  7.2134921247771588e-01  2.9856559153828932e-01  3.3230516926975007e-01  6.3873788258015329e-01  9.0908535918793898e-01  5.5728767957421133e-01  6.5020115697050218e-01  5.1275123651214682e-01  8.3133821268154981e-02  -3.9767091095674871e-04  2.4753660393716279e-01  1.0269657458074197e-01  1.1374254310922537e-01  4.0613627655448542e-01  2.1289800776750967e-01  2.5508314226412798e-01  4.3174692392615927e-01  3.4562137433216267e-01  6.9739810048760320e-01  5.3547745920182266e-01  4.9421733350964969e-01  7.5543934353903075e-01  5.2439159011527692e-01  4.8590916412794172e-01  8.2604726296032682e-01  5.2499906311271416e-01  5.1792261617999713e-01  5.8386333346310459e-01  5.6628885401478568e-01  1.5185515286319673e-01  1.6437011408309124e-01  1.2754550137257528e-01  1.5188907489710265e-01  6.5190471075006626e-02  6.5092387908869384e-02  5.8386323746719837e-01  1.2750126846985221e-01  1.6441537348770829e-01  5.6611050320720224e-01  8.2604726353753521e-01  2.8415453564833293e-01  3.2782408248502942e-01  2.4669216788049159e-01  2.3990487723612307e-02  -2.0855770054448176e-06  1.1563559933397791e-01  2.7715086566222420e-02  2.9137623387597757e-02  1.1826112049041432e-01  1.0817677785126241e-01  2.1660921017066131e-01  1.8021715184408238e-01  1.7293857887006192e-01  1.4043522115560653e-01  9.8231863428762514e-02  9.7216782329211326e-02  8.2333525349240558e-02  8.0022960184586558e-02  1.9674024586137488e-02  1.5172419203709351e-02  1.3816668340073602e-02  8.2334640768635503e-02  1.3841999885657666e-02  1.5114196407421225e-02  5.1792248621720660e-01  7.9935375303787415e-02  1.4043810572355808e-01  5.2497870659887047e-01  7.5543934359837950e-01  3.1571202618737700e-02  3.5109722028100414e-02  3.0107449634615400e-02  5.5550909664562878e-03  2.6113975909355950e-05  4.4787560027873688e-03  4.2827433372430845e-03  1.4356549096346394e-02  1.0537016512074596e-02  1.0754093505204607e-02  7.4832860472013926e-03  7.3208837814897803e-03  7.5161423565302645e-03  1.4361127599651351e-03  1.6128874090984501e-03  9.7218145480866769e-02  7.3414194277778427e-03  1.4438405244973227e-02  4.8590908199563182e-01  9.8277897270503109e-02  2.1660938638041707e-01  6.9739810055421703e-01  5.2447669964429700e-01  1.1850078598012390e-03  1.2124446980558555e-03  1.1072219778695037e-03  1.1730434475134306e-04  7.4285699363545394e-04  5.0906451233007272e-04  4.9415922186618233e-01  6.5020115699902437e-01  5.3550608198425431e-01  1.0784718636343282e-02  5.1029862879567250e-04  1.2208196387748598e-03  1.7293904247045808e-01  1.0455532959626233e-02  3.5118910351071231e-02  3.2782399809883134e-01  1.8021775262582557e-01  5.1274528547078357e-01  5.5726056632180554e-01  1.1148432081556560e-03  1.1718909866729006e-04  2.4653418163534821e-01  4.3174690987961006e-01  2.8415056167779051e-01  3.0112303986280165e-02  1.1570364894595583e-03  4.4872267326496679e-03  1.1826129114292047e-01  3.1627182273865712e-02  3.4568043295443540e-01  4.0606496312562879e-01  4.2908104015519644e-03  1.7823684939730474e-05  1.0817696069547648e-01  2.5503149500923339e-01  1.1580729706271413e-01  6.1476364037644417e-03  2.9068357854592053e-02  2.1289798211486791e-01  2.4741505313769505e-01  2.7611702620974884e-02  -1.9326958935985666e-05  1.1364553615016820e-01  2.5321148882967298e-02  1.0269656208819158e-01  8.3080486248448326e-02  -3.2437992966470835e-04  1.2336673209204521e+00  1.2336673472447981e+00  1.2068625808739453e+00  1.1813008780591749e+00  1.1532338206816666e+00  1.1292369449574888e+00  1.0632394567629855e+00  1.1813007661355506e+00  1.1532738217976317e+00  1.0616692170036715e+00  1.0632916256713922e+00  1.1292141962810793e+00  1.0779067581842261e+00  1.0087793683907467e+00  9.8191696543053597e-01  1.0275183110685528e+00  9.2112305994951060e-01  8.6644226885566289e-01  8.6649420489840800e-01  8.3545590413731896e-01  7.6768343923304450e-01  8.3545601710189199e-01  6.8784395766489526e-01  6.8788254011551209e-01  7.6763448763890108e-01  1.0087992288697383e+00  1.0779108159968291e+00  9.8191692646224027e-01  9.2112316671492223e-01  1.0274604679036097e+00  9.7873850078103597e-01  8.6777068692826820e-01  8.4194107390570849e-01  9.3173583635297108e-01  8.0470913153788648e-01  6.2370205549385771e-01  5.3146151942128572e-01  5.3080269591063656e-01  5.9044581575888999e-01  5.4410530457207973e-01  4.4341510684478025e-01  3.9022796300709439e-01  3.7512029411218395e-01  3.7380164886846956e-01  5.3145569899981060e-01  6.2375925996902370e-01  4.4340728377463823e-01  5.9044557921389729e-01  3.7514678375115307e-01  3.9022925399113978e-01  5.4418172071584869e-01  8.6782896051793756e-01  9.7873457618322834e-01  8.4194125660766450e-01  8.0470934124281523e-01  9.3164975239265035e-01  5.9385928332920324e-01  6.3983636618462914e-01  5.7288198572761195e-01  4.1727593402489854e-02  1.5465491355349604e-04  4.5336834683719622e-02  1.2456578170175953e-01  2.0676314419001027e-01  1.3617597701008799e-01  1.4104400205931239e-01  1.8538270211999286e-01  2.8778796089583569e-01  3.6706705608762624e-01  2.7348002445425867e-01  2.9241742737530402e-01  3.3446869025874953e-01  5.2019675263653709e-01  4.9645382026395868e-01  4.4462666328553890e-01  4.5744397074263965e-01  4.1702255665019639e-01  6.6107766892850484e-01  5.9416409901006018e-01  6.8465974767455318e-01  6.0577843032041956e-01  5.8679494727283488e-01  7.1078985143885520e-01  6.1374040074130154e-01  7.3978377175107546e-01  6.2846085391228101e-01  6.1123155077452163e-01  7.7186577497426101e-01  6.4503214789860597e-01  8.0718393331411187e-01  6.6362023575085483e-01  6.6047847911951263e-01  8.8736526222053391e-01  7.5500519289009271e-01  8.4565037598000026e-01  7.0160630704358029e-01  7.3174682392410328e-01  7.2378297998963903e-01  4.4760137767029112e-01  2.6755098299429586e-01  2.4951625914887479e-01  4.1462803428018691e-01  4.0365640964928495e-01  1.7546954015598179e-01  1.8119976237664448e-01  1.6475857612629935e-01  2.1167960718329346e-01  2.1183624449915264e-01  1.2593139026142713e-01  1.1259047246599434e-01  1.2591757501746617e-01  8.2718171978633362e-02  8.2711946649926385e-02  1.1256500885983650e-01  2.4952246018920585e-01  2.6806218983213187e-01  4.4729000221423093e-01  1.7547871687514427e-01  4.1462739985948383e-01  1.6473313728725847e-01  1.8126876186166910e-01  4.0354189863050677e-01  7.5509103868289673e-01  8.8735543594079669e-01  7.3174686775044584e-01  7.2369589407706381e-01  8.4565037556724254e-01  7.0168342766495773e-01  4.4885518683961978e-01  4.0585143834748350e-01  3.6178093705849762e-01  4.6069233714231467e-01  4.3783839737940267e-01  3.3365270106191286e-01  3.5422670513245780e-01  3.1687805018496978e-01  -1.0497329437422292e-03  6.2883665917988968e-02  1.3238389046188345e-02  1.6999163224923816e-05  1.3693920649456208e-02  7.5821856898778475e-02  8.2182428590523909e-02  1.4196975355481414e-01  3.5559281991887660e-02  8.2585648303370729e-02  3.6953563451626620e-02  3.7488401800102732e-02  7.8451718326856434e-02  1.9180746561750112e-01  2.1489057309098936e-01  2.6591438308057874e-01  2.3068838134041106e-01  2.0933259525992198e-01  1.4436750184663741e-01  1.4577874801311957e-01  1.4135380202680425e-01  3.9199079306890755e-01  4.0873165096189501e-01  3.8625637260760171e-01  3.0073125853453858e-01  2.5921767603202983e-01  2.4550316093365968e-01  2.2912492137811205e-01  2.2593173438925915e-01  3.4150713932432403e-01  3.6522614763651240e-01  3.6052242783549249e-01  1.8464194156482777e-01  1.6222695302208276e-01  1.4663593249824619e-01  1.2744289390892213e-01  1.2708304232409151e-01  3.5194100450512827e-01  3.8234813742001333e-01  1.4717241038104006e-01  1.2738827308016940e-01  1.3420458724801940e-01  1.1257305949127118e-01  1.0622098833776362e-01  1.0521660056695628e-01  8.3185537374863575e-02  4.4504218069880329e-02  4.4429153562878375e-02  5.5528640636424161e-02  5.4070645914855511e-02  1.9921747907625260e-02  1.6425048890410538e-02  1.6841686910643968e-02  1.6818980200746406e-02  4.4861160951883416e-02  8.3186599183018892e-02  2.0176403735587919e-02  5.5511032998329886e-02  1.6826829042557091e-02  1.5791331329673117e-02  5.4251172539543022e-02  1.2739487340802721e-01  1.4717982888806866e-01  3.8189866192980670e-01  1.0622345754333400e-01  3.5194050930647214e-01  1.0520464987497068e-01  1.3420851348892368e-01  1.1256521918814077e-01  8.0718393372843422e-01  6.6055655366937072e-01  6.6359766418511412e-01  7.7186577507522747e-01  6.4510181334074446e-01  1.6461776971381081e-01  8.7913352579678514e-02  8.1613619417802541e-02  1.2495207820413809e-01  1.2014671294899225e-01  4.0206026018532785e-02  4.1688278045625540e-02  4.0610295687816961e-02  1.5265965842250692e-04  1.6082080104082665e-02  9.9190227158666095e-04  3.6306159941094521e-06  4.3746076121779507e-03  1.7698511790557227e-02  1.9167575513052117e-02  6.9072458175543042e-02  2.0007251901901162e-02  1.9652100424073813e-02  7.2531489699090169e-03  6.0680080186168569e-03  5.0648318356869377e-03  1.1147489411265823e-01  6.2312696949595910e-02  6.1662887377670596e-02  2.3253056485433563e-02  2.3447306111727621e-02  1.4459427694631670e-02  1.2622396006797761e-02  1.2404135921717973e-02  5.9925989515376928e-02  5.1010196866257108e-02  1.3568247896677302e-02  1.2337499860014615e-02  9.0684631986485392e-03  1.2899467659205330e-02  1.0048680872903034e-02  9.9928759648342733e-03  1.0304427019389693e-02  1.0394191721385755e-02  5.0267127526257135e-03  4.9585117106681351e-03  5.0395724169201885e-03  1.7500656484167757e-03  1.8382599699133446e-03  4.9407812828040900e-03  1.2381764836264434e-02  1.3281447123386705e-02  5.1057579346835975e-02  1.0113722005329145e-02  5.9940249439613437e-02  1.0058367958219743e-02  9.0412318279772773e-03  1.3016770889592506e-02  3.6052195283509630e-01  1.4663796146256342e-01  3.6486442490497711e-01  1.2711946699604459e-01  3.4150687939594310e-01  1.2744477261682183e-01  1.8464266149257935e-01  1.6222791948095225e-01  7.3978377177648702e-01  6.1113981020049912e-01  7.1078985141538553e-01  6.2854532637017102e-01  6.1374237649999175e-01  2.0088320011035873e-02  2.4298111320374431e-03  2.8822820996738650e-03  7.6185418035478519e-03  7.5361796252064860e-03  1.4466176506028130e-03  1.3919271452788565e-03  1.2985408211810638e-03  1.1342931969126420e-04  2.8548593065002010e-03  8.9471058217803576e-04  8.8707592643507099e-04  1.7967219912896269e-04  7.1000109842460106e-03  4.7558004475317566e-03  1.2292902771373153e-03  1.1867809629868245e-03  1.0602810919650705e-03  9.7781494278943639e-04  7.9472424789395364e-04  6.6479623107091939e-04  6.8465974769991556e-01  5.8675597383362110e-01  6.6107766890910813e-01  6.0583491786283850e-01  5.9416082845557316e-01  1.0588211489825604e-03  4.8303660265873608e-03  7.7296120277997355e-04  7.1393762819721186e-03  6.6582760124177362e-04  1.0694263485345418e-03  9.8467749799205622e-04  6.1670938093861864e-02  1.4489090110961906e-02  6.2468567096343838e-02  1.2536418924896840e-02  1.1139792398471311e-01  1.2663041265751464e-02  2.3259989612430466e-02  2.3460022497844381e-02  3.8625622105783419e-01  2.4550315329205602e-01  4.0881726268118146e-01  3.9199070356976118e-01  2.2593180038880803e-01  3.0073115244028192e-01  2.2909239196483125e-01  2.5918484004095588e-01  6.3983636620241102e-01  5.7287775741368741e-01  5.9384912051758876e-01  9.0025469651889222e-04  1.8079973923198120e-04  5.2118558099792226e-04  3.8823679987720644e-04  3.8535008611282132e-04  9.0728102019761205e-04  1.8108742974971189e-04  4.3784354495318645e-01  4.6069343324237033e-01  3.5422664237766360e-01  4.4885516268499565e-01  3.1679913983600355e-01  4.0585141198929242e-01  3.3365264447470194e-01  3.6175103708197426e-01  7.5757452701954390e-03  1.4009063541628388e-03  8.1021224262436860e-03  1.3330122166913423e-03  2.0097325027776933e-02  1.4556890319470969e-03  2.4374452769021239e-03  2.8913099004061462e-03  1.2014827037976381e-01  4.1691954836193805e-02  1.2474820805153759e-01  1.6461800953483899e-01  3.9668448847077646e-02  8.7913868176344778e-02  4.0208136822413608e-02  8.1804382878015863e-02  4.9645241275561186e-01  5.2019675262175646e-01  4.5744396504769480e-01  4.1702254729696758e-01  4.4459337167181179e-01  8.9380966808613467e-04  1.8091730390669365e-04  1.0040601905411651e-03  2.9663402265562083e-03  1.1657792215855955e-05  2.0933762211652543e-01  2.3067718577301541e-01  1.4577881987260075e-01  2.6600291543567328e-01  1.4127242485022537e-01  2.1488702257767961e-01  1.4445104677422382e-01  1.9177550566354160e-01  1.9657050409839675e-02  6.0763715267589617e-03  2.1395489099843162e-02  5.0709978579986433e-03  6.9338395955801088e-02  7.2634772643796327e-03  1.8251061610915800e-02  1.7865255752074878e-02  3.3446867992177137e-01  3.6706705608687384e-01  2.9229467434359890e-01  2.7335566271341843e-01  2.8769731181439240e-01  4.2571015049669668e-03  3.6563927004189823e-06  1.7679990891479780e-03  1.6419830831951542e-02  -1.9238810400473973e-04  7.8412059218332997e-02  8.2907832064733331e-02  3.7488261007133331e-02  1.4202865112074597e-01  3.6896075296151687e-02  8.2564249691076272e-02  3.5559293279370061e-02  7.5937305586255791e-02  1.8538269261959844e-01  2.0676314423237441e-01  1.4097785119133069e-01  1.3609521156159349e-01  1.2452532877236007e-01  1.3683440199227397e-02  -1.3471237284141056e-05  1.2923160011776628e-02  6.2438761732846043e-02  -9.0584889298911213e-04  4.5430586658645480e-02  4.1798864384786485e-02  1.2955608655469249e-04  1.1800420962422264e+00  1.1800437340436771e+00  1.0617203572461387e+00  1.0359237654552234e+00  9.6632581443154242e-01  9.3825358611636589e-01  1.0359254506356750e+00  9.3825345446626651e-01  8.4547865478226514e-01  8.9418875862045100e-01  6.9718117114528999e-01  7.4996498299249914e-01  8.4547929996129578e-01  6.1176904057164772e-01  6.9718227585098436e-01  5.3075252530301109e-01  8.9418894416162409e-01  7.4996558785489287e-01  6.8026483747547217e-01  7.7938192560627795e-01  4.9647764475006889e-01  6.1028583403146230e-01  3.7389072441841070e-01  3.1511660106906297e-01  2.9748049637080864e-01  2.3092785135113189e-01  6.8026507725545060e-01  3.1511913551948478e-01  2.3092367627271340e-01  4.9647703733019022e-01  7.7938206606422955e-01  6.1028580939120558e-01  5.3493210753723242e-01  5.8323022247962897e-01  4.7255824570240312e-01  5.2371401273270857e-01  9.0771955918801994e-02  5.1093944148146365e-02  2.2961184476541538e-01  1.0814010445918118e-01  6.9547128317414553e-02  1.6334940237044587e-01  3.7603594444014882e-01  2.3412106515128625e-01  1.6738299462310938e-01  3.0060816273974078e-01  3.8963349433501304e-01  3.1527989312233307e-01  5.9984221685313166e-01  5.1477687172253872e-01  5.0865731499099109e-01  4.1497730081468381e-01  6.2761204631713641e-01  5.0483481623361881e-01  5.0454064230091378e-01  3.6387782066084445e-01  6.8058751330801803e-01  5.2152330818432324e-01  5.4110515532875936e-01  3.5627234279305581e-01  5.7482197457781603e-01  3.9240968364690593e-01  1.3979173526800873e-01  1.4669205735379154e-01  9.8308284636194981e-02  1.0593420833654199e-01  1.3980757556409187e-01  6.5207170131897751e-02  9.8304103310066754e-02  4.4812778460751615e-02  5.7482186137196933e-01  1.4670510929463224e-01  1.0593449217022707e-01  3.9240895315277591e-01  5.4110501171283076e-01  6.8058750417442759e-01  2.6549800411496444e-01  2.8843692402458043e-01  1.8734014090826673e-01  2.1405252828001262e-01  2.5890006276395049e-02  1.4752321496288892e-02  1.1153408123450693e-01  2.8247574157219950e-02  1.7154560117785860e-02  7.4178281542622529e-02  1.1313129064789759e-01  7.5377020516903051e-02  1.9495238566530715e-01  1.7646462830053969e-01  1.3800820089153595e-01  1.1567009345527005e-01  1.1982947109445699e-01  9.7830926486704328e-02  8.8411634494903760e-02  6.1067249043395944e-02  8.1151912834601755e-02  5.2621925302874642e-02  1.6820688201804230e-02  1.4512504978690872e-02  1.3770715542270379e-02  1.1545217077982796e-02  8.1153997762676927e-02  1.4563158487712361e-02  1.1589620558746773e-02  5.2639438255261656e-02  3.5627185761911367e-01  5.2152318593962776e-01  8.8412894555878460e-02  1.1983163318086491e-01  5.0454054091685741e-01  6.2761202128386417e-01  2.9579528701817296e-02  3.1454107962004825e-02  2.0140891476572092e-02  2.1623712256950658e-02  4.2808441690810476e-03  3.3987724590821993e-03  4.7595484095458223e-03  2.9403166002228737e-03  1.0611343388981858e-02  1.0525251577172677e-02  1.0011418568532557e-02  7.3891121040310179e-03  7.3842500423748946e-03  4.8752950156321240e-03  7.4155643483989628e-03  1.5644826154182275e-03  4.8869178630502746e-03  1.1156442734613088e-03  6.1076203328010947e-02  9.7831724989204921e-02  1.0084123446717394e-02  1.0611386072693489e-02  3.6387762529957424e-01  5.0483474798064876e-01  1.3800955575224191e-01  1.9495275436302123e-01  5.9984220261352983e-01  5.0865727049521969e-01  1.1358525908955724e-03  1.1428630647166125e-03  8.5075171709993842e-04  9.0485547276467244e-04  6.3751732807887482e-04  6.3727674711242628e-04  5.1477684652333899e-01  4.1497723915517404e-01  5.8323021860049729e-01  5.2371399930449303e-01  7.4280564155138834e-03  1.0553434825594007e-02  9.1115612695006427e-04  1.1506295142834782e-03  1.1567175136895216e-01  1.7646509013336684e-01  2.1634439094509617e-02  3.1459027669942345e-02  2.8843683992791397e-01  2.1405254370173873e-01  5.3493210381698397e-01  4.7255823327406737e-01  8.5709964782232904e-04  1.1435904740410322e-03  2.6549793732052290e-01  1.8734017445531456e-01  3.8963347485639893e-01  3.1527985236674438e-01  2.0150166697792959e-02  2.9582808551973004e-02  2.9495793515539079e-03  4.7688098474097922e-03  1.1313146592411290e-01  7.5377223300367655e-02  3.7603593437660998e-01  3.0060813859263524e-01  3.4075249271592872e-03  4.2884661829496618e-03  1.1153422445893799e-01  7.4178543693380047e-02  2.3412104094320582e-01  1.6738297131065336e-01  1.7155608304805867e-02  2.8247276308912984e-02  2.2961183359306483e-01  1.6334938316961592e-01  1.4752473308761066e-02  2.5889836310729421e-02  1.08140091581