<?xml version="1.0"?>
<VTKFile type="UnstructuredGrid"  version="0.1"  >
<UnstructuredGrid>
<Piece  NumberOfPoints="12545" NumberOfCells="24576">
<Points>
<DataArray  type="Float64"  NumberOfComponents="3"  format="ascii">0.1495496114427624 -0.1495496114427624 0  1.287144439429404 -1.716192585905872 0  1.716192585905716 -1.287144439429287 0  0.2837720459405749 -0.5675440918811498 0  3.278179782504071 -3.278179782504071 0  0.5675440918811498 -0.2837720459405749 0  1.756932646787236 -7.027730587148944 0  3.898324400662581 -5.847486600993871 0  5.847486600993853 -3.898324400662569 0  7.027730587148944 -1.756932646787236 0  -0.1495496114427624 -0.1495496114427624 0  5.656854249492382 6.280369834735103e-16 0  -7.027730587148944 -1.756932646787237 0  -0.5675440918811498 -0.2837720459405749 0  -1.716192585905716 -1.287144439429287 0  -1.287144439429287 -1.716192585905716 0  -0.2837720459405749 -0.5675440918811498 0  -1.756932646787236 -7.027730587148944 0  0 5.656854249492382 0  0.2922068412242178 -0.8766205236726532 0  0.1910394894585253 -0.1910394894585253 0  0.8766205236725884 -0.2922068412241961 0  -5.656854249492382 0 0  -3.278179782504071 -3.278179782504071 0  23.83793724888972 0 0  -0.8766205236725884 -0.2922068412241961 0  -5.847486600993853 -3.898324400662569 0  -3.898324400662569 -5.847486600993853 0  -0.2922068412241961 -0.8766205236725884 0  0 23.83793724888972 0  1.671770658765338 -3.343541317530675 0  3.343541317530675 -1.671770658765338 0  -23.83793724888972 0 0  7.027730587148944 1.756932646787236 0  -0.1910394894585253 -0.1910394894585253 0  181.019335983452 0 0  -3.343541317530675 -1.671770658765338 0  -1.671770658765338 -3.343541317530675 0  0 181.019335983452 0  0.1068812197939318 -0.1068812197939318 0  -181.019335983452 0 0  0.8766205236726532 0.2922068412242178 0  0.5675440918811498 0.2837720459405749 0  -0.1068812197939318 -0.1068812197939318 0  5792.61875148012 0 0  0 5792.61875148012 0  1.716192585905872 1.287144439429404 0  -5792.61875148012 0 0  3.343541317530675 1.671770658765338 0  5.847486600993871 3.898324400662581 0  0.1495496114427583 0.1495496114427583 0  0 0 0  3.278179782504071 3.278179782504071 0  0.1068812197939318 0.1068812197939318 0  0.1910394894585253 0.1910394894585253 0  1.287144439429287 1.716192585905716 0  0 -5792.61875148012 0  3.898324400662531 5.847486600993797 0  1.671770658765331 3.343541317530662 0  0.2837720459392363 0.5675440918784725 0  0 -181.019335983452 0  0.2922068412241961 0.8766205236725884 0  1.756932646787229 7.027730587148919 0  0 -23.83793724888972 0  0 -5.656854249492387 0  0.7183470254360832 -0.9328710986743172 0  0.9328710986742393 -0.7183470254360248 0  1.50166851266756 -1.50166851266758 0  0.7854582426849894 -1.141868338893511 0  2.282662110966737 -2.497186184204971 0  2.497186184204893 -2.282662110966679 0  1.141868338893433 -0.785458242684931 0  1.780975914222323 -1.92286193719261 0  1.020352346363905 -3.797637339515047 0  2.091048223301578 -3.20751534643751 0  1.92286193719261 -1.780975914222323 0  3.588252091583326 -4.562833191748971 0  4.562833191748962 -3.588252091583319 0  3.207515346437501 -2.091048223301572 0  3.797637339515047 -1.020352346363905 0  2.827628523724908 -6.437608594071407 0  0.878466323393618 -0.6854381688282807 0  1.024569744005727 -3.952175555410799 0  4.872905500828216 -4.872905500828219 0  2.095265620943399 -3.362053562333262 0  2.044681945060553 -3.019263045226198 0  6.437608594071398 -2.827628523724902 0  3.019263045226189 -2.044681945060547 0  3.36205356233322 -2.095265620943382 0  3.952175555410766 -1.024569744005716 0  0.6854381688282807 -0.878466323393618 0  -0.9328710986742393 -0.7183470254360248 0  -0.7183470254360248 -0.9328710986742393 0  -1.713864696973416 -1.713864696973416 0  -0.6854381688282807 -0.8784663233936181 0  14.74739574919105 3.140184917367551e-16 0  -3.797637339515047 -1.020352346363906 0  8.405103330870388 -0.8784663233936184 0  -3.952175555410766 -1.024569744005716 0  -1.141868338893433 -0.785458242684931 0  -0.7220823077768691 -0.2879894435823855 0  -3.207515346437501 -2.091048223301572 0  -2.497186184204893 -2.282662110966679 0  -3.781839593449785 -2.592734420045928 0  -0.785458242684931 -1.141868338893433 0  -2.282662110966679 -2.497186184204893 0  -2.592734420045928 -3.781839593449785 0  -1.020352346363905 -3.797637339515047 0  -2.091048223301572 -3.207515346437501 0  -0.2879894435823855 -0.7220823077768691 0  -0.878466323393618 -0.6854381688282807 0  -1.024569744005716 -3.952175555410766 0  -0.878466323393618 8.405103330870388 0  0.1461034206121089 2.390116862909864 0  0 14.74739574919105 0  0.2416231653413715 -0.5338300065655892 0  0.1461034206121089 11.48065836260853 0  0.9819887499947777 -2.110080920601664 0  0.5338300065655568 -0.2416231653413607 0  0.9314050741119314 -1.7672904034946 0  1.7672904034946 -0.9314050741119314 0  -2.390116862909897 -0.1461034206120981 0  2.110080920601632 -0.9819887499947668 0  -11.48065836260857 -0.1461034206120981 0  -14.74739574919105 0 0  0.6854381688282807 0.8784663233936182 0  -4.562833191748962 -3.588252091583319 0  -3.588252091583319 -4.562833191748962 0  -1.734609635981298 -1.734609635981298 0  11.48065836260857 -0.1461034206120981 0  102.4286366161709 0 0  -3.36205356233322 -2.095265620943382 0  90.07135772988971 -0.1461034206120981 0  -2.110080920601632 -0.9819887499947668 0  -3.019263045226189 -2.044681945060547 0  -4.595513959262264 -2.785047529713953 0  -2.095265620943382 -3.36205356233322 0  -2.044681945060547 -3.019263045226189 0  -2.785047529713953 -4.595513959262264 0  -0.1461034206120981 11.48065836260857 0  -0.9819887499947668 -2.110080920601632 0  -0.1461034206120981 90.07135772988971 0  0.8358853293826688 10.24719796567952 0  0 102.4286366161709 0  2.507655988148006 -2.507655988148006 0  0.8358853293826688 88.83789733296067 0  0.8893259392796347 -1.725211268662304 0  -10.24719796567952 -0.8358853293826688 0  1.725211268662304 -0.8893259392796347 0  -88.83789733296067 -0.8358853293826688 0  -8.405103330870388 0.8784663233936182 0  -102.4286366161709 0 0  -11.48065836260853 0.1461034206121089 0  3.952175555410799 1.024569744005727 0  3.797637339515047 1.020352346363906 0  -1.7672904034946 -0.9314050741119314 0  -0.9314050741119314 -1.7672904034946 0  -0.1489603546262285 -0.1489603546262285 0  88.83789733296067 -0.8358853293826688 0  2986.819043731786 0 0  -1.725211268662304 -0.8893259392796347 0  2894.637605081295 -0.8358853293826688 0  -0.8358853293826688 88.83789733296067 0  -0.8893259392796347 -1.725211268662304 0  -0.8358853293826688 2894.637605081295 0  0.05344060989696589 90.45622738182904 0  0 2986.819043731786 0  -90.45622738182904 -0.05344060989696589 0  0.05344060989696589 2896.255935130163 0  -2896.255935130163 -0.05344060989696589 0  -90.07135772988968 0.1461034206121089 0  -2986.819043731786 0 0  -88.83789733296067 0.8358853293826688 0  0.7220823077769015 0.2879894435823964 0  2.110080920601664 0.9819887499947777 0  3.362053562333262 2.095265620943399 0  1.141868338893511 0.7854582426849894 0  3.20751534643751 2.091048223301578 0  2896.255935130163 -0.05344060989696589 0  -0.05344060989696589 2896.255935130163 0  -0.05344060989696589 -0.05344060989696589 0  2896.30937574006 0 0  -2896.30937574006 2896.30937574006 0  0 2896.30937574006 0  3.781839593449871 2.592734420045992 0  0.9328710986743152 0.7183470254360812 0  2.497186184204971 2.282662110966737 0  -2894.637605081295 0.8358853293826688 0  -2896.30937574006 0 0  -2896.255935130163 0.05344060989696589 0  4.595513959262273 2.785047529713959 0  1.725211268662304 0.8893259392796347 0  1.7672904034946 0.9314050741119314 0  4.562833191748971 3.588252091583326 0  3.019263045226198 2.044681945060553 0  1.713864696973414 1.713864696973414 0  0.7183470254360227 0.9328710986742373 0  0.05344060989696589 0.05344060989696589 0  0 -2896.30937574006 0  1.734609635981298 1.734609635981298 0  2.282662110966679 2.497186184204893 0  3.588252091583301 4.562833191748934 0  0.1489603546262285 0.1489603546262285 0  0.05344060989696589 -2896.255935130163 0  0.8893259392796314 1.725211268662297 0  2.044681945060528 3.019263045226161 0  0.9314050741119282 1.767290403494594 0  2.592734420045909 3.781839593449757 0  0.7854582426842617 1.141868338892094 0  0.8358853293826656 -2894.637605081295 0  0 -2986.819043731786 0  2.785047529713931 4.595513959262229 0  2.091048223300884 3.207515346436135 0  2.095265620943364 3.362053562333193 0  0.8358853293826656 -88.83789733296068 0  0.9819887499947636 2.110080920601625 0  0.2879894435817162 0.7220823077755305 0  1.020352346363233 3.797637339513696 0  0.1461034206120981 -90.07135772988971 0  0 -102.4286366161709 0  1.024569744005713 3.952175555410753 0  0.1461034206120981 -11.48065836260857 0  0.8784663233936145 -8.4051033308704 0  0.8784663233936145 0.685438168828266 0  0 -14.74739574919105 0  0.4339483184394228 -0.5412103550585398 0  0.5412103550585008 -0.4339483184393936 0  1.002745732432744 -1.324531842290094 0  1.394406476048482 -1.608930549286726 0  1.036301341057197 -1.429030462399691 0  1.784903275198071 -2.106689385055422 0  1.892165311817149 -1.999427348436275 0  1.534060176825863 -1.819527261549241 0  1.2172698056709 -1.110007769051802 0  1.324531842289978 -1.002745732432656 0  1.608930549286638 -1.394406476048433 0  2.106689385055305 -1.784903275197983 0  1.429030462399575 -1.036301341057109 0  1.819527261549163 -1.534060176825805 0  0.5346151443127822 -0.8547062153873304 0  1.032373980081449 -1.24520301453688 0  0.6520621961522401 -2.182590715698098 0  1.187410134621076 -1.88752971915933 0  2.780420946735404 -2.887682983354521 0  2.887682983354482 -2.780420946735375 0  2.529577848363197 -2.60052085984834 0  2.684614002902824 -3.24284756447079 0  2.60052085984834 -2.529577848363197 0  3.433215937043698 -3.920506487126521 0  3.920506487126517 -3.433215937043695 0  3.242847564470786 -2.684614002902821 0  0.8547062153872914 -0.5346151443127529 0  1.24520301453688 -1.032373980081449 0  1.887529719159326 -1.187410134621073 0  2.182590715698098 -0.65
[...]
<PointData  Scalars="u"> 
<DataArray  type="Float64"  Name="u"  format="ascii">-1.7832401126848832e-01  -3.1078970686819418e-01  -2.7382754966482675e-01  2.1501079055747471e-01  -1.0670600079402170e+00  3.8712285139717517e-01  6.0577164005962625e-01  -1.0028083548901363e+00  -1.7351226493168830e+00  2.8884962647130417e+00  1.8153501280008896e-01  -1.2836115671044293e+00  -2.8999200430261767e+00  1.7576558311536059e-01  7.6775391699316231e-01  5.9364221834412956e-01  9.0819332692558138e-02  -6.0897269165055423e-01  -3.1714187426589970e-02  4.4569803009818232e-01  -9.3450916289042049e-02  1.4639648353798890e-01  -4.1325633176600880e-02  2.3383082598082711e-01  -1.2237099635661323e-01  1.4551365930194168e-01  2.6621217344550790e-01  2.0458306388918010e-01  1.4201223325365035e-03  1.7325654003644140e-02  -2.3699807613011054e-01  -2.2636406350682395e-01  -2.0995832073691725e-02  -6.0896253436381398e-01  -1.1324240377456048e-01  -1.3072355151764140e-03  3.1209463221995071e-01  7.0646433576645254e-02  -2.0015967863605422e-01  -3.9422178652604623e-01  -2.0085199685798774e-01  6.7194783685055829e-03  9.1047507309900841e-02  1.0159053287724001e-01  8.8632907603709046e-11  1.7414156081547089e-01  5.8413315223448603e-01  1.7416822109511637e-01  2.2890346447043224e-02  1.2549111058253998e-01  1.8153527839770789e-01  7.2360722984547640e-03  1.4465540605324553e-01  3.5280212878368827e-02  -3.9704480507713927e-02  7.4937515880602923e-01  6.1512086056915317e-12  1.6714676560161165e-01  1.8433153953686457e-01  1.7913860748782445e-01  -7.0942330261500005e-04  7.9021403526485276e-02  -2.8999113715228666e+00  4.7326759161043994e-02  2.1916384358482154e-02  -4.7245651195479199e-01  -6.3873256601647987e-01  -5.4266539663801860e-01  -4.8225478897892410e-01  -7.6930959929702813e-01  -8.6148892482042716e-01  -7.4039825739027521e-01  -3.1056994579980113e-01  -4.3381795780340021e-01  -7.0427219416759379e-01  -4.9490154488246857e-01  -1.0808218352032686e+00  -1.5024625881890441e+00  -1.3258307740292230e+00  -1.9078691243033050e+00  7.7256577430077111e-01  -6.0969035694914087e-01  6.2797733764203933e-01  -1.3276983704033203e+00  9.2222174098835186e-01  9.3570609210515854e-01  2.1884272777266180e+00  1.3143908140448279e+00  1.4249812829285582e+00  1.8085614155456193e+00  -4.6939698203047109e-01  6.3851561250325717e-01  4.7263577846102889e-01  6.0821146240809598e-01  4.2149745631524704e-01  -1.8980614529976036e+00  1.9084088770457601e+00  1.0222356504514210e-01  -1.9641263943348772e+00  7.6611600497681465e-01  -3.3144379122555473e-01  2.9101512034854715e-01  3.5860628037664177e-01  6.9761441843638944e-02  4.9284535829610809e-01  3.3104869191929581e-01  1.0285373205246068e-01  4.3368334297358579e-01  1.8139572847130145e-01  -1.1546800221198342e-01  6.0745283834128094e-01  -4.4474726339570309e-01  -8.3139254899386714e-02  -1.2941952854207079e+00  -3.8839693740762529e-02  -1.3634623018239053e-01  -7.7455419935908010e-01  -2.8340275145730126e-01  -1.3328370640981915e-01  2.4329716583663702e-01  2.7874383011841941e-01  -1.3333473025013383e+00  -3.0901621573332139e-01  -9.1065991819160619e-01  -3.4959856340267548e-02  6.0750918306933932e-01  2.5667812403178986e-01  2.0016227455368779e-01  -1.3679296098043653e-01  1.1483150541679728e-01  -3.5154955907737103e-04  3.1617397451873702e-01  -1.7957834760077181e-02  4.5770208217273278e-01  -2.4906691678640580e-01  2.5279392595731082e-01  1.8900030230599915e-01  -9.0787289174069627e-02  1.9623775454499456e-01  7.3316243590860058e-02  3.1443150852736423e-01  3.1833033731821933e-02  -8.1663966460237866e-02  -1.8554526452817460e-01  -3.0093349882633053e-01  7.7977762206290324e-02  -3.9549525168817590e-01  -6.1456418472532262e-02  -3.9010842947977914e-01  1.0948590646544816e-01  -9.0581435895394205e-02  -1.9437889666917169e-01  8.7075088520283270e-02  -4.4498057467955004e-01  4.3367583945217630e-01  -1.7310123949951167e-01  -8.7757905905814851e-02  -1.1338737553240386e-01  -1.1758441542764673e-02  -5.7841470776418193e-07  1.5606337163903447e-01  4.1453705733272420e-07  -1.5298690275093532e-01  9.7163849511159764e-02  1.7413557032206364e-01  2.0738982951614748e-01  -1.7412087482243055e-01  2.0716989503458741e-01  1.7415402681457651e-01  1.7419405602133428e-01  7.0116100214886026e-02  -1.7415567970843873e-01  -1.4426686988318499e-01  -1.2328258519860245e-01  3.3421989973040023e-01  1.2425963731163643e-01  4.9343950070302134e-01  1.1592034745606175e-01  3.9270017052761894e-07  1.7414863104239220e-01  5.8010003244061879e-02  4.4336421804166733e-08  1.7415567087166758e-01  1.7416351053220400e-01  1.0000262432619798e-01  4.7263823536610755e-01  2.6691529255768109e-01  1.7417278506815312e-01  1.7420339302544247e-01  1.7418720980071783e-01  1.1676520961035779e-01  1.1778254495588900e-02  -8.3133190223509262e-03  1.2052171645357147e-01  -1.8261816132731867e-02  5.8114949070571531e-01  6.3854347520610011e-01  1.8603674317960981e-02  2.1784619670501058e-08  -3.7218352857739494e-02  2.8630227249998347e-01  1.5689686310644277e-01  -3.9922222932561008e-02  8.8255756854226144e-08  5.1158189313204212e-02  -1.1722987649675423e-01  -5.9007822251919029e-02  1.1837614657517725e-01  7.6577710545196276e-01  -8.8142344689708049e-09  1.9423280974625654e-08  1.5174909245638063e-01  1.8615957422805293e-01  2.1059801476333542e-01  -2.7654447331928243e-03  4.0673035277183195e-01  -3.1720501331039652e-01  1.9084037042445716e+00  -2.3583781141036344e-02  -1.7172870357100591e-03  -1.9651346299781545e+00  6.2015326667941337e-02  1.6676590419729242e-02  2.5502663863354363e-01  -6.8399112885096985e-03  -3.4138988346368843e-01  -4.4078541726489756e-01  -5.8803709435835105e-01  -4.9399677651250601e-01  -5.9327434712786697e-01  -5.2017829956356731e-01  -5.4471488679415303e-01  2.5565317922851433e-01  -7.1702827910686429e-01  -8.1029879012565076e-01  -5.6665167943338901e-01  -6.3158492780100761e-01  -8.5914582829046315e-01  3.6839740718024289e-01  -3.3274133077213330e-01  2.5347568188885655e-01  -3.3349670403366399e-01  -1.6314241597644516e-01  -9.9040450244598144e-01  -1.0500561835393556e+00  -5.6923499526633536e-01  -9.0948961708892584e-01  -7.9570594003611839e-01  -1.1106178404986353e+00  -1.3367794429263047e+00  -1.2244545512691289e+00  -5.7514130757961257e-01  3.3761978603426424e-01  -5.8460525591535584e-01  -1.3005147688428049e+00  -5.2506762296348586e-01  6.7241269091884270e-01  -5.5538333863360678e-01  6.1013456900427554e-01  -7.8215990631030585e-01  -9.3354885886874406e-01  -1.0429860133255129e+00  8.8787462844321574e-01  8.6452480829983747e-01  -1.1473891896605977e+00  1.0054826717333463e+00  1.0206912241167481e+00  -1.6355405854264771e+00  -1.6282260301076228e+00  -1.8674078045616787e+00  -1.5304044139199553e+00  1.3906631975106505e+00  1.9346098462972050e+00  1.6130441202561725e+00  1.6559169357360619e+00  1.8651735162219809e+00  -2.4272272445451542e+00  2.4956651963725140e+00  2.3608668044903793e+00  -1.8804754416750136e+00  4.4030167344241194e-01  3.4179245019903004e-01  6.0087027509994839e-01  -1.4857572485644008e+00  2.7932149235675356e+00  1.7733512615906688e-01  1.8889522845963376e+00  2.4278370865072607e+00  3.6084036517627632e-01  -2.4473312184596425e+00  1.3057355994387814e+00  5.2019773331268215e-01  -1.6399490436864952e-01  8.5246293606667389e-01  8.0942094806867126e-01  7.0681400576784226e-01  8.6700964843252570e-01  4.3219522801159355e-01  5.1348832873309802e-01  5.8878953314801419e-01  5.8705850902074841e-01  6.1982336560266660e-01  5.9699134010549204e-01  4.5041698498579558e-01  3.8153987936565381e-01  3.2917491637363239e-01  3.2496693485909117e-01  3.3574207174098297e-01  4.2369601265009144e-01  -4.8832184328808127e-02  5.2477953629783036e-01  5.5280924519339669e-01  -5.3076818844876461e-01  -7.8853505684571001e-01  1.4912757408100583e+00  1.7007843568155507e+00  5.7224990443594825e-01  -1.9537273895404816e+00  3.1856637373397584e-01  -1.6742472176394771e-01  -4.6958902179979073e-01  6.2887252614888478e-01  7.4291704910585665e-01  7.2890836766923961e-01  -6.7194679051311068e-01  -1.2408224049285536e-01  -1.5718429995307315e+00  -1.6563972110569372e-01  1.3448369003502048e-01  -1.4587164530296008e+00  6.9679619512012858e-01  8.2506285603340757e-01  -1.1898117119608810e-01  -1.1602264918613822e-01  2.3580069983216791e-02  4.0086668244259528e-02  9.6579232427372008e-01  1.0361816241118946e+00  1.1906250512282022e+00  -3.8673939987942735e-01  -1.0248865460278041e-01  1.4825102369963800e-01  -7.0676308744321548e-01  -1.7844580649228539e-01  -1.6245774813891734e+00  -1.4586308474560188e+00  1.4915578089983934e+00  -1.9532492886613662e+00  9.6735361857784481e-03  1.8478641201293804e+00  1.7007917455050303e+00  5.0505491903010302e-01  3.2284234091543823e-01  2.7829083765307527e-01  2.5933239332134378e-01  2.6904493498447424e-01  2.1838525326474295e-01  2.5475975080228741e-01  2.0373515640667661e-01  -1.7192522277121933e-01  -2.2430798194155382e-01  -1.7554698898514814e-01  6.1387501869584304e-01  1.4690750818944838e-02  8.5309983985929025e-02  1.4188002224114867e-02  -1.9872818790046241e-02  1.3683843962977684e+00  9.0075218583271321e-01  -1.4074784045471180e+00  -2.6146145433871371e-01  4.4101708556536584e-01  6.4506570765242333e-01  6.5561689709865179e-01  -8.6303257616633204e-03  3.9764934336701857e-01  5.5013063090640503e-02  2.7400864871656772e-01  3.1610035322055452e-01  2.5487491242363086e-01  2.2149646649071869e-01  -2.5331931805624808e-01  2.6432213263272275e-01  2.2943487346196537e-01  2.0795431191332081e-01  1.9892497343417498e-01  1.8171059719170768e-01  -1.9677537424731822e-01  2.0362122413375600e-01  3.4471077335228845e-01  3.6380735758051019e-01  -1.1248064260085822e-01  -3.4695228799449590e-01  -9.6295113069802463e-01  4.4081030474928812e-01  -5.8677014245685299e-01  2.3886833602864727e-01  -9.9943352135732424e-02  -1.5658325271704307e-01  1.4902753418516534e-01  -6.2211049927396164e-02  -1.2676401907321169e-01  1.0531003591517786e-01  -1.6196524605353207e-01  -4.5026668325618446e-01  -1.7648856412394939e-01  -1.7778799994340780e-01  -2.4670758083810590e-01  2.4211106791842230e-01  2.5750329818004425e-01  -1.0896632251410681e+00  -2.8963640306183375e-01  1.7305042945011481e-01  -3.9378451812644699e-01  -3.7077044147237365e-01  2.5145502928607688e-01  -2.5077620564433351e-01  -2.9089859483400826e-01  -1.1716921870224322e+00  -4.1129001267213366e-01  1.4870184339870937e-01  -1.1916031513992874e-01  -6.7901048707495318e-02  -5.1147437163934584e-01  -1.8198093612502933e-01  1.5396774792123571e-01  -1.8042532971822609e-01  9.4694948890470518e-02  -1.6344484305038801e-01  5.5268328498465524e-01  -7.6103655687491001e-01  -5.3112665355070654e-01  5.2490250414580208e-01  -1.2451121392164731e-01  -1.5096358441159485e-01  -1.0822069703346578e-01  -1.3265002963666303e-01  -1.1350494047241876e-01  -1.1448146621838466e-01  -1.3316739234000050e-01  -1.1276288704616537e-01  8.9657546168131052e-04  5.6486871782254115e-04  4.8426151668180843e-03  -3.6686134481523052e-04  4.8855020771732720e-04  3.1353410206105509e-01  3.3940034139899561e-01  -2.8045693164537155e-01  2.6903921124623897e-01  -2.3376676535357355e-01  3.0623078934848912e-02  2.2235925962717315e-01  8.6779566543231275e-04  1.5530830246213656e-01  -5.0158972146679637e-02  1.8456185248720133e-01  3.0110607807787221e-01  -2.8254259029846237e-02  -1.6618683538646004e-01  3.7917884041713645e-02  1.7133405646858513e-01  -2.0844638892138326e-01  -1.9755590588518845e-01  1.9319323567340341e-01  -1.6439280502021833e-01  -1.7310523947408074e-01  1.9414106801012249e-01  -1.7375641950968981e-01  -1.7332187068623381e-01  1.6430047391692976e-01  -4.9137509379022637e-01  -4.9143431131175142e-01  7.4132440804796487e-02  1.8461398662703216e-01  1.7712787383335651e-01  1.7514039119328365e-01  1.7545051004167164e-01  1.9183671610967873e-01  -1.9395564355248912e-01  1.9318220540255121e-01  -1.7258455466101574e-01  -2.0949495103474189e-01  -1.7295087177894605e-01  -1.5949583614922327e-01  -1.7274414559391979e-01  -9.6990977446411542e-01  -5.9927589313998197e-01  -3.4661072706560919e-01  3.4454786032069334e-01  -7.6575343207187785e-02  -1.4375013257269995e-01  -1.1226144490552120e-01  2.3657012322883672e-01  6.3248571025391132e-01  3.3859101036570577e-01  3.3591312862998024e-01  -4.8363351657375535e-02  3.2577754856008023e-01  5.7989730296434761e-01  -1.1388826890289565e-01  1.2996944414527029e-01  2.7507725290291636e-03  1.1351262409850076e-01  1.7205206494011177e-01  8.0840272725123824e-04  1.7313669844582558e-01  8.2953466309230256e-02  -6.2360506829660309e-09  2.2283316488249984e-08  1.1113500212719931e-08  1.6628979866373140e-09  1.7414049883806415e-01  -1.7414070322283637e-01  1.7414151799469099e-01  1.7414106399197676e-01  1.7414295750413289e-01  1.7414168448093917e-01  5.9729696602112958e-01  2.7871570945895568e-01  2.4015342289300265e-01  5.8704077778334385e-01  4.1018548347782186e-01  6.0345641472854317e-01  1.7416880219007957e-01  -1.7416780575208318e-01  1.7416708454438443e-01  1.7416767423002566e-01  1.7416888837039560e-01  1.7416828866318285e-01  -2.1720216869003403e-01  2.7975669448893753e-01  9.6685414250723856e-02  1.6827828660441776e-01  1.0955866331661902e-01  -4.0964101341174793e-02  4.1152168968632941e-02  1.1044818734356735e-02  1.0049303818113843e-01  1.1045927302123545e-01  1.5292563423589409e-01  1.2443579732064239e-01  1.1925268960797794e-01  -1.1767025830915602e-01  3.4179275696984990e-01  6.0024474333688704e-01  4.4047999432421836e-01  2.7562575312509624e-04  1.7423424999931297e-01  3.2823379415305373e-02  -4.1806457431113921e-05  1.7511095299845669e-01  1.7948824492175497e-01  1.7438699180753242e-01  1.1697567717413759e-02  -4.3488026942180062e-05  7.7563880453855998e-05  1.3811460551412544e-01  1.8968598489696886e-01  1.2315088371359857e-01  -8.9203058297774626e-02  2.5062465120467192e-01  -7.1963366161893527e-02  1.9573344788057381e-01  1.5608094389057070e-01  -1.2006049976969713e-01  1.6393141932432598e-01  1.7189654375847285e-01  1.7319484503838975e-01  3.3293017542174320e-02  2.7248726768479808e-02  -4.0072727228577597e-02  7.9652195868519006e-04  4.2209439088133995e-02  8.7608471795981677e-04  -3.1287966700462980e-02  -3.1632810704390481e-02  -2.1255861751308756e-02  -3.5836642451537851e-02  -4.0825177124228930e-02  -4.2720069847359592e-02  -4.7264018150819515e-02  -4.2298743390405839e-02  6.8622350799196774e-01  8.0940268139186744e-01  4.6159632710949672e-01  5.2165174707300876e-01  8.6727265435847878e-01  3.5344032651169510e-01  1.4717393428029874e-10  7.5196796417095076e-10  -1.2653648959580335e-08  -9.8245207299678297e-11  1.5495978514417311e-01  -1.5268997645538465e-01  2.2149924927777195e-01  1.5979025953912712e-01  1.7548812316892692e-01  1.5976753193356943e-01  8.3113574898446549e-02  -1.3351055778578194e-01  -8.9010729936450539e-02  1.2681836536152400e-04  1.6373071358081098e-01  1.9769417748332757e-01  -5.7216918493990368e-02  2.8094469608938577e-01  5.2176671771094552e-01  5.1301126106845463e-01  -1.5956221375896881e-01  1.3071641492798984e+00  -5.6792996821268342e-06  3.7887004044984560e-05  3.0459620784379569e-04  -6.7648579138737501e-04  -6.1655001151878091e-05  3.8061441189883721e-01  6.1001504823868313e-01  1.0699730946041219e-02  3.5373022232828749e-01  -2.8292145773425431e-01  1.3654607153875566e+00  -1.4028309718023900e-02  -1.4028967588430694e+00  -9.0734020637493251e-02  8.1874517155928514e-02  2.4278971697950928e+00  -2.4496115432449299e+00  2.2247316934837183e-01  1.8817182306245286e+00  -1.5349854705721994e-02  -1.0095229370411829e-02  1.3641169127312283e-01  -1.1569191789272555e-02  9.3063546052130578e-03  -5.6538832521474793e-03  -2.1590040124460433e-01  -2.9910780622591119e-02  -5.5429041065933615e-01  -6.4378725307789830e-01  -5.8375985266558894e-01  -3.9157872658145121e-01  -8.1598106593319952e-01  5.6478149075916462e-01  7.5820417956187114e-01  -4.8846761800983945e-01  -5.9813992105010760e-01  -5.6041386057074150e-01  -6.4733996132035565e-01  -9.3482451019663326e-01  -1.0190020857029378e+00  -1.2753529330017699e+00  -1.2138132492499769e+00  -1.4444758945672571e+00  -1.4135848517207084e+00  -1.6036649617964969e+00  -2.1351126037389969e+00  7.3346835451552717e-01  -5.7338418520830359e-01  6.1676009870024828e-01  7.7118909660387069e-01  1.1944900217476428e+00  9.3052636832209878e-01  1.1109444834663162e+00  7.1270757905045956e-01  2.1005857492870232e+00  1.3694242873706108e+00  8.9979783748207443e-01  1.6065099873946258e+00  -1.2362241153186488e+00  6.1203752753156437e-01  7.5775107932914865e-01  6.8629829396011377e-01  4.5342980346933615e-01  4.3529402634796344e-01  -1.5489389111667995e+00  -7.9362551992491190e-02  1.9327002310484602e+00  1.3340264762843643e+00  8.7281627851828492e-01  1.4308675208532989e-01  4.4225538729596159e-01  3.8029322120796832e-01  3.1381549919240204e-01  3.0069656672735862e-01  3.0162923978611805e-01  2.5939418219451887e-01  3.4853708147420420e-01  2.3834612633189151e-01  2.1467419091122111e-01  2.0289987806153978e-01  3.4028662819517513e-01  4.3973919567827013e-01  3.0962450046272139e-01  1.9146340065736908e-01  1.6313384290263129e+00  -1.0369645767510451e+00  -2.6979547344613158e-01  -3.7089512676182219e-02  1.6112338987783918e+00  1.7829828197064340e-01  3.1604194804378628e-02  -1.9891480211787871e-01  2.4812702241467954e-01  -1.2770366033484992e+00  4.0446364045735712e-02  2.1006446705962192e-01  2.6793379962825725e-01  2.5924883157422601e-01  1.6536216914165127e+00  -1.3002563957631601e+00  2.1979316517630787e-01  -2.1104367545101491e-01  -3.0791732259923260e-01  1.6338759398389273e+00  -2.5080021862109547e-01  -1.9159623101001802e-01  -1.8935637062426788e-01  -1.0725971580549383e-01  6.4997913628793744e-02  1.1943620384565314e-02  3.9232828285666038e-01  2.6754343557187571e-01  -2.2096076544239319e-02  -1.3947153112709486e-02  -2.6138036102654416e-01  -2.0793319153068629e-01  1.9359361637368819e-01  2.4485772455839377e-01  -1.7951031157514513e-01  -6.5419274809201927e-02  -1.6827849513855908e-01  -1.6677372353360514e-01  -2.3762802858571749e-01  2.5854272305277957e-02  -1.1955577333610282e-01  -2.9082062014534849e-01  -3.7076630869514110e-01  1.3155624872699209e-01  1.1714620192828801e-01  -4.2089289815215730e-01  -1.0484863971380509e-01  1.1723899309512471e-01  -3.0404910587112516e-01  1.0266340184971433e-01  -4.3200045212605211e-02  -1.0375993999844813e+00  -2.4261335050953725e-01  -1.6202241961898409e-01  4.3973073081605218e-01  3.4027475435162380e-01  -1.7411477865841957e-01  -8.6668958246290215e-02  -1.3457971318097262e-01  -1.1193424250248689e-01  3.6088526030028417e-04  -2.8919876839578001e-07  8.8835667524457085e-04  5.0254431163252468e-07  -1.7283777763863259e-01  1.7174008309857938e-01  -1.7412910752551797e-01  1.7413989433219465e-01  -1.7338183652488023e-01  -1.7410400221738878e-01  -1.7342822887633538e-01  1.7344984252188883e-01  1.7398242545123460e-01  -1.7413837887674258e-01  1.7400273089833221e-01  6.2867604183735493e-02  -1.7416500672224061e-01  -1.5378356115436698e-01  -1.7285206227185554e-01  2.7755620201267817e-01  2.0124110322432737e-01  1.2701497624515723e-01  1.1746449093464073e-01  3.1187695284670758e-01  1.4495678302982395e-01  4.6671851641009223e-04  2.3684006299507115e-07  1.7370620631704634e-01  1.7415496785299681e-01  -1.7430832363686707e-01  -1.7432852095580104e-01  -1.7486437034936830e-01  1.6745659190671119e-01  1.2354705065784462e-01  6.8474223139913482e-01  3.8533513880961695e-01  1.7417757868156233e-01  1.7169530826805904e-01  1.7419417625393574e-01  1.7381401230114299e-01  -1.0282193344588848e-01  -6.8039883650675807e-03  -3.0647393962998166e-02  1.1430917799375634e-02  -1.1104500825028556e-01  -2.0045220274962455e-02  7.5615338948923982e-01  3.9943400716034899e-01  1.1654907716808918e-04  6.6772686975349185e-08  -7.1301612561998642e-02  2.0927160875568704e-01  -1.4899111271689408e-01  1.6015794081178841e-01  -4.3506352026504956e-02  9.0029005139137798e-08  -5.9760634318112085e-02  1.9470818111016789e-04  -7.7230056094246366e-02  -1.5532956571333009e-01  2.1461381