<?xml version="1.0"?>
<VTKFile type="UnstructuredGrid"  version="0.1"  >
<UnstructuredGrid>
<Piece  NumberOfPoints="225" NumberOfCells="384">
<Points>
<DataArray  type="Float64"  NumberOfComponents="3"  format="ascii">-1 1 0  -0.7500000000000002 1 0  -1 0.75 0  -0.5000000000000002 1 0  -0.4687317158419215 0.4687317158419215 0  -1 0.5000000000000002 0  -0.2500000000000001 1 0  -0.167322142694602 0.250983214041903 0  -0.250983214041903 0.167322142694602 0  -1 0.2500000000000001 0  1 1 0  0.9999999999979623 1.110223024622894e-16 0  1 0.2500000000000002 0  1 0.5000000000000002 0  1 0.75 0  0.75 1 0  0.5000000000000002 1 0  0.2500000000000001 1 0  0 0.9999999999979623 0  -0.02996239294911606 0.08988717884734818 0  -0.02199800931582472 0.02199800931582472 0  -0.08988717884734816 0.02996239294911605 0  -0.9999999999979623 0 0  0.4687317158419215 0.4687317158419215 0  0.0563135147094726 0 0  0.08988717884734816 0.02996239294911605 0  0.250983214041903 0.167322142694602 0  0.167322142694602 0.250983214041903 0  0.02996239294911605 0.08988717884734816 0  0 0.0563135147094726 0  -0.001332765915716535 0.00266553183143307 0  -0.00266553183143307 0.001332765915716535 0  -0.0563135147094726 0 0  -1 -0.2500000000000002 0  0.02199800931582472 0.02199800931582472 0  0.0009765624999999977 0 0  0.00266553183143307 0.001332765915716535 0  0.001332765915716535 0.00266553183143307 0  0 0.0009765624999999977 0  -2.157918606448279e-05 2.157918606448279e-05 0  -0.0009765624999999977 0 0  -0.08988717884734818 -0.02996239294911606 0  -1 -0.5000000000000002 0  2.157918606448279e-05 2.157918606448279e-05 0  9.536743164062467e-07 0 0  0 9.536743164062467e-07 0  -1 -0.7500000000000002 0  -9.536743164062467e-07 0 0  -0.00266553183143307 -0.001332765915716535 0  -0.250983214041903 -0.167322142694602 0  -1 -1 0  0 0 0  -0.4687317158419215 -0.4687317158419215 0  -2.157918606448279e-05 -2.157918606448279e-05 0  -0.02199800931582472 -0.02199800931582472 0  -0.7499999999999999 -1 0  0 -9.536743164062467e-07 0  -0.167322142694602 -0.250983214041903 0  -0.001332765915716535 -0.00266553183143307 0  -0.4999999999999993 -0.9999999999999986 0  0 -0.0009765624999999977 0  -0.02996239294911605 -0.08988717884734816 0  -0.2499999999999996 -0.9999999999999987 0  0 -0.0563135147094726 0  0 -0.9999999999979609 0  -0.8750000000000002 1 0  -1 0.8750000000000001 0  -0.8750000000000001 0.8750000000000001 0  -0.6250000000000002 1 0  -0.6093658579209609 0.7343658579209609 0  -0.7343658579209608 0.6093658579209608 0  -1 0.6250000000000001 0  -0.4843658579209609 0.734365857920961 0  -0.3750000000000002 1 0  -0.3336610713473011 0.6254916070209517 0  -0.734365857920961 0.4843658579209609 0  -0.3180269292682618 0.3598574649419123 0  -0.3598574649419123 0.3180269292682618 0  -0.6254916070209517 0.3336610713473012 0  -1 0.3750000000000002 0  -0.2086610713473011 0.6254916070209517 0  -0.1250000000000001 0.9999999999989814 0  -0.1399811964745581 0.5449435894236743 0  -0.2091526783682525 0.2091526783682525 0  -0.09864226782185904 0.1704351964446256 0  -0.09466007600521337 0.1364906116788639 0  -0.6254916070209517 0.2086610713473011 0  -0.1364906116788639 0.09466007600521338 0  -0.1704351964446256 0.09864226782185904 0  -0.5449435894236743 0.1399811964745581 0  -0.9999999999989814 0.1250000000000001 0  1 0.8750000000000001 0  0.8750000000000001 1 0  0.7343658579209609 0.7343658579209609 0  0.9999999999989814 0.1250000000000002 0  0.5281567573537175 5.551115123114471e-17 0  1 0.3750000000000002 0  0.5281567573547366 0.1250000000000001 0  0.5449435894236743 0.1399811964745581 0  1 0.6250000000000001 0  0.5449435894236743 0.2649811964745581 0  0.6254916070209517 0.3336610713473012 0  0.7343658579209608 0.6093658579209608 0  0.6254916070209515 0.4586610713473011 0  0.6250000000000001 1 0  0.6093658579209608 0.7343658579209608 0  0.4586610713473011 0.6254916070209515 0  0.3750000000000002 1 0  0.3336610713473012 0.6254916070209517 0  0.2649811964745581 0.5449435894236743 0  0.1250000000000001 0.9999999999989814 0  0.1399811964745581 0.5449435894236743 0  0.1250000000000001 0.5281567573547366 0  -0.01498119647455803 0.5449435894226552 0  0 0.5281567573537175 0  -0.02598020113247039 0.05594259408158644 0  -0.01498119647455803 0.07310034677841039 0  -0.0156475794324163 0.04627635533939062 0  -0.05594259408158644 0.02598020113247038 0  -0.01166538761577062 0.01233177057362889 0  -0.01233177057362889 0.01166538761577062 0  -0.5449435894226552 0.01498119647455803 0  -0.04627635533939062 0.01564757943241629 0  -0.07310034677841037 0.01498119647455803 0  -0.5281567573537175 0 0  -0.9999999999989814 -0.1250000000000001 0  0.3598574649419123 0.3180269292682618 0  0.3180269292682618 0.3598574649419123 0  0.2453648625788731 0.2453648625788731 0  0.07310034677841037 0.01498119647455803 0  0.0286450386047363 0 0  0.1704351964446256 0.09864226782185904 0  0.04543187067367408 0.01498119647455803 0  0.04627635533939062 0.01564757943241629 0  0.1364906116788639 0.09466007600521338 0  0.1268243729366681 0.0843274543051593 0  0.09864226782185904 0.1704351964446256 0  0.09466007600521338 0.1364906116788639 0  0.0843274543051593 0.1268243729366681 0  0.01498119647455803 0.07310034677841037 0  0.01564757943241629 0.04627635533939062 0  0.01498119647455803 0.04543187067367408 0  -0.0006663829578582675 0.02948952327045283 0  0 0.0286450386047363 0  -0.001999148873574802 0.001999148873574802 0  -0.0006663829578582675 0.001821047165716534 0  -0.0006771725508905089 0.001343555508748776 0  -0.02948952327045283 0.0006663829578582675 0  -0.001343555508748776 0.0006771725508905089 0  -0.001821047165716534 0.0006663829578582675 0  -0.5281567573547366 -0.1250000000000001 0  -0.0286450386047363 0 0  -0.07310034677841039 -0.01498119647455803 0  -0.5449435894236743 -0.1399811964745581 0  -1 -0.3750000000000002 0  0.01233177057362889 0.01166538761577062 0  0.01166538761577062 0.01233177057362889 0  0.0110097942509446 0.0110097942509446 0  0.001821047165716534 0.0006663829578582675 0  0.0004887580871582019 0 0  0.001343555508748776 0.0006771725508905089 0  0.001333242752874738 0.0006663829578582675 0  0.0006663829578582675 0.001821047165716534 0  0.0006771725508905089 0.001343555508748776 0  0.0006663829578582675 0.001333242752874738 0  -1.078959303224139e-05 0.0004990708430322403 0  0 0.0004887580871582019 0  -0.0004990708430322403 1.078959303224139e-05 0  -1.078959303224139e-05 1.126643019044452e-05 0  -1.126643019044452e-05 1.078959303224139e-05 0  -0.04543187067367409 -0.01498119647455803 0  -0.0004887580871582019 0 0  -0.001821047165716534 -0.0006663829578582675 0  -0.5449435894236743 -0.2649811964745581 0  -0.04627635533939062 -0.0156475794324163 0  -0.1704351964446256 -0.09864226782185904 0  -1 -0.6250000000000002 0  -0.6254916070209517 -0.3336610713473011 0  1.126643019044452e-05 1.078959303224139e-05 0  1.078959303224139e-05 1.126643019044452e-05 0  1.078959303224139e-05 1.078959303224139e-05 0  4.768371582031234e-07 0 0  -4.768371582031234e-07 4.768371582031234e-07 0  0 4.768371582031234e-07 0  -0.6254916070209516 -0.4586610713473011 0  -1 -0.8750000000000002 0  -0.7343658579209609 -0.6093658579209609 0  -0.001333242752874738 -0.0006663829578582675 0  -4.768371582031234e-07 0 0  -1.126643019044452e-05 -1.078959303224139e-05 0  -0.1268243729366681 -0.08432745430515928 0  -0.001343555508748776 -0.0006771725508905089 0  -0.01233177057362889 -0.01166538761577062 0  -0.3598574649419123 -0.3180269292682618 0  -0.1364906116788639 -0.09466007600521337 0  -0.7343658579209608 -0.7343658579209609 0  -0.875 -1 0  -1.078959303224139e-05 -1.078959303224139e-05 0  0 -4.768371582031234e-07 0  -0.2453648625788731 -0.2453648625788731 0  -0.6093658579209607 -0.7343658579209608 0  -0.3180269292682617 -0.3598574649419122 0  -0.0110097942509446 -0.0110097942509446 0  -1.078959303224139e-05 -1.126643019044452e-05 0  -0.0006771725508905089 -0.001343555508748776 0  -0.09466007600521335 -0.1364906116788639 0  -0.01166538761577062 -0.01233177057362889 0  -0.4586610713473009 -0.6254916070209515 0  -0.6249999999999996 -0.9999999999999993 0  -0.0006663829578582675 -0.001333242752874738 0  0 -0.0004887580871582019 0  -0.08432745430515927 -0.126824372936668 0  -0.3336610713473006 -0.6254916070209507 0  -0.09864226782185902 -0.1704351964446256 0  -0.0006663829578582675 -0.001821047165716534 0  -0.01564757943241629 -0.04627635533939062 0  -0.2649811964745576 -0.5449435894236734 0  -0.3749999999999994 -0.9999999999999987 0  -0.01498119647455803 -0.04543187067367408 0  0 -0.0286450386047363 0  -0.1399811964745578 -0.5449435894236734 0  -0.01498119647455803 -0.07310034677841037 0  -0.1249999999999998 -0.5281567573547357 0  -0.1249999999999998 -0.9999999999989797 0  0 -0.5281567573537167 0  </DataArray>
</Points>
<Cells>
<DataArray  type="UInt32"  Name="connectivity"  format="ascii">0 66 67  2 66 67  0 65 67  1 65 67  5 70 75  4 70 75  5 70 71  2 70 71  3 68 69  1 68 69  3 69 72  4 69 72  2 67 69  1 67 69  2 69 70  4 69 70  22 89 121  21 89 121  22 89 90  9 89 90  21 87 118  20 87 118  21 87 88  8 87 88  9 78 86  8 78 86  9 78 79  5 78 79  8 88 89  21 88 89  8 86 89  9 86 89  18 81 82  6 81 82  18 82 113  19 82 113  6 73 74  3 73 74  6 74 80  7 74 80  19 84 85  7 84 85  19 85 115  20 85 115  7 80 82  6 80 82  7 82 84  19 82 84  4 77 78  8 77 78  4 75 78  5 75 78  7 85 87  20 85 87  7 83 87  8 83 87  4 72 74  3 72 74  4 74 76  7 74 76  7 76 77  4 76 77  7 77 83  8 77 83  51 182 188  47 182 188  51 182 183  45 182 183  39 165 166  38 165 166  39 166 168  45 166 168  39 169 171  47 169 171  39 167 171  40 167 171  45 168 169  39 168 169  45 169 182  47 169 182  19 113 114  18 113 114  19 114 116  29 114 116  20 115 117  19 115 117  20 117 119  30 117 119  30 142 143  29 142 143  30 143 145  38 143 145  29 116 117  19 116 117  29 117 142  30 117 142  21 123 124  32 123 124  21 121 124  22 121 124  31 149 151  40 149 151  31 147 151  32 147 151  20 120 122  31 120 122  20 118 122  21 118 122  32 122 147  31 122 147  32 122 123  21 122 123  38 145 146  30 145 146  38 146 165  39 146 165  30 119 120  20 119 120  30 120 144  31 120 144  40 148 167  39 148 167  40 148 149  31 148 149  30 146 148  39 146 148  30 144 148  31 144 148  22 125 150  33 125 150  22 124 150  32 124 150  33 154 173  42 154 173  33 153 173  41 153 173  32 152 170  41 152 170  32 151 170  40 151 170  41 150 153  33 150 153  41 150 152  32 150 152  46 186 195  52 186 195  46 185 195  50 185 195  49 194 199  54 194 199  49 193 199  52 193 199  42 177 184  49 177 184  42 176 184  46 176 184  52 184 193  49 184 193  52 184 186  46 184 186  47 189 197  53 189 197  47 188 197  51 188 197  40 172 187  48 172 187  40 171 187  47 171 187  48 192 202  54 192 202  48 191 202  53 191 202  53 187 191  48 187 191  53 187 189  47 187 189  49 173 177  42 173 177  49 173 175  41 173 175  54 190 194  49 190 194  54 190 192  48 190 192  48 170 174  41 170 174  48 170 172  40 170 172  41 175 190  49 175 190  41 174 190  48 174 190  64 222 224  63 222 224  64 222 223  62 222 223  63 218 221  61 218 221  63 218 219  60 218 219  62 216 220  61 216 220  62 216 217  59 216 217  61 221 222  63 221 222  61 220 222  62 220 222  56 197 203  53 197 203  56 197 198  51 197 198  58 202 206  54 202 206  58 202 204  53 202 204  60 209 214  58 209 214  60 209 210  56 209 210  53 204 209  58 204 209  53 203 209  56 203 209  55 195 200  52 195 200  55 195 196  50 195 196  59 207 212  57 207 212  59 207 208  55 207 208  57 199 205  54 199 205  57 199 201  52 199 201  52 201 207  57 201 207  52 200 207  55 200 207  58 215 218  61 215 218  58 214 218  60 214 218  54 206 211  58 206 211  54 205 211  57 205 211  57 213 216  61 213 216  57 212 216  59 212 216  61 211 215  58 211 215  61 211 213  57 211 213  18 110 112  17 110 112  18 112 114  29 112 114  29 139 141  28 139 141  29 141 143  38 141 143  17 107 109  16 107 109  17 109 111  28 109 111  28 111 112  17 111 112  28 112 139  29 112 139  45 179 180  43 179 180  45 180 183  51 180 183  37 156 157  34 156 157  37 157 163  43 157 163  38 162 164  37 162 164  38 164 166  45 164 166  43 163 164  37 163 164  43 164 179  45 164 179  15 92 93  10 92 93  15 93 105  23 93 105  16 104 106  15 104 106  16 106 108  27 106 108  27 127 128  23 127 128  27 128 137  34 128 137  23 105 106  15 105 106  23 106 127  27 106 127  37 140 141  28 140 141  37 141 162  38 141 162  34 137 138  27 137 138  34 138 156  37 138 156  27 108 109  16 108 109  27 109 136  28 109 136  28 136 138  27 136 138  28 138 140  37 138 140  11 95 97  24 95 97  11 94 97  12 94 97  12 98 100  25 98 100  12 96 100  13 96 100  24 130 132  35 130 132  24 129 132  25 129 132  25 97 129  24 97 129  25 97 98  12 97 98  14 91 93  10 91 93  14 93 102  23 93 102  26 126 128  23 126 128  26 128 134  34 128 134  13 101 103  26 101 103  13 99 103  14 99 103  23 102 103  14 102 103  23 103 126  26 103 126  44 178 180  43 178 180  44 180 181  51 180 181  35 159 161  44 159 161  35 158 161  36 158 161  36 155 157  34 155 157  36 157 160  43 157 160  43 160 161  36 160 161  43 161 178  44 161 178  26 100 131  25 100 131  26 100 101  13 100 101  34 134 135  26 134 135  34 135 155  36 135 155  36 132 158  35 132 158  36 132 133  25 132 133  25 133 135  36 133 135  25 131 135  26 131 135  </DataArray>
<DataArray  type="UInt32"  Name="offsets"  format="ascii">3 6 9 12 15 18 21 24 27 30 33 36 39 42 45 48 51 54 57 60 63 66 69 72 75 78 81 84 87 90 93 96 99 102 105 108 111 114 117 120 123 126 129 132 135 138 141 144 147 150 153 156 159 162 165 168 171 174 177 180 183 186 189 192 195 198 201 204 207 210 213 216 219 222 225 228 231 234 237 240 243 246 249 252 255 258 261 264 267 270 273 276 279 282 285 288 291 294 297 300 303 306 309 312 315 318 321 324 327 330 333 336 339 342 345 348 351 354 357 360 363 366 369 372 375 378 381 384 387 390 393 396 399 402 405 408 411 414 417 420 423 426 429 432 435 438 441 444 447 450 453 456 459 462 465 468 471 474 477 480 483 486 489 492 495 498 501 504 507 510 513 516 519 522 525 528 531 534 537 540 543 546 549 552 555 558 561 564 567 570 573 576 579 582 585 588 591 594 597 600 603 606 609 612 615 618 621 624 627 630 633 636 639 642 645 648 651 654 657 660 663 666 669 672 675 678 681 684 687 690 693 696 699 702 705 708 711 714 717 720 723 726 729 732 735 738 741 744 747 750 753 756 759 762 765 768 771 774 777 780 783 786 789 792 795 798 801 804 807 810 813 816 819 822 825 828 831 834 837 840 843 846 849 852 855 858 861 864 867 870 873 876 879 882 885 888 891 894 897 900 903 906 909 912 915 918 921 924 927 930 933 936 939 942 945 948 951 954 957 960 963 966 969 972 975 978 981 984 987 990 993 996 999 1002 1005 1008 1011 1014 1017 1020 1023 1026 1029 1032 1035 1038 1041 1044 1047 1050 1053 1056 1059 1062 1065 1068 1071 1074 1077 1080 1083 1086 1089 1092 1095 1098 1101 1104 1107 1110 1113 1116 1119 1122 1125 1128 1131 1134 1137 1140 1143 1146 1149 1152 </DataArray>
<DataArray  type="UInt8"  Name="types"  format="ascii">5 5 5 5 5 5 5 5 5 5 5 5 5 5 5 5 5 5 5 5 5 5 5 5 5 5 5 5 5 5 5 5 5 5 5 5 5 5 5 5 5 5 5 5 5 5 5 5 5 5 5 5 5 5 5 5 5 5 5 5 5 5 5 5 5 5 5 5 5 5 5 5 5 5 5 5 5 5 5 5 5 5 5 5 5 5 5 5 5 5 5 5 5 5 5 5 5 5 5 5 5 5 5 5 5 5 5 5 5 5 5 5 5 5 5 5 5 5 5 5 5 5 5 5 5 5 5 5 5 5 5 5 5 5 5 5 5 5 5 5 5 5 5 5 5 5 5 5 5 5 5 5 5 5 5 5 5 5 5 5 5 5 5 5 5 5 5 5 5 5 5 5 5 5 5 5 5 5 5 5 5 5 5 5 5 5 5 5 5 5 5 5 5 5 5 5 5 5 5 5 5 5 5 5 5 5 5 5 5 5 5 5 5 5 5 5 5 5 5 5 5 5 5 5 5 5 5 5 5 5 5 5 5 5 5 5 5 5 5 5 5 5 5 5 5 5 5 5 5 5 5 5 5 5 5 5 5 5 5 5 5 5 5 5 5 5 5 5 5 5 5 5 5 5 5 5 5 5 5 5 5 5 5 5 5 5 5 5 5 5 5 5 5 5 5 5 5 5 5 5 5 5 5 5 5 5 5 5 5 5 5 5 5 5 5 5 5 5 5 5 5 5 5 5 5 5 5 5 5 5 5 5 5 5 5 5 5 5 5 5 5 5 5 5 5 5 5 5 5 5 5 5 5 5 5 5 5 5 5 5 5 5 5 5 5 5 5 5 5 5 5 5 5 5 5 5 5 5 5 5 5 5 5 5 </DataArray>
</Cells>
<PointData  Scalars="u"> 
<DataArray  type="Float64"  Name="u"  format="ascii">1.2601779267648452e+00  1.1553422884033278e+00  1.1557983986390756e+00  1.0542328486724062e+00  7.5304012306883628e-01  1.0541962534425349e+00  9.5754491946673670e-01  4.3535667332288869e-01  4.3606641938007545e-01  9.5756157177586598e-01  6.3083681651819168e-01  -3.4100677240551593e-03  1.6734258438661370e-01  3.2795689276706608e-01  4.8380168393648332e-01  6.7400363646128569e-01  7.2769581796477567e-01  7.8995736752728951e-01  8.6852073355978110e-01  2.0243079881284914e-01  1.0549896402797898e-01  2.0245348552181083e-01  8.6852217906227680e-01  3.7662790500830406e-01  1.4887116280766525e-02  5.4963100902514307e-02  1.6599129264566306e-01  2.6358397990635413e-01  1.5407577246117896e-01  1.4047727520693368e-01  3.2016416849838594e-02  3.1622316411971704e-02  1.4047244917429294e-01  7.8995840239653858e-01  5.2159527305309129e-02  6.6889316879717763e-03  1.0259706233573303e-02  2.6880779354504045e-02  1.8631977944507890e-02  5.4071557767157120e-03  1.8754003026870355e-02  1.5408139480166208e-01  7.2769485134003742e-01  5.7682591956986773e-03  4.8750372785769215e-03  5.1665120914776326e-03  6.7400397862528239e-01  5.0736889070474387e-03  2.6958502179948860e-02  2.6357432305426515e-01  6.3083703916075806e-01  1.9503745064346884e-03  3.7645458131023846e-01  5.7004156176427203e-03  5.0756399593642705e-02  4.8380186263699154e-01  4.7891308335754031e-03  1.6598414598976952e-01  1.0294824774526279e-02  3.2795611847489653e-01  6.7071022463408691e-03  5.4973253209928290e-02  1.6734276560437464e-01  1.4893079501872946e-02  -3.4092755341401334e-03  1.2075375558913799e+00  1.2075570395303983e+00  1.1520429008970137e+00  1.1032998302074850e+00  9.6447024120780012e-01  9.6478954683863549e-01  1.1032885360449793e+00  9.0504095311190347e-01  1.0029087790641009e+00  7.7749612673254498e-01  9.0510457899291152e-01  5.9989898071271419e-01  6.0074210728438771e-01  7.7690092010168021e-01  1.0029057074595140e+00  7.1620936159328208e-01  9.0960556970257322e-01  6.3876971486610445e-01  4.3380217964731160e-01  3.2322233469228706e-01  2.9892194285456591e-01  7.1623389000908699e-01  2.9661719328036890e-01  3.2320298309469248e-01  6.3581593051312679e-01  9.0960393722617117e-01  5.5704367134058486e-01  6.5043632876808022e-01  5.1216434052301629e-01  8.2696241416199606e-02  -5.1681929504128130e-04  2.4478019118334041e-01  1.0184271380720732e-01  1.1136124627554590e-01  4.0523247990244105e-01  2.0715171745682767e-01  2.6038158280647156e-01  4.2949621859781101e-01  3.4565430892367610e-01  6.9847507137122999e-01  5.3312226371911386e-01  4.9535961825347352e-01  7.5837427848439176e-01  5.1546807917148885e-01  4.8978036595969393e-01  8.2689945428016931e-01  5.2651038061260258e-01  5.1949521222261152e-01  5.8026091308616257e-01  5.6787640510360393e-01  1.5773107211609189e-01  1.7061005053703460e-01  1.3893345299634602e-01  1.5771579321952764e-01  6.9534931579402312e-02  7.0405613068022552e-02  5.8022693871829212e-01  1.3742238156627648e-01  1.7060873576173505e-01  5.6783863933759426e-01  8.2689968550195914e-01  2.7618948408895438e-01  3.1930612073553849e-01  2.4744185444204186e-01  2.6317672776697752e-02  -7.0316734232820960e-04  1.1448068006856402e-01  2.9612795387787844e-02  3.0247697258543007e-02  1.1495603975239471e-01  1.0658084037451553e-01  2.0721288438428223e-01  1.7429625701085941e-01  1.7448630733647849e-01  1.4945632242269649e-01  9.8826570438846115e-02  1.0373591181776461e-01  8.4530525252486638e-02  8.3388558810194385e-02  3.1544308119586612e-02  2.7606920909691669e-02  2.4735128155315127e-02  8.4658643081868726e-02  2.4144530980683636e-02  2.6071112385773323e-02  5.1946653527788367e-01  8.3433337743617747e-02  1.4945378577423113e-01  5.2648600877505303e-01  7.5837144888988139e-01  3.1742033315003144e-02  3.7159768222061448e-02  4.2399076621161345e-02  8.6804991658406359e-03  6.6816226340243553e-04  1.0658102578097194e-02  9.6695356576439011e-03  1.9850551676767768e-02  1.8529570646878799e-02  2.0296553494821450e-02  1.0477424983818550e-02  1.3055502859204787e-02  1.0672672775246287e-02  7.7515602061048461e-03  7.0857089994414459e-03  1.0378096407641312e-01  1.2767071856166852e-02  1.9949816445872657e-02  4.8975951361384440e-01  9.8894032884157879e-02  2.0720522447770506e-01  6.9847451352314138e-01  5.1546628906172975e-01  5.1084678672549235e-03  5.2917221875199575e-03  8.2495210338649084e-03  1.5983455385391626e-03  3.0454264062871428e-03  2.2476808589649575e-03  4.9278991596427801e-01  6.5043632606438617e-01  5.3311860138742206e-01  2.0431282206779214e-02  2.2352781258876530e-03  5.2019723468695296e-03  1.7446284078873078e-01  1.8676375925948813e-02  3.7234267297632198e-02  3.1929428628783579e-01  1.7429153143789780e-01  5.1195986088519141e-01  5.5704366830729868e-01  8.0829076180192506e-03  1.5961659693831977e-03  2.4129083577864321e-01  4.2949338327863029e-01  2.7617964219113095e-01  4.2506302357474685e-02  5.0242434233693884e-03  1.0694108260656993e-02  1.1495892485091884e-01  3.1797829107258695e-02  3.4533419291043882e-01  4.0523219934472410e-01  9.7714735953351711e-03  6.5390575148831676e-04  1.0658543563190384e-01  2.6038197862630974e-01  1.1448148927593015e-01  8.7017673220055516e-03  3.0259515075808759e-02  2.0714199361421168e-01  2.4477872891469873e-01  2.9181857753838091e-02  -7.0480917409461571e-04  1.1135624557312855e-01  2.6323044713820767e-02  1.0183771988514490e-01  8.2696480142442311e-02  -5.1705312621273597e-04  </DataArray> 
</PointData> 
</Piece>
</UnstructuredGrid>
</VTKFile>