<?xml version="1.0"?>
<VTKFile type="UnstructuredGrid"  version="0.1"  >
<UnstructuredGrid>
<Piece  NumberOfPoints="65" NumberOfCells="96">
<Points>
<DataArray  type="Float64"  NumberOfComponents="3"  format="ascii">-0.3898964463313792 0.3898964463313792 0  -0.2704576822687573 0.3606102430250097 0  -0.3606102430250097 0.2704576822687573 0  -0.1667105083519863 0.3334210167039726 0  -0.2403469802481613 0.2403469802481613 0  -0.3334210167039726 0.1667105083519863 0  -0.07835576306630267 0.3134230522652107 0  -0.1402714789235381 0.2104072183853072 0  -0.2104072183853072 0.1402714789235381 0  -0.3134230522652107 0.07835576306630267 0  0.3898964463313792 0.3898964463313792 0  0.3059596688124455 3.396834689222644e-17 0  0.3134230522652107 0.07835576306630271 0  0.3334210167039726 0.1667105083519863 0  0.3606102430250097 0.2704576822687573 0  0.2704576822687573 0.3606102430250097 0  0.1667105083519863 0.3334210167039726 0  0.07835576306630267 0.3134230522652107 0  0 0.3059596688124455 0  -0.06229520011368847 0.1868856003410654 0  -0.1118151325403052 0.1118151325403052 0  -0.1868856003410654 0.06229520011368847 0  -0.3059596688124455 0 0  0.2403469802481613 0.2403469802481613 0  0.1777218281950974 0 0  0.1868856003410654 0.06229520011368847 0  0.2104072183853072 0.1402714789235381 0  0.1402714789235381 0.2104072183853072 0  0.06229520011368847 0.1868856003410654 0  0 0.1777218281950974 0  -0.04367288069166247 0.08734576138332495 0  -0.08734576138332495 0.04367288069166247 0  -0.1777218281950974 0 0  -0.3134230522652107 -0.07835576306630268 0  0.1118151325403052 0.1118151325403052 0  0.0771025232761236 0 0  0.08734576138332495 0.04367288069166247 0  0.04367288069166247 0.08734576138332495 0  0 0.0771025232761236 0  -0.02561911544503442 0.02561911544503442 0  -0.0771025232761236 0 0  -0.1868856003410654 -0.06229520011368848 0  -0.3334210167039726 -0.1667105083519863 0  0.02561911544503442 0.02561911544503442 0  0.01670178246263998 0 0  0 0.01670178246263998 0  -0.3606102430250097 -0.2704576822687573 0  -0.01670178246263998 0 0  -0.08734576138332495 -0.04367288069166247 0  -0.2104072183853072 -0.1402714789235381 0  -0.389896446331379 -0.3898964463313791 0  0 0 0  -0.2403469802481613 -0.2403469802481613 0  -0.02561911544503442 -0.02561911544503442 0  -0.1118151325403052 -0.1118151325403052 0  -0.2704576822687573 -0.3606102430250097 0  0 -0.01670178246263998 0  -0.1402714789235381 -0.2104072183853072 0  -0.04367288069166247 -0.08734576138332495 0  -0.1667105083519862 -0.3334210167039725 0  0 -0.0771025232761236 0  -0.06229520011368847 -0.1868856003410654 0  -0.07835576306630261 -0.3134230522652106 0  0 -0.1777218281950974 0  0 -0.3059596688124454 0  </DataArray>
</Points>
<Cells>
<DataArray  type="UInt32"  Name="connectivity"  format="ascii">0 1 2  2 4 5  1 3 4  1 2 4  9 21 22  8 20 21  5 8 9  8 9 21  6 18 19  3 6 7  7 19 20  6 7 19  4 5 8  7 8 20  3 4 7  4 7 8  45 47 51  38 39 45  39 40 47  39 45 47  18 19 29  19 20 30  29 30 38  19 29 30  21 22 32  31 32 40  20 21 31  21 31 32  30 38 39  20 30 31  31 39 40  30 31 39  22 32 33  33 41 42  32 40 41  32 33 41  46 50 52  49 52 54  42 46 49  46 49 52  47 51 53  40 47 48  48 53 54  47 48 53  41 42 49  48 49 54  40 41 48  41 48 49  62 63 64  60 61 63  59 61 62  61 62 63  51 53 56  53 54 58  56 58 60  53 56 58  50 52 55  55 57 59  52 54 57  52 55 57  58 60 61  54 57 58  57 59 61  57 58 61  17 18 29  28 29 38  16 17 28  17 28 29  43 45 51  34 37 43  37 38 45  37 43 45  10 15 23  15 16 27  23 27 34  15 23 27  28 37 38  27 34 37  16 27 28  27 28 37  11 12 24  12 13 25  24 25 35  12 24 25  10 14 23  23 26 34  13 14 26  14 23 26  43 44 51  35 36 44  34 36 43  36 43 44  13 25 26  26 34 36  25 35 36  25 26 36  </DataArray>
<DataArray  type="UInt32"  Name="offsets"  format="ascii">3 6 9 12 15 18 21 24 27 30 33 36 39 42 45 48 51 54 57 60 63 66 69 72 75 78 81 84 87 90 93 96 99 102 105 108 111 114 117 120 123 126 129 132 135 138 141 144 147 150 153 156 159 162 165 168 171 174 177 180 183 186 189 192 195 198 201 204 207 210 213 216 219 222 225 228 231 234 237 240 243 246 249 252 255 258 261 264 267 270 273 276 279 282 285 288 </DataArray>
<DataArray  type="UInt8"  Name="types"  format="ascii">5 5 5 5 5 5 5 5 5 5 5 5 5 5 5 5 5 5 5 5 5 5 5 5 5 5 5 5 5 5 5 5 5 5 5 5 5 5 5 5 5 5 5 5 5 5 5 5 5 5 5 5 5 5 5 5 5 5 5 5 5 5 5 5 5 5 5 5 5 5 5 5 5 5 5 5 5 5 5 5 5 5 5 5 5 5 5 5 5 5 5 5 5 5 5 5 </DataArray>
</Cells>
<CellData  Scalars="f_12"> 
<DataArray  type="Float64"  Name="f_12"  format="ascii">2.8160347862432583e-01   2.6874885199702303e-01   2.6874885199702303e-01   2.8321116307998828e-01   2.1396908887441593e-01   2.4962245029997543e-01   2.4414482548369412e-01   2.2599102358222620e-01   2.1396908887441593e-01   2.4414482548369446e-01   2.4962245029997512e-01   2.2599102358222620e-01   2.6234961074917379e-01   2.8524487354257105e-01   2.6234961074917379e-01   2.8333190925229418e-01   2.0710678118654749e-01   1.7664344715122515e-01   1.7664344715122515e-01   2.7305805946990991e-01   1.8257909566196270e-01   2.3702599987436779e-01   1.7763860481084981e-01   2.2504150635040338e-01   1.8257909566196270e-01   1.7763860481084981e-01   2.3702599987436779e-01   2.2504150635040338e-01   2.3423460291044904e-01   2.7043417301070455e-01   2.3423460291044904e-01   2.8455873581440677e-01   1.7633651122702093e-01   1.5160757435885361e-01   1.7134526371565340e-01   1.4217479368702765e-01   1.3905089964201572e-01   1.2754004296843954e-01   1.4030571614581788e-01   1.3111807018438731e-01   1.4751479538470974e-01   1.6866195235089543e-01   1.1941081114452215e-01   9.8010324142887809e-02   1.2875473253000155e-01   1.1612779055810467e-01   1.2090479460687090e-01   1.3802647599195911e-01   1.7633651122702093e-01   1.7134526371565348e-01   1.5160757435885377e-01   1.4217479368702771e-01   1.4751479538470974e-01   1.1941081114452209e-01   1.6866195235089540e-01   9.8010324142887809e-02   1.3905089964201628e-01   1.4030571614581730e-01   1.2754004296843974e-01   1.3111807018438770e-01   1.2090479460687090e-01   1.1612779055810467e-01   1.2875473253000169e-01   1.3802647599195925e-01   1.7633651122702093e-01   1.7134526371565348e-01   1.5160757435885375e-01   1.4217479368702765e-01   1.4751479538470974e-01   1.1941081114452215e-01   1.6866195235089540e-01   9.8010324142887809e-02   1.3905089964201606e-01   1.4030571614581788e-01   1.2754004296843935e-01   1.3111807018438734e-01   1.2090479460687090e-01   1.1612779055810467e-01   1.2875473253000169e-01   1.3802647599195925e-01   1.7633651122702093e-01   1.5160757435885377e-01   1.7134526371565348e-01   1.4217479368702765e-01   1.3905089964201606e-01   1.2754004296843954e-01   1.4030571614581788e-01   1.3111807018438734e-01   1.4751479538470974e-01   1.6866195235089540e-01   1.1941081114452209e-01   9.8010324142887809e-02   1.2875473253000150e-01   1.1612779055810453e-01   1.2090479460687090e-01   1.3802647599195925e-01   </DataArray> 
</CellData> 
</Piece>
</UnstructuredGrid>
</VTKFile>