<?xml version="1.0"?>
<VTKFile type="UnstructuredGrid"  version="0.1"  >
<UnstructuredGrid>
<Piece  NumberOfPoints="65" NumberOfCells="96">
<Points>
<DataArray  type="Float64"  NumberOfComponents="3"  format="ascii">-0.6034294401033936 0.6034294401033937 0  -0.4357565270979424 0.5810087027972566 0  -0.5810087027972566 0.4357565270979425 0  -0.2790982891699274 0.5581965783398549 0  -0.4099898727970779 0.409989872797078 0  -0.5581965783398549 0.2790982891699275 0  -0.1350496299588063 0.5401985198352254 0  -0.2541416246993262 0.3812124370489895 0  -0.3812124370489894 0.2541416246993263 0  -0.5401985198352254 0.1350496299588064 0  0.6034294401033937 0.6034294401033936 0  0.5332121396478249 -6.101214563956075e-18 0  0.5401985198352254 0.1350496299588063 0  0.5581965783398549 0.2790982891699274 0  0.5810087027972566 0.4357565270979424 0  0.4357565270979425 0.5810087027972566 0  0.2790982891699275 0.5581965783398549 0  0.1350496299588064 0.5401985198352254 0  6.529965400862203e-17 0.5332121396478249 0  -0.1187364032820351 0.3562092098461054 0  -0.2227253679768643 0.2227253679768644 0  -0.3562092098461054 0.1187364032820352 0  -0.5332121396478249 6.529965400862203e-17 0  0.409989872797078 0.4099898727970779 0  0.3458396720045933 -4.235314473385958e-17 0  0.3562092098461054 0.1187364032820351 0  0.3812124370489895 0.2541416246993262 0  0.2541416246993263 0.3812124370489894 0  0.1187364032820352 0.3562092098461054 0  4.235314473385958e-17 0.3458396720045933 0  -0.09549722635189338 0.1909944527037868 0  -0.1909944527037868 0.09549722635189344 0  -0.3458396720045933 4.235314473385958e-17 0  -0.5401985198352254 -0.1350496299588063 0  0.2227253679768644 0.2227253679768643 0  0.1760763556015786 -2.156313452930044e-17 0  0.1909944527037868 0.09549722635189338 0  0.09549722635189344 0.1909944527037868 0  2.156313452930044e-17 0.1760763556015786 0  -0.0663511076611463 0.06635110766114632 0  -0.1760763556015786 2.156313452930044e-17 0  -0.3562092098461054 -0.1187364032820351 0  -0.5581965783398549 -0.2790982891699274 0  0.06635110766114632 0.0663511076611463 0  0.04809765673080336 -5.890264136186648e-18 0  5.890264136186648e-18 0.04809765673080336 0  -0.5810087027972566 -0.4357565270979424 0  -0.04809765673080336 5.890264136186648e-18 0  -0.1909944527037868 -0.09549722635189338 0  -0.3812124370489895 -0.2541416246993262 0  -0.6034294401033937 -0.6034294401033935 0  0 0 0  -0.409989872797078 -0.4099898727970779 0  -0.06635110766114632 -0.0663511076611463 0  -0.2227253679768644 -0.2227253679768643 0  -0.4357565270979425 -0.5810087027972566 0  -5.890264136186648e-18 -0.04809765673080336 0  -0.2541416246993263 -0.3812124370489894 0  -0.09549722635189344 -0.1909944527037868 0  -0.2790982891699275 -0.5581965783398548 0  -2.156313452930044e-17 -0.1760763556015786 0  -0.1187364032820352 -0.3562092098461054 0  -0.1350496299588063 -0.5401985198352252 0  -4.235314473385958e-17 -0.3458396720045933 0  -6.529965400862202e-17 -0.5332121396478248 0  </DataArray>
</Points>
<Cells>
<DataArray  type="UInt32"  Name="connectivity"  format="ascii">0 1 2  2 4 5  1 3 4  1 2 4  9 21 22  8 20 21  5 8 9  8 9 21  6 18 19  3 6 7  7 19 20  6 7 19  4 5 8  7 8 20  3 4 7  4 7 8  45 47 51  38 39 45  39 40 47  39 45 47  18 19 29  19 20 30  29 30 38  19 29 30  21 22 32  31 32 40  20 21 31  21 31 32  30 38 39  20 30 31  31 39 40  30 31 39  22 32 33  33 41 42  32 40 41  32 33 41  46 50 52  49 52 54  42 46 49  46 49 52  47 51 53  40 47 48  48 53 54  47 48 53  41 42 49  48 49 54  40 41 48  41 48 49  62 63 64  60 61 63  59 61 62  61 62 63  51 53 56  53 54 58  56 58 60  53 56 58  50 52 55  55 57 59  52 54 57  52 55 57  58 60 61  54 57 58  57 59 61  57 58 61  17 18 29  28 29 38  16 17 28  17 28 29  43 45 51  34 37 43  37 38 45  37 43 45  10 15 23  15 16 27  23 27 34  15 23 27  28 37 38  27 34 37  16 27 28  27 28 37  11 12 24  12 13 25  24 25 35  12 24 25  10 14 23  23 26 34  13 14 26  14 23 26  43 44 51  35 36 44  34 36 43  36 43 44  13 25 26  26 34 36  25 35 36  25 26 36  </DataArray>
<DataArray  type="UInt32"  Name="offsets"  format="ascii">3 6 9 12 15 18 21 24 27 30 33 36 39 42 45 48 51 54 57 60 63 66 69 72 75 78 81 84 87 90 93 96 99 102 105 108 111 114 117 120 123 126 129 132 135 138 141 144 147 150 153 156 159 162 165 168 171 174 177 180 183 186 189 192 195 198 201 204 207 210 213 216 219 222 225 228 231 234 237 240 243 246 249 252 255 258 261 264 267 270 273 276 279 282 285 288 </DataArray>
<DataArray  type="UInt8"  Name="types"  format="ascii">5 5 5 5 5 5 5 5 5 5 5 5 5 5 5 5 5 5 5 5 5 5 5 5 5 5 5 5 5 5 5 5 5 5 5 5 5 5 5 5 5 5 5 5 5 5 5 5 5 5 5 5 5 5 5 5 5 5 5 5 5 5 5 5 5 5 5 5 5 5 5 5 5 5 5 5 5 5 5 5 5 5 5 5 5 5 5 5 5 5 5 5 5 5 5 5 </DataArray>
</Cells>
<CellData  Scalars="f_4576"> 
<DataArray  type="Float64"  Name="f_4576"  format="ascii">2.4720360472417219e-01   2.5051752420095735e-01   2.5051752420095758e-01   2.5239326661768569e-01   2.1768721188683693e-01   2.6081087966117594e-01   2.4128039274547999e-01   2.3675769030820012e-01   2.1768721188683726e-01   2.4128039274547911e-01   2.6081087966117594e-01   2.3675769030820026e-01   2.5397395310666221e-01   2.6704335625408843e-01   2.5397395310666288e-01   2.6285020890596494e-01   2.0710678118654752e-01   2.0374879674228935e-01   2.0374879674228927e-01   2.8753673055243362e-01   2.0085065804088104e-01   2.5657825844690763e-01   1.9876073703425379e-01   2.2759786520273614e-01   2.0085065804088115e-01   1.9876073703425390e-01   2.5657825844690735e-01   2.2759786520273634e-01   2.5344473014238389e-01   2.8290928869554216e-01   2.5344473014238383e-01   2.7807552983533440e-01   1.9117294087512224e-01   1.7289660635241846e-01   1.8512060010851161e-01   1.6943372375660185e-01   1.6682195032608318e-01   1.5362426284025735e-01   1.6568427206511327e-01   1.5956265397439745e-01   1.6137810588240370e-01   1.7934180575954556e-01   1.4059937944890838e-01   1.2211742537997732e-01   1.5757516897446908e-01   1.4319959124079934e-01   1.4924274688508546e-01   1.5930411306482473e-01   1.9117294087512252e-01   1.8512060010851156e-01   1.7289660635241857e-01   1.6943372375660201e-01   1.6137810588240367e-01   1.4059937944890835e-01   1.7934180575954556e-01   1.2211742537997727e-01   1.6682195032608443e-01   1.6568427206511252e-01   1.5362426284025738e-01   1.5956265397439806e-01   1.4924274688508543e-01   1.4319959124079937e-01   1.5757516897446988e-01   1.5930411306482456e-01   1.9117294087512238e-01   1.8512060010851156e-01   1.7289660635241874e-01   1.6943372375660190e-01   1.6137810588240367e-01   1.4059937944890835e-01   1.7934180575954550e-01   1.2211742537997726e-01   1.6682195032608368e-01   1.6568427206511283e-01   1.5362426284025735e-01   1.5956265397439773e-01   1.4924274688508546e-01   1.4319959124079937e-01   1.5757516897446971e-01   1.5930411306482437e-01   1.9117294087512224e-01   1.7289660635241902e-01   1.8512060010851156e-01   1.6943372375660185e-01   1.6682195032608305e-01   1.5362426284025771e-01   1.6568427206511327e-01   1.5956265397439745e-01   1.6137810588240370e-01   1.7934180575954559e-01   1.4059937944890835e-01   1.2211742537997732e-01   1.5757516897446941e-01   1.4319959124079934e-01   1.4924274688508540e-01   1.5930411306482453e-01   </DataArray> 
</CellData> 
</Piece>
</UnstructuredGrid>
</VTKFile>