<?xml version="1.0"?>
<VTKFile type="UnstructuredGrid"  version="0.1"  >
<UnstructuredGrid>
<Piece  NumberOfPoints="4852" NumberOfCells="9430">
<Points>
<DataArray  type="Float64"  NumberOfComponents="3"  format="ascii">-1 0 0  -1 -1 0  0 -1 0  0 0 0  1 0 0  1 1 0  -1 1 0  0 1 0  -0.5 1 0  -0.9999999999999999 0.4999999999999999 0  -1 -0.5 0  -0.5 -1 0  0 -0.1608775713298009 0  1 0.5 0  0.5 1 0  0.1967448868031411 0 0  -0.3409831038138906 -0.1759426599723919 0  -0.3371945806757187 0.2244786255559293 0  0.1738424117102192 0.346615826979877 0  -0.185278979818533 0.5552154732105626 0  -0.503854195193117 -0.5376586800715039 0  0.4905469847290278 0.257625686421785 0  -0.06470849817524948 0.2013678032103838 0  0 -0.5061325913258391 0  -0.25 -1 0  -0.5613489837282573 0.5774698559402319 0  0.6614952507357639 0.6340721579804084 0  -0.1774270989792941 -0.5379237386534337 0  -0.5392287523186794 0.02551301296180785 0  -1 0.25 0  -0.2065624691317526 0.02386849873742215 0  -0.6546974114264833 0.3094228788378898 0  -0.9999999999999999 -0.25 0  0.03893371977854961 0.5919993453375113 0  0.1951460404089956 0.1292287568002517 0  -0.1366220807834306 -0.2200489834660826 0  0.371005818712284 0.6147832727279815 0  1 0.25 0  0.5355652144809806 0 0  -0.75 -1 0  -1 -0.75 0  -0.6451284400428584 -0.323212195872672 0  0.25 1 0  -1 0.75 0  0.02757118475249542 0 0  -0.25 1 0  -0.75 1 0  1 0.75 0  0.75 1 0  0 -0.02898318711980711 0  0.05409600073358238 0.142610500864799 0  -0.07790135665715901 -0.0278574942159772 0  -0.7012696700058744 -0.1324393229664301 0  -0.3218830608056767 -0.3475434163567958 0  -0.3404314723386302 0.4375429155454404 0  -0.1001186610209432 0.7643728038145103 0  -0.3832422185646798 0.702702178598772 0  -0.05515997719236763 0.399262055613057 0  -0.07922547351945666 0.07211414558621573 0  0.3589501126940674 0.3700714122813263 0  -0.7158526707313266 -0.7299490736962155 0  0.411930651768009 0.09019533320320439 0  0.6899710076806056 0.1919657106663295 0  -0.747379638466954 -0.5270392656057854 0  -0.3877364927978867 -0.7107751548074224 0  0.721590693225493 0.4189852833778209 0  -0.7761607603143655 0.09702279364000818 0  0.1965976086743983 0.6988972554624013 0  -0.1990670850097146 0.2887668829860773 0  -0.7988886599725024 0.5773934042982218 0  -0.7166358055242549 0.7663137888911574 0  -0.05355158736465855 -0.3733870498534689 0  0.5846632103421224 0.8165985529081786 0  0.820312304091561 0.8058239449827254 0  -0.1070963033302795 -0.6976161208556938 0  -0.5148342667095571 0.1628308081669211 0  -0.2022478818786231 0.1258301943052565 0  -0.3596014354504051 0.07546822096801485 0  -0.3655130939448385 -0.05235453843375128 0  -0.4968392091374595 0.3951771184186229 0  0.375 1 0  1 0.125 0  -0.01204083674342962 0.07142313698558424 0  0.06190068090639209 0.3922611510583352 0  -0.171655472034152 -0.1225422118605815 0  -0.2429750902463485 0.7737752827651077 0  -0.625 0.9999999999999999 0  0.5334014541907313 0.4547484133496847 0  -0.5758945099358711 -0.8301167061938215 0  -0.2578524710186352 -0.7838040166280805 0  -0.3200894677308462 -0.5086610356839075 0  0.8339803745236939 0.5953642496350697 0  -0.5486163496051034 0.7908125153939638 0  0.125 1 0  -0.06757401020354828 -0.09353391172323265 0  -0.4948058365870875 -0.1433249753148985 0  -0.875 -1 0  0.02954348005084117 0.04174613271955618 0  1 0.3750000000000001 0  -0.875 1 0  0.05716613361763708 0.794134387923357 0  -0.1966483750604364 -0.3738171795261452 0  -0.07310054012458686 0.5713636238062978 0  0.2363523707891054 0.5183386073162686 0  -0.7924075506008768 0.2294262786957946 0  -0.4952577194936865 -0.3893145050955883 0  -0.0001787171807463615 0.2715487084056306 0  0.5098863850032973 0.6404840590034084 0  0.398783816006979 0.8075009053747159 0  -0.8062112684453667 0.4244143022863554 0  -0.0645661665320479 -0.220570620936312 0  -0.7097855372012517 -0.01412661103096604 0  0.09055109937456791 0.05267490590077029 0  -0.4783480114340598 -0.2514783930067502 0  0.7238337686245079 0.08301997111883663 0  -0.8085826522655228 -0.4111283217950117 0  0.3376199251938868 0.1540203773261923 0  -0.7945537491145295 -0.2508824645317955 0  0.236332657541233 0.2548606933086444 0  -1 -0.8749999999999999 0  -0.9999999999999999 0.8749999999999999 0  0.1843617769016644 0.04810310787970043 0  -0.2477619150392925 -0.2293413763708382 0  -1 0.375 0  -0.1714076287976744 -0.04180453862194976 0  -0.6488911537017175 0.4675280844414687 0  0 -0.07736776745332727 0  0.08024612384792285 0.2603643411395586 0  -0.3750000000000001 1 0  -0.2171740847528998 0.4250769089650119 0  -0.1204439313727459 0.1504290361763544 0  0.1330537931627971 0.554563767015087 0  0.1318769277663213 0.1942564460500218 0  -0.4750491438114657 0.2697019734238128 0  -0.04637593646593088 0.01392287208955322 0  0.8514149332212758 0.3704079497447282 0  -1 -0.125 0  0.285500063925758 0.8370365463970332 0  -0.1111179628763726 0.3134276222042515 0  -0.125 -1 0  0 -0.757503739517526 0  0.07821397079968176 0 0  -1 -0.375 0  -0.375 -1 0  -0.625 -1 0  0.7474787146812756 0 0  0.625 1 0  0 -0.2918843213980812 0  -1 0.625 0  -1 0.125 0  -1 -0.625 0  0.3284075310660084 0 0  0.004929205892015135 0 0  -0.125 1 0  0 -0.006571003003944568 0  1 0.625 0  1 0.8750000000000001 0  0.875 1 0  -0.5625779035793659 -0.6765049327037758 0  -0.004950986343900252 0.1606047665966186 0  0.3624251331243462 0.2636729875713916 0  0.6529934815524476 0.2944287059379595 0  -0.8546086760896233 -0.6465294227218351 0  -0.8634027196151159 0.7870148050230426 0  0.4304779174624734 0.5019077959272387 0  -0.3985462261017715 0.855908996270255 0  -0.7785994155949421 -0.874795783805976 0  -0.8703882138883007 -0.7842769151121538 0  0.1540382246042816 0.8423975177683317 0  -0.6587862003017019 0.1528095215988241 0  -0.5779020152634757 -0.06413724634115348 0  -0.8546647212635188 -0.06256613894940721 0  -0.2961470174248558 0.562460002470452 0  -0.4238420418790499 0.5701563449786321 0  -0.3763788482707313 0.3313237218869088 0  -0.6185094430055074 -0.2165011355361056 0  -0.2732347017193021 -0.09013192378754933 0  -0.6399661020644577 -0.5886591615908214 0  0.8597112197382006 0.2662045489555006 0  -0.03288199995708099 -0.03299720224264506 0  -0.05506726106385419 0.1148536703516015 0  -0.134058530252843 0.4324360354483699 0  -0.1201526472739703 0.03247505729995984 0  0.5377736804890568 0.06481944916597886 0  0.5792480103439894 0.3599479313923312 0  0.6913576701591598 0.7748877490694074 0  -0.7933292304617217 0.8811694348166751 0  -0.6432990375483451 -0.4293723695285856 0  -0.1179169057785231 -0.3971228993028532 0  0.8721918610376567 0.4888551041818559 0  0.07592087660317955 0.09419502822287117 0  -0.6645858276352467 0.8681945701785435 0  0.4546798425803842 0.3513210086058422 0  -0.02647287604488759 0.03592336584682324 0  -0.4093060132751454 -0.440539805333467 0  -0.3621103735131875 -0.269068044772336 0  0.3235006037762965 0.482385418639473 0  -0.1965041837676879 0.2018524208550266 0  0.7056679151293563 0.5312648375804341 0  0.2617827129259411 0.3567345853968905 0  -0.3767294050793734 -0.8519459044382561 0  0.1089988302403987 0.6824061727467635 0  -0.285332744601775 -0.6122403800291717 0  -0.4413966689519397 -0.620307799892537 0  0.2961264087432256 0.692718042460475 0  -0.8749771903342376 -0.1748154134531065 0  -0.1801539744652936 0.8551120878017379 0  0.4548131076011168 0.1639507030729998 0  0.2803425680581369 0.04687907796596578 0  -0.1425582309954464 0.6578096462613779 0  -0.01157951920137047 0.7089794334346515 0  -0.05344872788535782 0.8751875615294252 0  0.005123986274355108 0.4703697448877281 0  -0.3881625328740017 0.1537568393015978 0  0.5491878297786141 0.1336555758977009 0  -0.4759847589973989 0.6826161021523681 0  -0.8516290981917898 0.3328631478302462 0  -0.09379559718898557 -0.5364174175069228 0  -0.03172898074540056 -0.5521822601241225 0  -0.2140197174333121 -0.2879068425901463 0  0.868461456945166 0.1516724922417455 0  -0.1706359668328697 -0.6613000896635403 0  -0.8892033701839684 -0.5284783686247144 0  -0.2821275636473852 0.3387190653824583 0  -0.6763577518812892 0.5742669073497991 0  -0.8975360337406323 0.5314537592496857 0  -0.8984175931174592 0.6609325816564787 0  -0.6447160814929108 0.07248491796607109 0  -0.8592548861711186 0.02857446077903705 0  -0.8882649213335477 0.1679340634692006 0  -0.1305755506803173 0.229398457440657 0  0.1602189159628362 0.4468364663871776 0  -0.04362662541846415 -0.1258845905501139 0  -0.7534621886812245 0.6701381936619288 0  -0.6024933997719717 0.6981123088003491 0  -0.254926484689851 0.07875574610223982 0  -0.2495409106592034 0.6491184556839141 0  -0.0275194809267597 -0.006417737773109761 0  -0.4944102906619579 0.8771241562933401 0  -0.4771429457102874 0.4908446898428619 0  -0.2909778301827755 0.144357759647352 0  0.002232505767196679 0.02370312460539468 0  0.7795445565437686 0.6837913017567816 0  -0.4699109652404165 -0.8248477528141093 0  0.2720122718758924 0.1956143497148631 0  -0.1490192826508332 -0.8634162731957894 0  -0.0661102938634756 -0.8299463508775792 0  0.4433437461867462 0.7063917468486414 0  -0.1179511561648158 -0.2883412654828222 0  -0.2654007127502247 -0.02615228151747454 0  -0.8937428596058384 -0.8964747509617255 0  -0.5733040864765963 0.2374220184165987 0  -0.4766464253484861 0.08777022700673301 0  0.4911751389313964 0.8260441155661439 0  -0.02853589178118969 -0.2601429788408883 0  -0.3101306069373347 0.8755089844587535 0  -0.1434783827724904 0.08074764497504591 0  -0.4697587137533806 -0.03485775936819255 0  -0.3885001433300423 0.01222757246980619 0  -0.2922589019887449 0.02769685401627028 0  -0.3853431945712563 -0.1205455473659061 0  0.8881832837167742 0.6981173898142711 0  0.7926180424534125 0.910723021806931 0  0.576660289709201 0.2085300797655449 0  -0.560137358633734 -0.4696152903475552 0  0.598902629966886 0.7063082366366545 0  0.6782332769802865 0.888397641882881 0  -0.05142520491169366 0.3036912824766395 0  -0.9021617469329299 0.9046483420846041 0  -0.1278047680747755 -0.06723300546642527 0  -0.1693275149948594 -0.1827788524338337 0  -0.2527572
[...]
<PointData  Scalars="w"> 
<DataArray  type="Float64"  Name="w"  format="ascii">1.7374389775492823e-10  1.0383215416952355e-11  4.4535906410044292e-10  2.6520672632136729e-09  6.2431674931131121e-10  1.5700977836451468e-12  8.6832545790316735e-12  7.4555028565812475e-11  4.0298554479121401e-11  2.1021778459275977e-11  1.0765156913300027e-10  9.5525324222917001e-11  4.0455629537221151e-10  2.7574746114806611e-10  9.1302645420453927e-12  5.2968411888862187e-10  9.0765169104472676e-11  7.2096446694558065e-11  1.3062737778789261e-10  3.5318947843551511e-10  6.6737929072486128e-11  1.0438992078553472e-10  5.7473194554848498e-10  1.5565618760065728e-06  5.7432792947479977e-10  1.0759074613592788e-10  8.8499523911340030e-11  1.6901483300204098e-10  7.6296674603226790e-11  1.8774631134433776e-11  4.6851099122281896e-10  9.7241530271594372e-11  2.4222605113459131e-10  1.7981202598710996e-10  4.5693716112917851e-10  2.2557883278824691e-10  7.7531634172124720e-11  4.7635081088453536e-10  5.8863954249859558e-10  3.1221275971387787e-11  5.2664573430271229e-11  1.0775609868786497e-10  9.2180444863948904e-11  1.9687666684955988e-11  1.0591989562276783e-09  8.7583505606839340e-11  3.1937447248779269e-11  9.6143743937640308e-11  1.2419612496947685e-12  5.9347101750954830e-10  2.2229605755441596e-10  2.1509692035655987e-10  8.2348603079975757e-11  2.5143892713037449e-10  2.5861346703393629e-10  2.0345165526440393e-10  3.5461589578868774e-10  8.8963758778477737e-11  5.8344821453467937e-10  2.5099779304815491e-10  3.1244642773465944e-11  3.1543639068921174e-10  3.7828336265832133e-10  1.4313407005041209e-10  5.3838298368331427e-11  1.7769350699799072e-10  7.0254827977938070e-11  1.7758442429598669e-10  2.3260408363906259e-10  4.5944136839907402e-11  6.4623381225244653e-11  4.3159647803240127e-10  5.6463450241491088e-11  8.7908049842315861e-11  1.6993032205921563e-10  1.6952637316228875e-10  2.5707412848282659e-10  2.8904142163751826e-10  1.8226725769835322e-10  1.9414878412703862e-10  6.4830644868261925e-11  2.5238035703423693e-10  2.6582816577558935e-10  2.0004368043368115e-10  2.3433279256696636e-10  1.2434326994621692e-10  4.6398245221502868e-11  1.0945808858120151e-10  9.4154921519082404e-11  2.5059752943316027e-10  6.8993910029247382e-11  9.8784817992103032e-11  7.7996808911322285e-11  9.3871611848170851e-11  3.9103845533884820e-10  2.0873604288624076e-10  2.5550428672415065e-11  6.6041884317831803e-10  2.5609822672997921e-10  3.1607831465264353e-11  2.7487987158668635e-10  4.1135390332888760e-10  7.0956037629618229e-11  9.6877975869136499e-11  1.5600979580775363e-10  6.3414736305279649e-11  2.7360829247835262e-10  8.2741151731896168e-11  1.4583030098522765e-10  6.5829244600628118e-11  3.1387703903784745e-10  2.4569735790056160e-10  2.3406002872588941e-10  6.4087313026523770e-10  1.2109153724459864e-09  1.4852590696812108e-10  1.6627379870346212e-10  1.0208892687643018e-10  4.5887004887945033e-10  2.6010931569306414e-11  2.5679837518432294e-11  2.7953769748831455e-10  9.1347833438762533e-11  6.0897279177839157e-11  5.0356561781097805e-10  5.7149893579389762e-11  6.0307818254315481e-10  1.1870743888717424e-10  7.6667627709728396e-11  8.2452685826068057e-11  3.4295613610386004e-10  1.7169380193731211e-10  4.6537193996795769e-10  1.3458619501675137e-10  6.2731747988844829e-10  4.4081672390763358e-10  1.0879475153211821e-10  5.1889967349173152e-11  1.2994307437978860e-10  2.5599140677415390e-10  4.4993577541056913e-10  6.1048727436663865e-10  9.2807724787783776e-11  1.1858589724812777e-10  6.8740067011190131e-11  6.5727913655722572e-10  8.5816304046234052e-11  3.1340230734277123e-10  1.4693938037723320e-10  1.2361324566493307e-10  2.0085727993609928e-11  2.8416338662090804e-10  1.5968553537117302e-09  5.6711675445125321e-11  9.7637439937776410e-10  7.8935667828201884e-11  2.4605839159801370e-11  2.4358248996280826e-11  1.2119728108779959e-10  5.6269894189055579e-10  4.4541245922090439e-10  1.6112570697997869e-10  1.1482438388800497e-10  1.6658785942185454e-10  1.8661207900407894e-10  5.8461182516732602e-11  7.7801877258412500e-11  2.0441470101517865e-11  5.9803968788057651e-11  2.9308728783279790e-10  9.2121033649537782e-11  1.0553882003567243e-10  8.2586520979071656e-11  9.5801593854750571e-11  5.3212038881507602e-11  9.5679161046326004e-11  4.5508021694264517e-10  5.6908167715037380e-11  1.6411413341040524e-10  1.7241825165049904e-10  4.6614274404041986e-10  1.9740665049455173e-10  2.8392071048403590e-10  1.4346293004086858e-10  1.4464756934864435e-10  1.4938181093446912e-10  2.1058177177619670e-11  2.8623913878271753e-10  6.4923493527788357e-10  2.5511995085738791e-11  2.5289953801591191e-10  8.8940515610265033e-11  1.5747213378198720e-10  1.1249327768788117e-09  1.3659347947924135e-10  1.6353443401250983e-10  2.3297072382052926e-10  2.8713221143615671e-10  1.0576211726027174e-10  2.0432478975753616e-10  4.1705333144765868e-10  2.1787434606258607e-10  2.3821402385376516e-10  1.0932416542985424e-10  1.1218170269790554e-10  1.1238382683632758e-10  7.1033481138399103e-11  2.0839643560070315e-10  8.8913460086927297e-10  7.7597338324384703e-11  1.0790365596515833e-10  7.7668200280305566e-11  9.6652038681605042e-11  1.6207758099042902e-10  3.7758895286865535e-10  7.8958891838553135e-11  8.4722299979823051e-11  7.7568059343337060e-10  1.1132971105089614e-09  2.9195841299213705e-10  2.0011567670298328e-10  7.6094166934705969e-11  8.0790258489258120e-11  3.3503436816748331e-10  5.8517753844716050e-11  8.3153311337719087e-11  5.0176524437057522e-11  9.3091942780510225e-11  4.1146200990842697e-10  9.0202165759098477e-11  1.9741072969658109e-10  1.6562639194911015e-10  9.0378032985107231e-10  6.1780178933709977e-11  1.9763433034661905e-10  1.1534468764409524e-10  1.1163295721450397e-10  7.5306671648261001e-10  7.5033497642839711e-11  8.4956646476940579e-11  1.1799681435521544e-10  1.1300069464802304e-09  4.0942032671941649e-11  7.7609637778237675e-11  2.8014349384302897e-10  2.4976478230070699e-10  3.4408964160117583e-10  1.8131740560092626e-10  2.0540226351785433e-10  4.0353501439856479e-10  2.9523399253256282e-11  1.0518388630484073e-10  1.2766456878063046e-10  3.7540565851836046e-11  2.6650035081711410e-10  4.3843919448090014e-11  3.3455411664370701e-10  1.3582324612970159e-10  1.1021974082648393e-10  1.9162047297716531e-10  5.0118254539526100e-10  7.3035793963433424e-11  2.6973388776784281e-11  1.4483482447647862e-10  8.1778576652420749e-11  5.9291235726987888e-11  7.5922646809863222e-11  1.7901691415719490e-10  4.9388522468965534e-11  2.6429412730373678e-10  2.5438669757819386e-10  1.2909001006037654e-10  1.2927058139403785e-10  1.3750941250573604e-11  7.1679762023050793e-11  1.4737960672738340e-10  1.6767550973506146e-10  5.0136167794037813e-10  3.6793850957056766e-11  8.2045885261927594e-11  3.3496690010981769e-11  2.4024315730944260e-10  1.2540394259648337e-10  1.8433761328203720e-10  7.5404481676921032e-11  8.7522379925552662e-11  1.2019149523473681e-10  2.0190901901639980e-10  2.2394824526294668e-10  2.6107274992485391e-10  4.3843313698237904e-10  2.1353456694535052e-10  2.1058583333538347e-10  1.4412600885677111e-10  7.9549111444952636e-11  1.6992391254593445e-10  1.6459275570851330e-10  6.3078263785180651e-10  1.2895900541633696e-10  6.2305894345837814e-11  4.0809830142764518e-10  1.9124534145752242e-10  2.0737346948245783e-10  1.2813243059818191e-10  3.2721946755648363e-11  4.4836326906189411e-11  9.8475436625715056e-11  6.8140063631735500e-10  2.9495742233306237e-10  1.8046292866629515e-10  1.3568385964610137e-10  3.3405292643640792e-10  6.7103348583552012e-11  1.0921990238676937e-10  3.5331886022201710e-10  7.0621775695275523e-09  9.8690658839932664e-11  2.8343528738210190e-10  6.1798192471449382e-10  1.2397836459608359e-09  1.9932984211651684e-10  1.5405775351992895e-09  4.1942095143587525e-10  2.2613231203272406e-10  1.1642323066800437e-10  4.1726978265282879e-11  6.5645735474161577e-11  1.2640777316022432e-10  1.5636349973352588e-10  6.3532957621095148e-11  9.9098550175211383e-11  1.0690768972752640e-10  1.2712456073137316e-10  1.9345944417209259e-10  5.0131317326019503e-10  3.2011930530094183e-10  1.6580690659043581e-10  9.5552251110692336e-11  6.1630301052629558e-11  5.9149943004394678e-11  7.0627438064440601e-11  1.8137321703234437e-10  2.2663266494605736e-10  1.0542463694067548e-10  1.0488094343569606e-10  2.3777960909198957e-10  1.3625169878434197e-10  6.9442726684139699e-11  5.9284801286327173e-11  1.0546730752402352e-10  3.4221859968612554e-11  1.8577451314715180e-10  3.2842188509328380e-11  1.6088031497606333e-10  1.7937590020713915e-10  1.5144749298199677e-10  3.9716125880588112e-10  7.9352101516471871e-11  8.2853569197388341e-11  1.4432196475180476e-10  3.0670318729799460e-10  1.4292234043457884e-10  2.6346842981480528e-10  1.1056621399575382e-10  1.3505159041165296e-10  1.5634895786781836e-10  2.7617066111903819e-10  1.2792170054830756e-10  3.3689852101399387e-11  1.1714549889403157e-10  1.1200482969932571e-10  1.4711990606487122e-10  2.5152356122268318e-10  1.7031421897076265e-10  3.4881993601373760e-11  1.2894788573458614e-10  2.3091277847471218e-10  2.9244660900512761e-11  3.2945750465843316e-10  1.6413490615927650e-10  3.9389507564167609e-10  1.1202544154053942e-10  2.3636025395033148e-10  3.2420114757411980e-10  7.5404658937159994e-11  1.0547687811873322e-10  2.1726477255762005e-10  7.3577611029140374e-11  4.8292213037368474e-10  1.6027125076758260e-10  9.7803498027214737e-11  1.0820160959874899e-10  2.0873945051680789e-10  5.4305988857705063e-10  4.8071095539458821e-10  1.7893736172378363e-10  1.7132196861125709e-10  2.0692302584017766e-10  3.9884076377225907e-10  4.5474962544610081e-11  2.2461966580382608e-10  8.1589248640316446e-11  1.2449257491371593e-09  1.1781860170415283e-10  4.5922421373460359e-11  5.5470243245050047e-10  3.3135125343907762e-10  2.4644206831352224e-10  2.0964632491688661e-10  6.4013703087908561e-11  1.5291812228291915e-10  3.3329369637450170e-11  4.3676329057625385e-10  8.1911362637570036e-11  1.3689918034220925e-10  1.2690995100092769e-10  6.5805307461824606e-11  3.4693121999971635e-10  4.3099294686716289e-11  1.1733400592338565e-10  2.4383597047708861e-10  1.7858658602420758e-10  7.1551627033495268e-10  9.2327752258709345e-11  5.7625655397322049e-10  1.4726951223873692e-10  3.5724386279183158e-10  5.5605254841943801e-10  2.4397964760423587e-10  1.5474857820721257e-10  2.7359538694221624e-10  4.8227107814002120e-10  3.4216178272364515e-10  7.5340470315050860e-11  4.9450361000025122e-11  1.6402802997096846e-10  3.5888440887552505e-10  1.8525200849205689e-10  1.2638498659313126e-10  1.7015750246476513e-10  8.1167297616691516e-11  7.1142026942285773e-11  1.9885190022458375e-10  5.7828860279147914e-11  2.0631933578492298e-10  9.0436676399440807e-11  4.8131867226535831e-10  4.9236457810507188e-10  8.1793632722706770e-11  4.1786647221295450e-11  3.9554786109873969e-10  6.5123394985789797e-10  2.5828392191784699e-10  9.9501490527568885e-10  2.8852625260906835e-10  3.1727693580050436e-10  2.7556710797417813e-10  2.6789410435286267e-10  9.7312973499690116e-11  3.1360334109442155e-11  1.9347517884879030e-10  1.0504869713360758e-10  2.1386982712413845e-10  7.5426745593470017e-11  1.2300572070093327e-10  2.0746581499811884e-09  1.7726989925416582e-10  8.0971073393167913e-11  8.2160539958796071e-11  4.0115981637256673e-10  2.4288137686197375e-10  1.8959546708089888e-10  2.0780986437240406e-10  4.4595121465719094e-11  7.6040347418252971e-10  2.4146549358975548e-10  5.3408890357400230e-10  2.4775510937492501e-10  2.4101180197654046e-10  3.1080232420612025e-10  9.4518437415836796e-11  3.3151963661373072e-11  3.6268125325030261e-11  3.7190741685520980e-10  3.5960054651751104e-11  1.1630418638566275e-10  1.0227284435501507e-09  7.5219336174386557e-11  3.4920180411919427e-10  2.6225738352603623e-10  6.1914192496463424e-11  5.9846441572889963e-11  1.8095304596724837e-10  2.4548705985466274e-10  4.8303457284074537e-11  1.1312405749045866e-10  1.6022823897884917e-10  7.5583432324749056e-11  1.6943640308165817e-10  2.1451426277739327e-09  3.6975979815613595e-10  3.2026631398245622e-10  1.0713093852083281e-10  1.0744745048026216e-10  1.8688818660356866e-10  8.0235882642403301e-11  1.3408043673672956e-10  4.9616923181452752e-10  8.6674070321287891e-11  2.4033629647504822e-10  2.1395087293597984e-10  1.3917565540994684e-10  5.1241904189393680e-11  7.7736764278052589e-11  5.5378635747956343e-11  5.3131897639238761e-10  1.0582443511502795e-10  2.2134374582937155e-11  5.7181421854317239e-10  3.0687342910892379e-11  6.2188041679169700e-10  1.1702240857726437e-11  1.2265961170044515e-10  1.7459043692108333e-10  2.4709455549344565e-10  1.0427654753582868e-10  2.8806109327866695e-11  8.4995291371170746e-11  2.7883827192021101e-11  2.0664006168685304e-10  3.7281946870380604e-10  2.7165385640629772e-10  3.3112158624682435e-10  1.3540542417792867e-10  9.3629690655261377e-11  6.3366542283462172e-11  3.6500067201456288e-10  5.0176302414330276e-10  1.0559135310154507e-10  1.0041395923328286e-10  1.4622854658331055e-10  7.6435279515142861e-11  4.5426124499103123e-11  5.4654744481013344e-11  3.2111746016805718e-11  8.8740431985336191e-12  1.7870647755950556e-11  9.8840911924791809e-11  2.2615974530678054e-12  1.1106566526643536e-11  1.8626982850487656e-10  3.4980876185425388e-09  2.2277845059058535e-10  4.2481158569509730e-11  2.1924519674371319e-10  9.2554827491952661e-11  1.1193217802919226e-10  4.3895466298689347e-11  1.7101351871604359e-11  8.7871301633372916e-11  7.4259335883761984e-10  7.9818889261515801e-11  1.8362428870689599e-10  3.2350074895954726e-10  4.8418104770344222e-10  9.6589565875443112e-11  1.0171670713513585e-10  5.8239507884058692e-11  7.6893142671015294e-11  1.1182269471417478e-10  5.7282485551099643e-11  6.0988993530391243e-10  5.8944868494250443e-11  2.7887708987371489e-10  8.7857187573117250e-11  1.2782421960238719e-10  3.0974593537782889e-10  4.1535891727123371e-11  6.2911004407779780e-11  2.8400821493584190e-10  1.1929311655105948e-11  1.1296675749006616e-10  8.7985268876586346e-11  7.6752953035978775e-11  5.6343633362646719e-10  1.6159903765082994e-09  2.8792129421791852e-10  2.8959443078018953e-10  9.0523556579773721e-11  6.9004490650692712e-11  2.5299072426822169e-10  1.1713445597117485e-10  9.9104347161801266e-11  1.0418196818758039e-10  1.9742027887958397e-10  7.3710899734092309e-11  5.2733301372307481e-11  7.0655710370578966e-11  3.9779396839960001e-11  8.6481936513267639e-11  1.9171428702131071e-10  1.6201175262455884e-10  1.1167209215558078e-10  2.7200398210142519e-10  4.7114493866036680e-11  1.3576175593414431e-10  5.2530554095141446e-10  6.6535552157403851e-11  1.1742031214695230e-10  1.3392489342842276e-09  5.7989319474587709e-11  3.3665739372866453e-10  5.1412593153913520e-10  1.5807696301636946e-10  1.2813680178447280e-10  1.2567612432162394e-10  9.0087713101710917e-11  2.5066674784215645e-10  2.8646895737991437e-10  1.7721168456028657e-10  4.7105818782900330e-10  4.2394337220007058e-10  1.2090332070385894e-10  2.0947123075803591e-10  6.6422686096987717e-11  8.4571808581642370e-11  6.2560028932897867e-11  2.3829020603207464e-10  4.0071134866083716e-10  3.0817631468243992e-10  3.2341570242692634e-10  8.5670578991418419e-11  2.2918400267811300e-10  4.8178793997235704e-10  1.7117533655774811e-10  4.7661549026168523e-10  1.8236833255802326e-10  1.3756272747763225e-10  1.1103908764075536e-10  5.1129559937609909e-11  5.4177246060157305e-11  3.2888004354092505e-10  6.2561490205072817e-11  6.4610722949820504e-11  1.2899700505912459e-10  3.2028845820670325e-10  3.1794907911287109e-10  1.5713873739286263e-10  1.1768453329638644e-10  5.9676956899168932e-10  6.2971459894493806e-10  1.6197508069944452e-09  2.7034494195977378e-10  1.9979306679374017e-10  4.4557394305173420e-10  4.5299329228194231e-10  1.1836990741355918e-09  2.9732378578652465e-10  2.4544779625976207e-10  3.3021323567318127e-11  1.2843957658451246e-10  3.1770824471250673e-10  4.6441008343400200e-10  2.1310426584791293e-10  6.6088094158951921e-10  3.0306019863183122e-10  2.1538964273314776e-11  4.7837681401706669e-10  3.3575406850485356e-10  3.8677994036905989e-11  3.3381323198993560e-10  4.1410902068671568e-10  5.4327030177879537e-10  1.4542425885644902e-10  6.6962424980427833e-10  1.9472405116319459e-10  4.7218589674764609e-11  1.2706559592265383e-10  1.3212950741624118e-10  3.1715980782143803e-10  7.8530876382687822e-11  2.6297744767290526e-10  1.9438760558005174e-10  8.1676838215484475e-12  2.6617153850754341e-10  5.7874578681759000e-11  8.9896833316870554e-11  1.2357862034773453e-10  6.3594784750966782e-10  4.1419716181944827e-10  3.0659943099096310e-10  1.1678234356947148e-10  1.3162908682159101e-10  9.0878442110829844e-10  5.4638505673998776e-10  1.3403967581428180e-10  1.4163613023498078e-10  9.3127505561271352e-11  4.8590395099824639e-10  1.3755306027644070e-10  1.7347351662868778e-10  9.4601825364421658e-11  7.0472684810574395e-11  6.3318174010538087e-11  1.4853766323792125e-10  9.7569466255831888e-11  1.2900121106661650e-10  4.3082423507208906e-10  7.6338190035770864e-11  6.0247369414668793e-10  1.2662186977900699e-10  2.2393334185954972e-10  2.7894557692161086e-10  5.5518602844113855e-10  1.1588974113649520e-10  4.0921112617120372e-11  6.2714918035364599e-11  1.4175371520966449e-10  1.5845919063054075e-10  5.1333626084202281e-10  8.4043140859448648e-11  1.6069585380554702e-10  2.5036090074098005e-10  1.3681031990685765e-10  2.3466123992424120e-10  3.2926397938952820e-10  3.1172333930678555e-10  1.0405677291273518e-10  1.7406084621084862e-10  1.4825191693832551e-10  2.2750110509472172e-10  5.1192891762230847e-10  3.7378964619572104e-10  2.0169679198056782e-10  2.0397436988989760e-10  1.2433264493264356e-10  1.7223778498600974e-10  3.0092486444693643e-10  3.8108259299207311e-10  3.6201452328391556e-10  1.6585900398643447e-10  2.1983064886878564e-10  1.9360281034075430e-10  1.5319043388178968e-10  3.9819559041888796e-10  3.1633801514027017e-11  1.0482422458238330e-10  1.2617057352316261e-10  2.4142106745440993e-06  4.0525462162172324e-10  1.7566618912565981e-10  6.0920881429134134e-11  2.5712288602595280e-10  1.3738875530230695e-10  6.4152626965994066e-11  1.0503096074690634e-10  2.0280910567923446e-10  2.0518194423536131e-10  1.9343734247398781e-10  1.8831411932463794e-10  3.0764025617307687e-10  6.4835855637690760e-11  7.9970013166100850e-11  1.9031548898321805e-10  1.2201110097932060e-10  3.5430025814716121e-11  4.0030474163495864e-10  6.4470056974848758e-11  6.1687962896472455e-11  1.9273685628790977e-10  9.8593839200747162e-11  2.3653621871965139e-10  2.9167463464296740e-10  1.1466625716062648e-10  7.7246270542622659e-11  1.8639172523066029e-10  9.6025525178565132e-11  3.2714202543561847e-11  9.0621424547383760e-11  5.8181705735315286e-11  7.8848621298657673e-11  2.2752220278838000e-10  4.7179754171350553e-11  6.6236884366121816e-11  9.4419077145547339e-11  9.3346557882891152e-11  9.3605332584741259e-11  2.4870870807279755e-10  8.7796567295712557e-11  1.8324379897053901e-10  2.0146834028326640e-10  9.8724469082931420e-11  1.6109498537057369e-10  3.1501305897002046e-10  1.2363303970150434e-10  6.1816102152195717e-10  1.7009913823314716e-10  1.4866406966514658e-10  1.3879641378087744e-10  2.2686894500231659e-10  4.4129539215900983e-11  3.9904652964516941e-11  7.6693930269011701e-11  4.3341030305730860e-10  2.0045440788840031e-10  6.3195545309276333e-10  4.4354791280348651e-10  1.2082774445089010e-10  5.4848126749679929e-10  3.6418704486366252e-10  1.8781922324061138e-10  7.0483496713589716e-11  9.3350704155156606e-11  1.7428855040187751e-10  1.8775648020051470e-10  4.1588906959410433e-11  4.7871623880415003e-10  2.7655230309175732e-10  2.9673715230313715e-10  5.3517853689264241e-11  3.5009205768385345e-10  2.6511565197322443e-10  5.8782203070743618e-10  7.3149299809550515e-11  6.1428186817617475e-11  2.3902393795804199e-10  7.2429433130508775e-11  4.2469173626400262e-11  1.4700406990872997e-10  2.4301103448096068e-11  6