<?xml version="1.0"?>
<VTKFile type="UnstructuredGrid"  version="0.1"  >
<UnstructuredGrid>
<Piece  NumberOfPoints="4852" NumberOfCells="9430">
<Points>
<DataArray  type="Float64"  NumberOfComponents="3"  format="ascii">-0.9999999999999999 0 0  -1 -1 0  0 -1 0  0 0 0  1 0 0  1 1 0  -1 1 0  0 1 0  -0.5 1 0  -1 0.5 0  -1 -0.5 0  -0.5 -1 0  0 -0.1608775713298009 0  1 0.5 0  0.4999999999999999 0.9999999999999999 0  0.1967448868031411 0 0  -0.340971838110007 -0.1767624321623316 0  -0.3379376838381427 0.2252000261911383 0  0.1743084444038843 0.3475189009161064 0  -0.1860819959547038 0.5558989050682106 0  -0.5040792285202031 -0.5386071083031875 0  0.4908731846406725 0.2590605066352081 0  -0.06479528853844409 0.2018212756493323 0  0 -0.5061325913258391 0  -0.25 -1 0  -0.5623540030576178 0.5782476333024137 0  0.6620151766436848 0.6355829690702379 0  -0.1764074888145711 -0.5388496892672623 0  -0.539846637463106 0.02580317905643945 0  -1 0.25 0  -0.2068967618676671 0.02394591125923332 0  -0.6553736884269834 0.3103208977055842 0  -1 -0.25 0  0.03891653195373104 0.5927685950833578 0  0.1954741725408016 0.12974147650363 0  -0.1353093424793728 -0.2210929783122962 0  0.3717163302555299 0.6159063420050368 0  1 0.25 0  0.5355652144809806 0 0  -0.75 -0.9999999999999999 0  -1 -0.75 0  -0.6454189438809675 -0.3240502041389434 0  0.25 1 0  -1 0.75 0  0.02757118475249542 0 0  -0.25 1 0  -0.75 1 0  1 0.75 0  0.75 1 0  0 -0.02898318711980711 0  0.05437771211926942 0.142899145738953 0  -0.07793848169809751 -0.02792943325398234 0  -0.7015845783961716 -0.1326853703421862 0  -0.3210377904121076 -0.3488063568021599 0  -0.3414276094649569 0.4383885536422437 0  -0.1005903108480501 0.7648661020023465 0  -0.3841650163078511 0.7033165395724377 0  -0.05543068974698501 0.4000202923468285 0  -0.0792742750767261 0.07224633501795347 0  0.359553670496582 0.3713855296419318 0  -0.7165138258652134 -0.730641577586929 0  0.4121793108164642 0.0908214549210944 0  0.6900203561788412 0.1931816660373831 0  -0.7476847596698678 -0.5279173854364976 0  -0.3879618790156356 -0.7112091043292114 0  0.7216220121827001 0.4208474079369386 0  -0.7765161512553068 0.09744339359176336 0  0.1970778157064215 0.699626891994664 0  -0.1996834477650685 0.2894618135272581 0  -0.7994079888757344 0.5780507422415201 0  -0.7173331029938156 0.7668019849905854 0  -0.0511054416908315 -0.3739180997370121 0  0.5852044801479814 0.8174752022070719 0  0.8207237912336266 0.8066232818744269 0  -0.1064073806868342 -0.6979918704299942 0  -0.5155640479315928 0.1636138235364152 0  -0.2026665014537539 0.1262056643462819 0  -0.3602187347617288 0.07583621030908202 0  -0.3659734466167915 -0.05248576658743343 0  -0.4977702516615628 0.3961069292727896 0  0.375 1 0  1 0.125 0  -0.01187317615496824 0.07151004126987742 0  0.06207844545983913 0.3930718046093738 0  -0.1714881280973771 -0.123100975659773 0  -0.2437085312229474 0.7741921665402278 0  -0.625 1 0  0.5339165961437917 0.4565027918531144 0  -0.5764430570933291 -0.8304532472859897 0  -0.2579017376584707 -0.7839602218182141 0  -0.3194585785303387 -0.509641527964917 0  0.8341223316053951 0.5965401166723926 0  -0.5493655537536885 0.7912864811793634 0  0.125 1 0  -0.0674989956424618 -0.09369580069345572 0  -0.495170810356075 -0.1437499906031175 0  -0.875 -1 0  0.0297067650661492 0.04174716307725984 0  1 0.375 0  -0.875 1 0  0.05715032313558686 0.794608869781504 0  -0.1947913564938027 -0.3751595542115989 0  -0.07355457745983845 0.5720485479742032 0  0.2369494153189616 0.5193501783797769 0  -0.792815339781312 0.23006369645337 0  -0.4952338502652713 -0.3904063958335655 0  -0.0001113726896316595 0.2721521043178169 0  0.5106221784472781 0.6418147691363776 0  0.3993325115863604 0.8081904797752588 0  -0.8066512510419849 0.4250985268958332 0  -0.06338960335112823 -0.2211232018688307 0  -0.7101697397030742 -0.01395374809024615 0  0.0907295299294622 0.05277489774287877 0  -0.4784301734334408 -0.2523806442897998 0  0.7238328739934279 0.08356121579985795 0  -0.8087730947911377 -0.4117728902317929 0  0.3379790430564306 0.1548735850978861 0  -0.7946869139546964 -0.2513332229965556 0  0.2367980734637043 0.2557307514502827 0  -1 -0.875 0  -1 0.875 0  0.1845425739447281 0.04835061634862221 0  -0.2470248694169957 -0.2305194936084544 0  -1 0.375 0  -0.1715832486839345 -0.04198078350540346 0  -0.6497368398284349 0.4683896294541213 0  0 -0.07736776745332727 0  0.08054936783161409 0.2609900357770478 0  -0.375 1 0  -0.2180092338292798 0.4258625214191097 0  -0.1206610967320682 0.1507844652368391 0  0.1334158528682738 0.5554521773458825 0  0.1322422620884142 0.1948058916767477 0  -0.4759065896514384 0.2705957243833875 0  -0.04637025757699852 0.01390960465853633 0  0.8512050870643898 0.3717070110679672 0  -1 -0.125 0  0.2858730326945269 0.8375364644027131 0  -0.1115083557092755 0.3141165988550298 0  -0.125 -1 0  0 -0.7575037395175259 0  0.07821397079968176 0 0  -1 -0.375 0  -0.375 -1 0  -0.625 -1 0  0.7474787146812755 0 0  0.625 0.9999999999999999 0  0 -0.2918843213980812 0  -1 0.625 0  -1 0.125 0  -1 -0.625 0  0.3284075310660084 0 0  0.004929205892015135 0 0  -0.125 1 0  0 -0.006571003003944568 0  1 0.625 0  1 0.875 0  0.875 1 0  -0.5631989871937965 -0.6772077223852724 0  -0.004790477755624781 0.1609283210442427 0  0.3628712609389593 0.2648466498977575 0  0.653097947506617 0.2961056949406063 0  -0.8549416430411448 -0.6471916145299292 0  -0.8638009777912339 0.7874596692356819 0  0.4311494242603307 0.5033369495565588 0  -0.3990612678623713 0.856131712006453 0  -0.7790719657720665 -0.8751109385676126 0  -0.8707198680294661 -0.7847713390532361 0  0.1542636803025271 0.842779053651405 0  -0.6593520598259691 0.153502443013121 0  -0.578441553095621 -0.06421403320919152 0  -0.8548973243639429 -0.06251270027716023 0  -0.2971913568885213 0.5631538036618068 0  -0.424869763195745 0.570880523057203 0  -0.3772839251410527 0.3322101422988229 0  -0.6189135572860029 -0.2170836519144563 0  -0.273440820074152 -0.09055314292573705 0  -0.6405252922159193 -0.5895511067138134 0  0.8595953063325287 0.2670884952658404 0  -0.03287320788920681 -0.03303761203410052 0  -0.05503937695777418 0.115072821467586 0  -0.134659304429467 0.4332014846945762 0  -0.1203011568161168 0.03253505808960378 0  0.5378698261906596 0.06530769266197517 0  0.57955806424142 0.3617947499630213 0  0.6919165985660859 0.7759158661072313 0  -0.7938693429363486 0.8813986962426633 0  -0.6436172867531785 -0.4303555914194416 0  -0.1157239537419217 -0.3982166283279868 0  0.8720421830105433 0.4900095789654815 0  0.07617506429365818 0.09437534703666525 0  -0.6651087237386794 0.86850661596602 0  0.4551632770678777 0.3528739122071016 0  -0.02638988458443044 0.03594563682095436 0  -0.4089441721610861 -0.4416419335768588 0  -0.3617623101340224 -0.2702034236836925 0  0.3241870522464105 0.48359608190379 0  -0.1969963235205572 0.2023970285083228 0  0.7059381178330799 0.5329922880269249 0  0.2623532678697257 0.3578142391208137 0  -0.3770019593262423 -0.852019428140764 0  0.1092111767425774 0.6830986421667252 0  -0.2849042054949595 -0.6129324552229481 0  -0.4416147280933176 -0.6210381844070647 0  0.296745660813664 0.6935709866703802 0  -0.8751590650613944 -0.1749863592500809 0  -0.1805956583635183 0.855283134288958 0  0.4551038509725132 0.1650497200468142 0  0.2805031534430358 0.04714229001217875 0  -0.1432451470536305 0.6584482925702037 0  -0.01183786451086013 0.7095906649670426 0  -0.05365467647160093 0.8753777790212741 0  0.005027630515426384 0.4711776330987913 0  -0.3888762938693535 0.1543922561785533 0  0.5493656193268708 0.134615666832925 0  -0.4769396655657242 0.6832898828667063 0  -0.8519490549187285 0.3334296371259829 0  -0.09238111476418059 -0.5372738506941165 0  -0.02844077526153465 -0.5528991453386957 0  -0.2125189075292806 -0.2892964712702228 0  0.8683333802928557 0.1522396046939604 0  -0.1702127347558197 -0.6618104941988175 0  -0.8894599999210978 -0.529005661237805 0  -0.2829487092242988 0.3395123942769981 0  -0.6771936797366116 0.5750495886862406 0  -0.8977499978546539 0.531883863348213 0  -0.8986855122322919 0.6613713039348846 0  -0.6452766906341634 0.07295621610614639 0  -0.8595140341522367 0.02878645392835626 0  -0.8885334514868657 0.1682121309237638 0  -0.1309123266971784 0.2299457201872091 0  0.1606847840387069 0.4477827494269747 0  -0.04343959768963405 -0.1260068377202794 0  -0.754129184450547 0.670739278008372 0  -0.6034077261522599 0.6987560960750077 0  -0.2554074476711269 0.07905176422975665 0  -0.2504827823849541 0.6497510380137503 0  -0.02750246200686927 -0.00645408119440718 0  -0.4949860921885099 0.8772941853247572 0  -0.4781391214548192 0.4916925251386976 0  -0.2915842873405862 0.1448755005901054 0  0.002355107222678651 0.02369345615751623 0  0.7799307488515759 0.684998917758491 0  -0.4703142947042157 -0.8250693471125685 0  0.2724290379228592 0.1964427117062177 0  -0.1490748230430599 -0.863520139512246 0  -0.06555050193970703 -0.8299710049409497 0  0.4440457181998278 0.7074386675966089 0  -0.1158079068754009 -0.2894807712864209 0  -0.2657729727727725 -0.02624575032565116 0  -0.8940220598080275 -0.8967061205527672 0  -0.5740315714130042 0.2383236342849777 0  -0.477313453786508 0.08827806417431386 0  0.4917268941759056 0.826793651592117 0  -0.0277511628546972 -0.2604319109281161 0  -0.3106386228745448 0.8756345628847034 0  -0.1437098343670306 0.08094759551426157 0  -0.4702790516262625 -0.0348270494182242 0  -0.3890779161648134 0.01237801297406493 0  -0.2927559067348423 0.02784504783190225 0  -0.3856448881004891 -0.1210021771823664 0  0.8883792537721278 0.6988514447523249 0  0.7930486608117894 0.9111735903420541 0  0.5768510591258901 0.2098932078987428 0  -0.5604121085839018 -0.4706607486037431 0  0.5995567029642612 0.7075682095649961 0  0.6786300801136519 0.888984665641811 0  -0.05159090616895549 0.3043512950612816 0  -0.9024082038812975 0.9048540642632348 0  -0.1278492861269435 -0.06745778831269605 0  -0.1686065503437596 -0.1836976851788069 0  -0.2526531490640933 -0.1446083027987584 0  0.03708054207817734 0.2026008064799197 0 
[...]
<PointData  Scalars="w"> 
<DataArray  type="Float64"  Name="w"  format="ascii">1.7178712204097048e-10  1.0278625306185911e-11  4.4429087136251647e-10  2.5920505863120333e-09  6.2521974422614549e-10  1.5581855275801986e-12  8.6483485129023167e-12  7.4307673798336638e-11  3.9956818255143054e-11  2.0944635235970312e-11  1.0580294835453236e-10  9.4996010115605462e-11  4.0239891102455550e-10  2.6979424195004342e-10  9.0146171050911829e-12  5.3431606571462720e-10  9.2135493451941806e-11  7.2138093769684891e-11  1.3095866815954935e-10  3.5118501347029099e-10  6.6946983566055470e-11  1.0482316549701698e-10  5.8222594692657467e-10  2.4708041485880443e-09  5.7315267352621898e-10  1.0673467375118450e-10  8.7008116075050889e-11  1.6732497145363919e-10  7.6678247314803735e-11  1.8740454333838339e-11  4.7296595781202484e-10  9.6880358530590576e-11  2.3993329726168862e-10  1.7883554036659694e-10  4.6214006422610915e-10  2.2806733969316871e-10  7.6699178579537776e-11  4.7140863896585566e-10  5.9268449261703217e-10  3.0784938846723843e-11  5.1318663670568337e-11  1.0749145786788081e-10  9.1067844908719797e-11  1.9235539753596266e-11  1.0647390774919553e-09  8.8341908373352860e-11  3.1687406737860543e-11  9.4092537825026420e-11  1.2623082270388026e-12  5.9392880533570111e-10  2.2430918960788665e-10  2.1653464373245540e-10  8.2022823700963319e-11  2.5506892738443450e-10  2.5724317590679081e-10  2.0021192602259285e-10  3.5164711452498170e-10  8.9267111081241142e-11  5.9156965268595548e-10  2.5103394658098126e-10  3.0946143486035111e-11  3.1826228194502160e-10  3.7715459323946154e-10  1.4247242400584936e-10  5.3345468375182620e-11  1.7611039161153662e-10  6.9783504418640810e-11  1.7646150775500647e-10  2.3339608815641283e-10  4.5200146949483263e-11  6.3931245050808529e-11  4.4018644169245824e-10  5.5315173483209886e-11  8.6566362644794730e-11  1.7088100106829750e-10  1.6918663522908634e-10  2.6000806406999409e-10  2.8922078994015096e-10  1.8319469595648902e-10  1.9239635952386760e-10  6.3853224968721624e-11  2.5226540072058638e-10  2.6865967832417473e-10  2.0041339618832817e-10  2.3573732482232226e-10  1.2271790811320946e-10  4.5461706272742069e-11  1.0813821427959324e-10  9.3703339672080350e-11  2.5002176159332482e-10  6.9171935802176265e-11  9.6734586828824850e-11  7.6887151644623450e-11  9.3008929863169114e-11  3.9093683746282802e-10  2.0998188050483033e-10  2.5167695373000408e-11  6.6450859406360917e-10  2.5452451430523463e-10  3.1123896469040990e-11  2.7233493250553082e-10  4.1671020244048210e-10  7.1521306754883870e-11  9.6647759195674526e-11  1.5501222513145286e-10  6.4255961341823917e-11  2.7619683215959806e-10  8.1595745028618847e-11  1.4403675058096953e-10  6.4858658215745736e-11  3.0974602648078168e-10  2.4381841222623134e-10  2.3575189806641514e-10  6.4811587641884839e-10  1.2177224364772858e-09  1.4831550026189311e-10  1.6807233614200776e-10  1.0213904020438784e-10  4.6140874567179128e-10  2.5623681240317575e-11  2.5394648071217253e-11  2.8054701560501651e-10  9.3143427300981681e-11  6.0233123276454186e-11  5.0850657519905986e-10  5.6437247954206896e-11  6.0144137958488446e-10  1.1955076494379766e-10  7.6398241300874051e-11  8.2322170162398229e-11  3.4718651705853553e-10  1.7052896414256629e-10  4.6938185093042419e-10  1.3340779201535904e-10  6.3362211987199118e-10  4.2967460141607266e-10  1.0774591032150651e-10  5.1204485251771444e-11  1.3104883417130586e-10  2.5580936829303283e-10  3.7118078566597613e-10  6.1578734726457956e-10  9.1097110108582848e-11  1.1831083028605462e-10  6.7601163551082430e-11  6.6048776770496832e-10  8.3459947210870637e-11  3.2895107593237159e-10  1.4485256255488704e-10  1.2245027407541671e-10  1.9739146666147433e-11  2.8581296357736969e-10  1.5931558189683036e-09  5.6872286416515212e-11  9.7370249033896185e-10  7.7154147577666915e-11  2.3806375864849536e-11  2.3758667352792328e-11  1.2101490478369706e-10  5.6978178648865106e-10  4.4869335521156947e-10  1.6102169406527301e-10  1.1308825496206521e-10  1.6412717383492664e-10  1.8428751859262535e-10  5.7629190021305300e-11  7.6673653796670069e-11  2.0127371463455507e-11  5.9103926305362809e-11  2.9038424526023854e-10  9.2580835695563875e-11  1.0558910524241889e-10  8.2087125685374855e-11  9.4902009985043282e-11  5.2912752671250043e-11  9.5354652146824619e-11  4.5958906369975969e-10  5.6241228420744988e-11  1.6415153246471790e-10  1.7248363903895759e-10  4.7352223405208365e-10  1.9758432853478953e-10  2.8733981324374844e-10  1.4461027014403907e-10  1.4396714767712864e-10  1.4651226852964900e-10  2.0921914466941559e-11  2.8454789117801146e-10  6.5053519434430397e-10  2.4961594483925761e-11  2.5513162679413162e-10  8.7933571934085267e-11  1.5675836134190054e-10  1.1350591478792631e-09  1.3839369427964337e-10  1.6603475467439243e-10  2.3200078367220894e-10  2.8973605422930923e-10  1.0405733574902253e-10  2.0472144671557765e-10  4.1467982783357781e-10  2.1692356794516522e-10  2.3600661658292364e-10  1.0973504855682729e-10  1.1107038522104581e-10  1.1253371645884600e-10  6.9885263475246581e-11  2.0921211292643562e-10  8.9764390409833295e-10  7.7598657568099517e-11  1.0746784757563094e-10  7.7544955388601434e-11  9.6750836754762132e-11  1.6239503440330529e-10  3.7823152377638183e-10  7.8527296240212050e-11  8.3108706307449786e-11  7.9089630430619938e-10  9.8765288765802860e-10  2.9653183313715805e-10  2.0089537840823944e-10  7.5208295365886292e-11  7.9686737738329765e-11  3.3615081542191292e-10  5.7650851947963570e-11  8.2102578082187045e-11  4.9654657894113558e-11  9.2657973950455733e-11  4.0953949436945866e-10  8.9513237612111234e-11  1.9902413649426400e-10  1.6529881123084812e-10  9.1053971579056248e-10  6.0960041853789714e-11  1.9542944639453472e-10  1.1636578754566444e-10  1.1108564098079668e-10  7.5607242995352168e-10  7.3824621487784150e-11  8.4119999976111479e-11  1.1823049298734616e-10  1.1328395136362195e-09  4.0076266720046411e-11  7.7200985812751735e-11  2.8219883433054241e-10  2.5052765359509195e-10  3.4691524967015140e-10  1.7876954052305666e-10  2.0515777269131004e-10  4.0678583351725255e-10  2.9085192916055418e-11  1.0441137572571140e-10  1.2772332269058219e-10  3.7000989210216156e-11  2.6815948758035897e-10  4.3191434541892936e-11  3.3938297156951578e-10  1.3681194315751112e-10  1.1072416459379329e-10  1.9315834884607609e-10  5.0524662662849430e-10  7.2152099152704373e-11  2.6505061058470411e-11  1.4462447046600411e-10  8.2324251516114262e-11  5.8206316223318375e-11  7.3983311872277173e-11  1.8045186355970261e-10  4.8449143067703209e-11  2.6678408830955871e-10  2.5690867852821724e-10  1.3188237699876361e-10  1.3014951386089128e-10  1.3471513459456635e-11  7.2041742483755296e-11  1.4835776757958930e-10  1.6614812989419286e-10  5.0596611189914362e-10  3.6854005789804908e-11  8.0957136777210501e-11  3.3150028352632575e-11  2.4308672925020715e-10  1.2445130472515577e-10  1.8286640052446004e-10  7.5581140446648694e-11  8.6007728596674342e-11  1.2036831715282113e-10  2.0145946441844022e-10  2.2444626767973948e-10  2.6153081592416618e-10  4.4348718739416443e-10  2.1461556783552238e-10  2.1167483162256664e-10  1.4254224060752824e-10  7.9277851620340304e-11  1.6939931392009842e-10  1.6400223223359123e-10  6.3058516658268423e-10  1.2833025511732912e-10  6.1509707903936713e-11  4.1131343753599648e-10  1.9211126280663837e-10  2.0430649446358355e-10  1.2860293853801024e-10  3.2122317021140385e-11  4.4530701071770214e-11  9.7313430797142544e-11  6.9479911557274162e-10  2.9522922604635854e-10  1.8045306726682812e-10  1.3529536144399803e-10  3.2925124962778704e-10  6.7496879390570258e-11  1.0953704207342947e-10  3.5077794257147134e-10  1.3308855164631139e-09  9.8129976230774344e-11  2.8485665001760422e-10  6.1981434043379817e-10  1.2513981839094460e-09  1.9892455786517600e-10  1.5553465223419169e-09  4.2356891937790446e-10  2.2627517278529280e-10  1.1571218985970826e-10  4.0921859063746758e-11  6.5080849498316518e-11  1.2777344016191258e-10  1.5602326911006728e-10  6.2781560240678110e-11  9.9378046489711130e-11  1.0798057937799244e-10  1.2836220413491516e-10  1.9426808340191367e-10  5.0697291008956990e-10  3.2280633306300957e-10  1.6567561989449132e-10  9.4940081650935397e-11  6.1349451369494574e-11  5.8758034166897752e-11  7.0450121800601140e-11  1.8103365991676365e-10  2.2333190398888663e-10  1.0447997767828485e-10  1.0348121026765123e-10  2.3663937822831639e-10  1.3461730786525023e-10  6.8120153539404074e-11  5.9199513277051438e-11  1.0573110741753223e-10  3.3810124368375740e-11  1.8342224905810199e-10  3.2323546962435115e-11  1.6163721040785278e-10  1.7928844863553493e-10  1.5409969995777473e-10  3.9461379327125342e-10  7.9450750741951335e-11  8.2199207186718910e-11  1.4336348665501643e-10  3.0490842354289736e-10  1.4417975522269073e-10  2.6339654306240661e-10  1.1009202731540601e-10  1.3433795181023805e-10  1.5338533440235107e-10  2.7670435495355055e-10  1.2843910985664010e-10  3.3336120548107833e-11  1.1591769273861677e-10  1.1191542278121563e-10  1.4695466423618527e-10  2.4712976181730073e-10  1.6791903813266617e-10  3.4434508081319572e-11  1.2896326854597021e-10  2.2670722530437365e-10  2.8663747781685058e-11  3.3135229726329937e-10  1.6581554039092154e-10  3.9618939069106631e-10  1.1216298397092492e-10  2.3406304242824547e-10  3.2544538024879250e-10  7.4798712259367169e-11  1.0406573942166986e-10  2.1496924169357606e-10  7.1658056279931985e-11  4.8174181328255731e-10  1.6171961890563085e-10  9.7136270205964540e-11  1.0758824494255633e-10  2.0587837057180563e-10  5.5052171283086439e-10  4.8467207597339986e-10  1.7810346711502986e-10  1.7051260398782731e-10  2.0623137093014707e-10  3.9789043684307393e-10  4.5293107314387934e-11  2.2389799419423440e-10  8.1533665729936695e-11  1.2481221671527366e-09  1.1851572997314460e-10  4.6229865115376261e-11  5.6300517120504291e-10  3.3463784262679185e-10  2.4894510204165799e-10  2.0775291789180958e-10  6.3245352495605671e-11  1.5189431737525210e-10  3.3072654015897522e-11  4.4203415852851372e-10  8.0794484556420762e-11  1.3566461356752290e-10  1.2703353660626626e-10  6.5855947932631599e-11  3.4667828447950776e-10  4.2550457392805994e-11  1.1577760044692699e-10  2.5174020446741504e-10  1.8137416491105560e-10  7.2472726949622062e-10  9.0892293083055481e-11  5.8204919773519202e-10  1.4415828324143160e-10  3.6172049999841804e-10  5.5945721419031307e-10  2.4665952542530071e-10  1.5480119517482658e-10  2.7515409277009402e-10  4.8701733352386565e-10  3.4015254814170323e-10  7.4433200426197709e-11  4.9263584712199548e-11  1.6590241355371344e-10  3.6197211275616677e-10  1.8337885282938950e-10  1.2528477384766581e-10  1.6752911656031472e-10  8.0137862874031180e-11  7.0287053611992454e-11  1.9883517300247721e-10  5.7377629506800528e-11  2.0562387140850025e-10  9.0564351476801439e-11  4.8789454180968219e-10  4.8774627147935444e-10  8.1254443107143596e-11  4.1514108977747556e-11  4.0236008206394135e-10  6.5725078829876223e-10  2.5976992980806160e-10  1.0041837330628525e-09  2.9161571984524509e-10  3.2075926802473136e-10  2.7707364623424111e-10  2.7026074821122620e-10  9.6769227220855897e-11  3.0935467317682151e-11  1.9430762266104657e-10  1.0501048084017801e-10  2.1287429526466103e-10  7.5646207556121494e-11  1.2162792237280803e-10  2.0761903151786742e-09  1.7820981627498311e-10  8.0069316160518567e-11  8.1685778022511433e-11  4.0348997085925918e-10  2.4510704016424482e-10  1.9059608271727118e-10  2.0896872548517334e-10  4.4201010738666595e-11  7.7151010405943672e-10  2.4295174122967023e-10  5.3337018825895605e-10  2.4821182737118465e-10  2.3928052023592764e-10  3.0755977102820270e-10  9.4142059410051075e-11  3.2837167649799349e-11  3.5774980581150805e-11  3.7507589125903073e-10  3.5311410675977843e-11  1.1468772490701042e-10  1.0221881077912750e-09  7.5054968033814485e-11  3.4147656229596492e-10  2.5976913044012965e-10  6.1546352000832038e-11  5.9440877270013064e-11  1.8242424831311231e-10  2.4789769457381299e-10  4.7316380450295220e-11  1.1370752758319857e-10  1.5860698444700752e-10  7.5753559437861843e-11  1.6810140156360258e-10  2.1438783468701418e-09  3.6381884937299114e-10  3.2161472199561766e-10  1.0753051199813910e-10  1.0584234159371136e-10  1.8344502342757728e-10  7.8103544724427291e-11  1.3386249481419416e-10  4.9613214837210451e-10  8.6605235795100837e-11  2.3792861239716149e-10  2.1168549399260187e-10  1.3954583019439280e-10  5.0481625391047202e-11  7.5787809348893408e-11  5.3634965673477675e-11  4.5237643940428660e-10  1.0501889905072379e-10  2.2067874805251720e-11  5.7511927494179797e-10  2.9981885336677766e-11  6.2485295723865390e-10  1.1575848089814112e-11  8.6403777886684268e-10  1.7718598533493079e-10  2.4568780008780551e-10  1.0290701758867093e-10  2.8480707021239338e-11  8.3858124304308540e-11  2.7595586401899296e-11  2.0273777098620852e-10  3.7402572634380788e-10  2.7133481644309038e-10  3.2724178990684360e-10  1.3371343765436884e-10  9.3382397850893463e-11  6.2475542289872753e-11  3.6493575313474080e-10  4.9809640443278776e-10  1.0467173801802014e-10  9.9429361942150703e-11  1.4500989833593899e-10  7.5532831207216598e-11  4.5380185510956185e-11  5.3496133836167607e-11  3.1432736744848500e-11  8.7957877953949041e-12  1.7598665828658084e-11  9.6642827272858203e-11  2.2028759418697456e-12  1.0800532573479315e-11  1.8507871118547486e-10  3.5179415187174003e-09  2.2105678985355494e-10  4.1573712736575716e-11  2.2095996412818426e-10  9.1845777191275316e-11  1.1230008227048038e-10  4.3491359970418638e-11  1.6812886012632444e-11  8.6278288600951735e-11  7.4588019204044129e-10  7.8898809627309760e-11  1.8345351200813908e-10  3.2218461262679029e-10  4.8684867554678181e-10  9.6633518312069029e-11  1.0105827715548853e-10  5.7645767225556988e-11  7.6945761580439310e-11  1.0996435740671640e-10  5.6492580247944332e-11  6.0615591392983902e-10  5.8986627405606791e-11  2.8234874184240754e-10  8.7729779844540444e-11  1.2728207996693233e-10  3.0657475285244060e-10  4.1163890473311654e-11  6.1891109106224330e-11  2.8002855463345310e-10  1.1732929403660212e-11  1.1283776683251807e-10  8.7514305280686254e-11  7.6092478254914823e-11  5.6801063833430200e-10  1.6218601387110105e-09  2.9915542814325471e-10  2.9084515430089296e-10  9.0299775894126556e-11  6.7848738610780276e-11  2.5258626409316646e-10  1.1623265250777815e-10  9.6726105728995843e-11  1.0363498138222582e-10  1.9571161837202549e-10  7.3225999769918969e-11  5.1871716340178731e-11  6.9603329894885216e-11  3.9261369328389860e-11  8.5538529591428794e-11  1.9426697322523988e-10  1.6406047582441907e-10  1.1309684422750311e-10  2.7048937513728507e-10  4.6463612386984964e-11  1.3488457014025025e-10  5.3059732736254972e-10  6.5680687811854754e-11  1.1804556916145970e-10  1.3468856099109279e-09  5.7731751958363231e-11  3.4334665237952490e-10  5.2239354536190110e-10  1.5960550349670056e-10  1.2741917807279069e-10  1.2633344248423375e-10  8.8759325979793953e-11  2.5025564729740819e-10  2.8913450985644693e-10  1.7708871480014406e-10  4.7749947075241752e-10  4.2668536168515852e-10  1.1990834360765053e-10  2.0852609413502220e-10  6.5350967149755862e-11  8.3834790345369524e-11  6.2069124819080741e-11  2.3907190568364254e-10  4.0142214300094428e-10  3.0933347548649183e-10  3.2896922135248672e-10  8.5460987086120400e-11  2.3174296916510941e-10  4.8758427755638804e-10  1.6990205054513212e-10  4.7413922804658606e-10  1.8199975426912576e-10  1.3740583131477820e-10  1.1044226796500097e-10  5.0792193156131206e-11  5.3103360972545757e-11  3.2657725577951128e-10  6.2088069633227573e-11  6.3917005894237567e-11  1.2824917696964374e-10  3.2272708350452892e-10  3.1787852178160395e-10  1.5846848294056281e-10  1.1749367957878570e-10  6.0481126999638127e-10  6.3921832871983956e-10  1.6314999414290196e-09  2.7164338206007519e-10  1.9963036394235651e-10  4.4704415864187295e-10  4.5901283458101892e-10  1.1950788042756343e-09  3.0172789460202214e-10  2.4077808516161622e-10  3.2566659411679016e-11  1.2711955445483525e-10  3.2098740382342674e-10  4.9409786986520213e-10  2.0962319754453633e-10  6.7345797668740486e-10  3.0026784286420410e-10  2.1209024679974574e-11  4.7749865514011774e-10  3.2720930313982115e-10  3.8601533524536831e-11  3.3677946562479738e-10  4.1427847634572351e-10  5.4917256006203535e-10  1.4640567669103477e-10  6.7601688316851272e-10  1.9548940321840987e-10  4.7092914182772740e-11  1.2722901787875018e-10  1.3224796268767757e-10  3.1077491072271283e-10  7.7268627804525258e-11  2.6101097965180151e-10  1.9398208114678441e-10  8.0022010953786879e-12  2.3579152533948282e-10  5.6987561041724266e-11  8.9336500471946781e-11  1.2224976880127832e-10  6.4380372368744339e-10  4.1405478363339666e-10  3.0993097432423737e-10  1.1667066967634833e-10  1.3092580273987271e-10  9.2118301287273446e-10  5.5190796406082724e-10  1.3362454611701429e-10  1.4292458419960594e-10  9.3990926893180263e-11  4.9380199798207336e-10  1.3676092449119168e-10  1.7189329105342820e-10  9.3669412108817633e-11  6.9555795388882783e-11  6.2647323196108003e-11  1.4595385363638343e-10  9.7173870389810412e-11  1.2765590232053267e-10  4.2115561750836470e-10  7.6059673715195601e-11  6.0029744724032871e-10  1.2471628602007278e-10  2.2597256593585681e-10  2.7767375525814747e-10  5.6037390019977798e-10  1.1581738850614021e-10  4.0403063681058907e-11  6.1940471085720354e-11  1.4243251616701753e-10  1.5846801817285927e-10  5.1097845827333574e-10  8.2593279511848204e-11  1.5960716634059566e-10  2.5073869447384776e-10  1.3807946376675182e-10  2.3386461638200781e-10  3.2869380202125662e-10  3.1551931463722796e-10  1.0335177777741049e-10  1.7286989090528662e-10  1.4866939887866295e-10  2.2867417682676090e-10  5.1293983363069563e-10  3.7548119905534009e-10  2.0185039272454345e-10  1.9945165958621802e-10  1.2398198073241459e-10  1.7017437043838597e-10  3.0293619186788790e-10  3.8148083600256607e-10  3.6249953052982192e-10  1.6720017602162444e-10  2.2141995831909990e-10  1.9302646593399656e-10  1.5058140782074510e-10  3.9625306626266014e-10  3.1244911250879199e-11  1.0466013654233487e-10  1.2651907682308816e-10  4.0824099219448354e-08  4.0987214844027782e-10  1.7278833593476497e-10  6.1022572350560757e-11  2.5962813216288018e-10  1.3625362409450222e-10  6.3968605279601486e-11  1.0419603038510910e-10  2.0356501886005043e-10  2.0490816131343738e-10  1.9391065091378338e-10  1.8744883921158561e-10  3.0787126339558734e-10  6.4180415099041765e-11  7.9677673844794413e-11  1.9010374427850216e-10  1.2394803712267277e-10  3.4896946715270254e-11  4.0064424244095575e-10  6.3877872786303715e-11  6.0537838277755731e-11  1.9395993193489660e-10  9.8281496263049787e-11  2.3398133821701728e-10  2.9157966282868511e-10  1.5405936793154032e-10  7.7439140198963989e-11  1.8591862762592171e-10  9.5393422510178342e-11  3.2133032146922892e-11  8.9100834969697923e-11  5.7564503987765916e-11  7.9318681532322853e-11  2.2843175766499327e-10  4.6571895589830793e-11  6.5218671456497597e-11  9.3750283495416397e-11  9.2410548718886864e-11  9.3574129390365768e-11  2.5137721476566042e-10  8.7851530840101849e-11  1.8298012464148722e-10  2.0578664863053434e-10  1.0141945237495572e-10  1.6130604338231123e-10  3.1540468508988791e-10  1.2276882709482618e-10  6.2181426756749751e-10  1.6911366520021021e-10  1.4889224794602346e-10  1.4097418944272799e-10  2.2283494201421530e-10  4.3537784057423065e-11  3.9238235291990459e-11  7.5986395392448469e-11  4.3602694967974664e-10  2.0353749672460275e-10  6.2908907389255536e-10  4.4968112106841054e-10  1.2045156677754685e-10  5.5392306883886436e-10  3.6249930109189932e-10  1.8730199536912150e-10  7.0261107819080418e-11  9.2492619570532578e-11  1.7625753463404335e-10  1.8953396629911357e-10  4.1017592368364087e-11  4.7822728309245287e-10  2.7561185807193387e-10  3.0020743976088029e-10  5.2495512857556036e-11  3.5296353443136551e-10  2.6886621221308791e-10  5.8725202777310836e-10  7.2544556031130421e-11  6.0901577821616792e-11  2.4117150583264113e-10  7.1602409227555310e-11  4.1991350391399615e-11  1.4454012549336385e-10  2.4041509090927713e-11  6