<?xml version="1.0"?>
<VTKFile type="UnstructuredGrid"  version="0.1"  >
<UnstructuredGrid>
<Piece  NumberOfPoints="4852" NumberOfCells="9430">
<Points>
<DataArray  type="Float64"  NumberOfComponents="3"  format="ascii">-1 0 0  -1 -1 0  0 -1 0  0 0 0  0.9999999999999999 0 0  1 1 0  -0.9999999999999999 0.9999999999999999 0  0 1 0  -0.5 1 0  -0.9999999999999999 0.4999999999999999 0  -1 -0.5 0  -0.5 -1 0  0 -0.1608775713298009 0  1 0.5 0  0.5 1 0  0.1967448868031411 0 0  -0.342547501535842 -0.1759491481419702 0  -0.3388138023526928 0.2260301665546595 0  0.1743331819612439 0.348356440969071 0  -0.1874230211718828 0.5567450959387364 0  -0.5065889060535922 -0.5394494721539652 0  0.4908103573684237 0.2599083748254184 0  -0.06524627275607789 0.2023742548715957 0  0 -0.5061325913258391 0  -0.25 -0.9999999999999999 0  -0.5639303831079787 0.5800653283228336 0  0.6630393548450469 0.6377205514550807 0  -0.1732303987275243 -0.5386740009320641 0  -0.5409308847483076 0.02636819071699895 0  -1 0.25 0  -0.2075776019772469 0.0241946428166389 0  -0.6558813568159028 0.312403080900156 0  -1 -0.25 0  0.03897128791787732 0.5936608280437984 0  0.1955732204378416 0.130296059917253 0  -0.1365486282824597 -0.2207465552264402 0  0.3722743049031475 0.6172185168011692 0  0.9999999999999999 0.25 0  0.5355652144809806 0 0  -0.75 -1 0  -1 -0.75 0  -0.647121582446041 -0.3244098683442779 0  0.25 1 0  -1 0.75 0  0.02757118475249542 0 0  -0.25 1 0  -0.7499999999999999 1 0  1 0.75 0  0.75 1 0  0 -0.02898318711980711 0  0.05420758300534497 0.1434696172397043 0  -0.07826928541453347 -0.02794243297901006 0  -0.7024133338592909 -0.1326740194104574 0  -0.3232481299600676 -0.3481634725055323 0  -0.3432879367331296 0.4395820016896089 0  -0.1013836952905606 0.7656263820227681 0  -0.3868073500627747 0.7037069772157705 0  -0.05594038010712314 0.4009714040165888 0  -0.07977551769224477 0.07245990895955084 0  0.3594700551735295 0.3719382625655827 0  -0.7185807977375861 -0.732456693058406 0  0.4121215505839027 0.0913775668338376 0  0.690095582570965 0.1936492739539438 0  -0.7483289971498142 -0.5301255805834932 0  -0.390292096263185 -0.7114162826603884 0  0.7217742578973755 0.4221560105492557 0  -0.7765942994796521 0.09820539248029719 0  0.1976176814811651 0.70029238123259 0  -0.2006823372707819 0.2901409491895946 0  -0.8004485556534002 0.5796711959091021 0  -0.7185884081703998 0.7680114846407228 0  -0.04638261242366468 -0.3755615457971456 0  0.5867898625537178 0.8181183262249232 0  0.8218499168644589 0.8085582323194267 0  -0.101322390410681 -0.6955824265813177 0  -0.5166943280104608 0.1646959266091201 0  -0.2033446660626773 0.1265670453071303 0  -0.3610239347083584 0.07636976099447229 0  -0.3669749669353858 -0.05222816198730097 0  -0.4990519128621732 0.3978094749805881 0  0.375 1 0  1 0.125 0  -0.01202863907856801 0.07179596232487964 0  0.06217158873953089 0.3937770736253765 0  -0.1724982723354897 -0.1226060643170214 0  -0.2451014287228474 0.7745942062625621 0  -0.6250000000000001 1 0  0.5341716640868331 0.4574711522161643 0  -0.5792391619115723 -0.8310247209705776 0  -0.2580363217392861 -0.7835189639743321 0  -0.3212301249474713 -0.509596590665113 0  0.834101183506512 0.5990656962145708 0  -0.551892549714481 0.7915127745932469 0  0.125 1 0  -0.06787413012099919 -0.0936222929460498 0  -0.4961585895369002 -0.1434196310099453 0  -0.875 -1 0  0.02964593733428215 0.04192856374800337 0  1 0.3749999999999999 0  -0.875 1 0  0.05741411483043615 0.7949242592105822 0  -0.1954067655388289 -0.3750949432511835 0  -0.07402700494725757 0.5728586287359875 0  0.2371579819738276 0.5202481159282255 0  -0.7932212207804409 0.2322680722193198 0  -0.4973296306361581 -0.3903721571548606 0  -0.0003319769454192729 0.2729142236938035 0  0.5115538869780273 0.6433684120934315 0  0.4005242684088501 0.8090183395812055 0  -0.8073443957918913 0.4270966579963555 0  -0.06324831970385944 -0.2218096185890449 0  -0.7108501230553823 -0.01363481340454253 0  0.09074213921680555 0.05300092004998667 0  -0.4799910366333451 -0.2517938802019817 0  0.7239665707420522 0.08395894269900193 0  -0.8091577876351196 -0.4129580597505435 0  0.3379188917729531 0.1553610883239974 0  -0.795327219872084 -0.2515550716079362 0  0.2367229922699587 0.2564700483147028 0  -1 -0.875 0  -1 0.875 0  0.1845962417081671 0.04869066191764358 0  -0.2488815173117845 -0.2295870506185371 0  -1 0.375 0  -0.1721859535361314 -0.04184320522529534 0  -0.6509359751150354 0.4705757802820409 0  0 -0.07736776745332727 0  0.0804811680505665 0.261664197837104 0  -0.375 1 0  -0.2191423732511632 0.4267575862944335 0  -0.1212545083540268 0.1511322483714596 0  0.13361968581713 0.5566348114801871 0  0.1322718006141887 0.1954151645384309 0  -0.4771444930363259 0.2721192882024279 0  -0.04666503495735925 0.01398667949735891 0  0.8507243715289485 0.3731204021152839 0  -1 -0.125 0  0.2870116227481017 0.837755004514805 0  -0.11221355446842 0.3148248022166329 0  -0.125 -1 0  0 -0.7575037395175259 0  0.07821397079968176 0 0  -1 -0.375 0  -0.375 -1 0  -0.625 -1 0  0.7474787146812756 0 0  0.625 1 0  0 -0.2918843213980812 0  -1 0.625 0  -1 0.125 0  -1 -0.625 0  0.3284075310660084 0 0  0.004929205892015135 0 0  -0.125 1 0  0 -0.006571003003944568 0  1 0.625 0  1 0.8750000000000001 0  0.875 1 0  -0.5660896818527832 -0.6784140737718152 0  -0.004986696866744225 0.1614450079566726 0  0.3627741927070451 0.2658789405255206 0  0.6532215261025203 0.2970424224657435 0  -0.8561115471880664 -0.6494724045319449 0  -0.8638489545660433 0.7878242178399993 0  0.4313927545876831 0.5044441332249516 0  -0.4014267068762443 0.8558160014449054 0  -0.7805384029137915 -0.8762057289423318 0  -0.8721083087316238 -0.7863398414981162 0  0.1548460728266844 0.8431149206469362 0  -0.660020521864609 0.1547759999477667 0  -0.5796921069261211 -0.06373292063775721 0  -0.8550913267514514 -0.06272376829081143 0  -0.2990616350232614 0.5640094917197354 0  -0.4271178127145771 0.5718714450572543 0  -0.3784713339873294 0.3332075131505018 0  -0.6206594708232294 -0.2169613583408264 0  -0.274578390431057 -0.09004885001925227 0  -0.6427626364593857 -0.591108999467012 0  0.8593899233030984 0.2678439622213578 0  -0.03297516257128352 -0.03310281373155674 0  -0.05543559949463975 0.1154966198635279 0  -0.1354499821107172 0.434059689306694 0  -0.1207910670003894 0.03271662665546849 0  0.5380387116408517 0.06566932789474701 0  0.5797834824992338 0.3625300861725231 0  0.6936063707723729 0.7773769018790823 0  -0.79422507786712 0.8813619576125313 0  -0.6451593068188465 -0.4315407483545865 0  -0.1122321394227903 -0.3999208287482311 0  0.8715529564761834 0.4918559631902389 0  0.07618543791969927 0.09469978472359834 0  -0.6665152772183462 0.8681167224345084 0  0.4551718301288332 0.3534675075074984 0  -0.02662391379753501 0.03609487004395495 0  -0.4112977335275351 -0.4415462092153603 0  -0.3637273775743807 -0.2693309639214099 0  0.3242432858783321 0.4843581633316202 0  -0.1978916247652101 0.2030285104889244 0  0.7063698764270114 0.5351377303116854 0  0.262242428808712 0.3585087135460494 0  -0.3791472314689847 -0.8517376178493614 0  0.1098638239851218 0.684093515965828 0  -0.2859643460247706 -0.6129816359217742 0  -0.4440056270018124 -0.6216971443682403 0  0.2971678078873497 0.6944278275514691 0  -0.8759438484101926 -0.1753745064522523 0  -0.1814465921594707 0.8547932644229624 0  0.4550775515355545 0.1655397471562479 0  0.2804879434675212 0.04740895030203553 0  -0.1443754295078614 0.6595955419680628 0  -0.01192624000679031 0.7106255297757287 0  -0.05396457595554014 0.8749236788703857 0  0.004757751147415628 0.4721708158344931 0  -0.3896393850335066 0.1552254587066713 0  0.549573402075628 0.1351007693720419 0  -0.4794701599727811 0.684017366970767 0  -0.8521412727969226 0.3355826989842779 0  -0.08678509147705842 -0.5369948884407701 0  -0.02621262819784137 -0.5527040668165616 0  -0.2143721069165918 -0.2886528565774477 0  0.8683170806349511 0.1526160508458747 0  -0.1663637759777973 -0.6607843444019814 0  -0.8904436981463786 -0.5309023378680886 0  -0.2842267354347685 0.3401853373367751 0  -0.6786199454335087 0.5768476952142055 0  -0.8981810178511607 0.5331220033263407 0  -0.8988561369668525 0.6620610776229229 0  -0.6462684033245183 0.07362098041364594 0  -0.8596622456864915 0.02900518417220797 0  -0.8888240595751317 0.1695099459399567 0  -0.1316291010584409 0.2305690657549542 0  0.160831434487186 0.4483304561762305 0  -0.04370157582141709 -0.1260957234687982 0  -0.7553015373418561 0.6726190616166596 0  -0.6052922129290043 0.7002419404268083 0  -0.2562197514169713 0.07941546714572995 0  -0.2521223160170503 0.6505580938485828 0  -0.0276162480350798 -0.006488470616544987 0  -0.4970066438843966 0.8768812581685604 0  -0.4795983559323527 0.4929163811262309 0  -0.2925638627547641 0.1455277328934292 0  0.002301438885002234 0.02383104397908581 0  0.7806604685907299 0.6875836182722017 0  -0.4731962239632375 -0.8251443580810165 0  0.2723126981138692 0.1969058730880086 0  -0.1467915635540842 -0.8624708711326656 0  -0.06413476862350845 -0.8286783669595172 0  0.4452785105634565 0.7084832707848292 0  -0.1156234874209117 -0.2902168943657374 0  -0.2666416135233312 -0.02596275374015699 0  -0.8949028300784483 -0.8975646271966509 0  -0.5750257950341509 0.2399617549044929 0  -0.478450182870682 0.08905126404539053 0  0.4931671692639168 0.8274118589858115 0  -0.02631155690562613 -0.2614655267087851 0  -0.3119033625826399 0.8750036470622183 0  -0.1442917690015886 0.08124174013047095 0  -0.4713400241751265 -0.03454574536495451 0  -0.3898913198725739 0.01266565996518232 0  -0.293547053996859 0.02815458064659968 0  -0.386866170264871 -0.1205168741627618 0  0.8884635082434642 0.7010220969687333 0  0.7943278451168038 0.9121096686360468 0  0.5769932713291537 0.2102691051410097 0  -0.5630856767554563 -0.4714448547775028 0  0.6009178114659248 0.7092083858225005 0  0.6801870781057447 0.8896114352322634 0  -0.05193255151879633 0.3050439410234915 0  -0.902496804292495 0.9049824743976266 0  -0.1284619365737099 -0.06732479493723946 0  -0.1700546805269473 -0.18305
[...]
<PointData  Scalars="w"> 
<DataArray  type="Float64"  Name="w"  format="ascii">1.7412842785682020e-10  1.0115253865720401e-11  4.4782367500631211e-10  2.6858218387818637e-09  6.2733983633667849e-10  1.5634074906980328e-12  8.6269758558096587e-12  7.6380599212356665e-11  4.0921688231692350e-11  2.1342270957330285e-11  9.7188913766018893e-11  9.3568185307873495e-11  4.1222567390863217e-10  2.6820128206317170e-10  8.9866396547102976e-12  5.4571308540104762e-10  9.0457998386315975e-11  7.1780353165406254e-11  1.2983627878664832e-10  3.5165426256047950e-10  6.8831911926298248e-11  1.0909751505379067e-10  5.8548904356021315e-10  8.1368217151535416e-09  5.9395796543115292e-10  1.0531838293113311e-10  8.5968364248471641e-11  1.8360626472777391e-10  7.6318504988347711e-11  1.9611875667368278e-11  4.7389030088909311e-10  9.7092456906953530e-11  2.2974054124573809e-10  1.7644872507129651e-10  4.5588119806808892e-10  2.3428366443688830e-10  7.5329573930247103e-11  4.6238253831735256e-10  5.9633309407965939e-10  3.0586275919238916e-11  4.8100390772063959e-11  1.0418670634620470e-10  8.9439463152573603e-11  1.9283020587517078e-11  1.0762754074437716e-09  9.3778124040707433e-11  3.2591366899149540e-11  8.9661525008397743e-11  1.3414051081040392e-12  6.0086127780413506e-10  2.2711419449607147e-10  2.1807684304680442e-10  7.9419862315096224e-11  2.5875750733156096e-10  2.6919027483025960e-10  1.8569335045565362e-10  3.3950200266229485e-10  8.9428809355778730e-11  5.9713568695113148e-10  2.5366149529788715e-10  2.8910438386576934e-11  3.2178415705556626e-10  3.7615034720147159e-10  1.4470860150760662e-10  5.3717326186649419e-11  1.7739649391430725e-10  7.0882193074922670e-11  1.6570593212681084e-10  2.3008826206143656e-10  4.4373202996950914e-11  5.9382403551023073e-11  4.3110123150827522e-10  5.4411552095556719e-11  8.2515074008459476e-11  1.8055140879693855e-10  1.6830427730528986e-10  2.6454764664804439e-10  2.9205736908663843e-10  1.8040451183925447e-10  1.8422881929691412e-10  6.3786589311730713e-11  2.5109486389736635e-10  2.7104280103321863e-10  2.0080307326979589e-10  2.3761956849587757e-10  1.1877369423602006e-10  4.5784178593439906e-11  1.1110806342383470e-10  8.9724488599613708e-11  2.6614396947376251e-10  7.2364719316844800e-11  9.5778040173060502e-11  7.4471946673188936e-11  9.3557146442232241e-11  4.0124018283121515e-10  2.0593745234106313e-10  2.4144303993885093e-11  6.6679562264473500e-10  2.5929389594105389e-10  3.0909391796500171e-11  2.6530356606823021e-10  4.3072672882468712e-10  7.3410239270144106e-11  9.8645069001575747e-11  1.5839333782428640e-10  6.6262716312528096e-11  2.7452774235187889e-10  8.2445297400672204e-11  1.3922993466971352e-10  6.2611923871730928e-11  3.1749398420670709e-10  2.3219028264802466e-10  2.3636424602231261e-10  6.2595289805351042e-10  1.2128933578186801e-09  1.5621744614296513e-10  1.6609745796862012e-10  1.0631331147110844e-10  4.5872674835273875e-10  2.3955258058097841e-11  2.5369427408729506e-11  2.8028150439404049e-10  9.3919224685267014e-11  5.9259275012049810e-11  5.0868379061621975e-10  5.6348060861593972e-11  6.1514187263695415e-10  1.2152638566445187e-10  7.7869359776191865e-11  8.3642579329471070e-11  3.4841323902827723e-10  1.7571126178948755e-10  4.6496968490858593e-10  1.3466439695119102e-10  6.3867064353291227e-10  4.2144374570319925e-10  1.0701099168315888e-10  5.1365584000913469e-11  1.3231907098273948e-10  2.6698395714559575e-10  4.0571198974313117e-10  6.2733308798639564e-10  8.4197550028424703e-11  1.1710008561241770e-10  6.4460684615741768e-11  6.6297533373513240e-10  7.9810408685424160e-11  6.1489636163197631e-10  1.4150216671196299e-10  1.2431932488540104e-10  1.8596392979331582e-11  2.8768539648325641e-10  1.6188628541179764e-09  6.0143963867512949e-11  9.9356483930112697e-10  7.4572856995442566e-11  2.2216090600329787e-11  2.2427148839838252e-11  1.1999568119288917e-10  5.6876381656525314e-10  4.6564259861246373e-10  1.6050741066918996e-10  1.0653240966988952e-10  1.6060356633388494e-10  1.8781744488238476e-10  5.7733359306250107e-11  7.2141579656701463e-11  1.9693930015216943e-11  5.9272992230252600e-11  2.7990920192948483e-10  9.3641391412968093e-11  1.0505358122458495e-10  8.6402885873650506e-11  9.4903849117075689e-11  5.3346130409852171e-11  9.4121824809332614e-11  4.5745273687694673e-10  5.3900357714042993e-11  1.6448860951446391e-10  1.7116844419829545e-10  4.8098919774157231e-10  1.9542834790643457e-10  2.9087333048717484e-10  1.4603816241632401e-10  1.4407607081488344e-10  1.4132480839447547e-10  2.0217385596593730e-11  2.6298357253193170e-10  6.4527602898207419e-10  2.4655011881257010e-11  2.5928533340263963e-10  8.4355255455177808e-11  1.5822222933161819e-10  1.1526884364496107e-09  1.4025413517280945e-10  1.6623559045577632e-10  2.2870984999860926e-10  2.9120122752832155e-10  1.0148738343597023e-10  2.0411228329380386e-10  4.0671477741332736e-10  2.0798327591589149e-10  2.3899849716981833e-10  1.1052572596272133e-10  1.0875637767777497e-10  1.1249476442780158e-10  6.7982526194369303e-11  2.0869003729813434e-10  8.9862693762481037e-10  7.9202068297207364e-11  1.0952831972978024e-10  7.7804093817891241e-11  9.6217094846869884e-11  1.6407250883362051e-10  3.8016699591187806e-10  7.5103945248928218e-11  7.9458731251735114e-11  7.0986609809841222e-10  7.7845871250893698e-10  3.0239457199966701e-10  2.0181832105924018e-10  8.8970462574971938e-11  7.6762263226790871e-11  3.3016124884946860e-10  5.6470849302410348e-11  7.7723642186442930e-11  4.8837639420042932e-11  9.0935944986246781e-11  4.0582353577453122e-10  9.0051439252969046e-11  2.0129301778949164e-10  1.6146521353819026e-10  9.3253265959058256e-10  5.9148137492235357e-11  1.9031824651765615e-10  1.1717787326669265e-10  1.1100981156550620e-10  7.7241216043222299e-10  6.9944095182658241e-11  8.1732833265089530e-11  1.1724484200256549e-10  1.1553366979375534e-09  3.8810295308663132e-11  7.6725683017745168e-11  2.8097214529997431e-10  2.6340041818529989e-10  3.4675321243539627e-10  1.7407923721378979e-10  2.0724524449721899e-10  4.0336803578545820e-10  2.7871313177186486e-11  1.0278614507088796e-10  1.2715364204517747e-10  3.6753058730840777e-11  2.8321245635718033e-10  4.4368768955924086e-11  3.3011784066418435e-10  1.3851910584374012e-10  1.1049206702097559e-10  1.9362823638562842e-10  4.9558334460643364e-10  6.9678195991148706e-11  2.5398240602735428e-11  1.4689226430053794e-10  8.1251753346505223e-11  5.6845715776167186e-11  7.2246660441683809e-11  1.8341535119492641e-10  4.8573047085141430e-11  2.6308938888782448e-10  2.5758624248692662e-10  1.3127505357873096e-10  1.2971695697608400e-10  1.2486686293577917e-11  7.2057904598753575e-11  1.4739213108177535e-10  1.6360297605194079e-10  5.1047837972346494e-10  3.8155981037742113e-11  8.2591298974151914e-11  3.2770341073225385e-11  2.4413978092458718e-10  1.2406767485204921e-10  1.7692638157395276e-10  7.5328209749872694e-11  8.2903181220751720e-11  1.2133619723753754e-10  2.0337111810932110e-10  2.2257924076885944e-10  2.6422271179026402e-10  4.4238816001095304e-10  2.1306134938528011e-10  2.1154655884762539e-10  1.4593851267789096e-10  8.1812202976089231e-11  1.7200210414340866e-10  1.7485543332217183e-10  6.4180187372405765e-10  1.2322383587844734e-10  6.3538512824288002e-11  4.1652342904138959e-10  1.9494709311350322e-10  1.9565105744277704e-10  1.0853375706044594e-10  3.0356222796655589e-11  4.4286514830392187e-11  9.5701384945146016e-11  7.1273791450623736e-10  2.9603372288577186e-10  1.8366008926298420e-10  1.3451773727988633e-10  3.4292427209868371e-10  6.8280415729498592e-11  1.1375612976356888e-10  3.5789248450542421e-10  1.1119743588946834e-09  9.7768700488849203e-11  2.8307587643135235e-10  6.2553959103185521e-10  1.2570753676248425e-09  1.9988705973004617e-10  1.5643269755955682e-09  4.2563248206105563e-10  2.2527751254927885e-10  1.2804506958648729e-10  4.0470750135690336e-11  6.5591008387281843e-11  1.2470273431458998e-10  1.5616949351420995e-10  6.3437021433924637e-11  1.0047078321091605e-10  1.0864005523128183e-10  1.3185648860854105e-10  1.9519385953574390e-10  5.1291216161794403e-10  3.2618414568908251e-10  1.6377549745234494e-10  9.7287657935364611e-11  6.1856211200847373e-11  6.0399929607636251e-11  6.7407891017624744e-11  1.8265660267741818e-10  2.0542916460003383e-10  1.0371013109806825e-10  1.0222086779819469e-10  2.3650388958973974e-10  1.3492760425202444e-10  6.6449098422508189e-11  6.1146140939790795e-11  1.0561626910760165e-10  3.3192912198488875e-11  1.7574395010915659e-10  3.1099644829592654e-11  1.6040466631940595e-10  1.7724974150689034e-10  1.5592519823549760e-10  3.7356177691891038e-10  8.0497797930735581e-11  8.4584356479426155e-11  1.3648973878478621e-10  2.8476946110901967e-10  1.4928019105058511e-10  2.6320462736500569e-10  1.1162055796932693e-10  1.3169334836771950e-10  1.4549608178997333e-10  3.1795239896545675e-10  1.2894799285278266e-10  3.2245519613723550e-11  1.1134127881416030e-10  1.1068063814415264e-10  1.4953984458976196e-10  2.3755488263774569e-10  1.6288872093479014e-10  3.4726546677997984e-11  1.3105394733272943e-10  2.4624187108367839e-10  2.8680325814676332e-11  3.2861127704426677e-10  1.6754622230780467e-10  3.9548189219815194e-10  1.1561101523162489e-10  2.1900290915943561e-10  3.2583283958410272e-10  7.4489439600373852e-11  1.0504263606006032e-10  2.1466834375373041e-10  6.7958009779312328e-11  4.9599692120646564e-10  1.6319633930955785e-10  9.7382680795774788e-11  1.0587401641545465e-10  2.0551127434954848e-10  5.4227409822130060e-10  4.9132647429260663e-10  1.7121842779522154e-10  1.6477899805647279e-10  1.9787422461932402e-10  3.9943344270177330e-10  4.6256881598480043e-11  2.1631430322196656e-10  8.3755427900779841e-11  1.2529185375120710e-09  1.2060089861395567e-10  4.5998095483659472e-11  5.6928529915025055e-10  3.4407092450379443e-10  2.4747304732881255e-10  1.9692127671573438e-10  6.3058595336485347e-11  1.5226040061017091e-10  3.2079241314772753e-11  4.3708616499553784e-10  7.9583302516829069e-11  1.3967477615340110e-10  1.2765372391901674e-10  6.4894955319982534e-11  3.5008844802582635e-10  4.3494001062617229e-11  1.1390369515113320e-10  2.5004321507893485e-10  1.8031054093671711e-10  7.2416533046768531e-10  8.9722274729851875e-11  5.7612924600360924e-10  1.3811786677394033e-10  3.6043381860526112e-10  5.7017661870122669e-10  2.4606531088825793e-10  1.5792931425806318e-10  2.7656722132887401e-10  4.8958660917035341e-10  3.5623158302306563e-10  7.4954764021692573e-11  4.6052190511200491e-11  1.6671218696993921e-10  3.6463150234004874e-10  1.7701672293420347e-10  1.1959820308016953e-10  1.6737524509638299e-10  7.5878292754929201e-11  6.7523975963658386e-11  1.9697789178272067e-10  5.6444283636031644e-11  2.0641877998124364e-10  9.1521537360151324e-11  4.8278963814158437e-10  4.5874652526889095e-10  8.0489502126154060e-11  4.2126958031662951e-11  4.1054576271371089e-10  6.6304339145925085e-10  2.5989540454696239e-10  1.0151733937248527e-09  2.9349107442070315e-10  3.2043575932448964e-10  2.7713065744244347e-10  2.7108728057127205e-10  9.6359062101668374e-11  3.0062506204128630e-11  1.9338735739080371e-10  1.1025843878950560e-10  2.1682860918552636e-10  7.4922787318426664e-11  1.1226534151749868e-10  2.1216563668618939e-09  1.7912279241749605e-10  7.9308184689137656e-11  7.9187991428880621e-11  4.0564356840134126e-10  2.4765564159378226e-10  1.8995009480216356e-10  2.1353253519106524e-10  4.2489399032782210e-11  7.7770258543557982e-10  2.4027044691409734e-10  5.3849980833963244e-10  2.5470102037332295e-10  2.4154757813554868e-10  3.0565336433048882e-10  9.5292716572987318e-11  3.1961887546227712e-11  3.4221251843303969e-11  3.7927982371944976e-10  3.6460936924997130e-11  1.1599460453510901e-10  1.0267603461362894e-09  7.3915955462216415e-11  3.3844555234058761e-10  2.5938922316044217e-10  6.0690430988358967e-11  5.9279796727993165e-11  1.8720119206467803e-10  2.4547295271922592e-10  4.5478922067588785e-11  1.1540047513526015e-10  1.5621543815155701e-10  7.6979520816638877e-11  1.6115889825255459e-10  2.1773878363660595e-09  3.4542475717263131e-10  3.2210394121074569e-10  1.0917700168813742e-10  1.0178949706394500e-10  1.7986763098990584e-10  7.6211858104626535e-11  1.3145683569024008e-10  5.0363041710724895e-10  8.8084902494376404e-11  2.3419913732682861e-10  2.0023487207968731e-10  1.3750615693591948e-10  4.7226607267020455e-11  7.3299666804116099e-11  5.0395511751354325e-11  3.8843758598426004e-10  1.0708407822406017e-10  2.1811186769190579e-11  5.7753047885602176e-10  2.8871106396963651e-11  6.2554939404866833e-10  1.1573137212993172e-11  4.9005371537302092e-08  1.8521728811136593e-10  2.6530407389231615e-10  9.9557420216461302e-11  2.8348004242264208e-11  7.8968948005759167e-11  2.7329242813348575e-11  1.8563720816253027e-10  3.7568157107316764e-10  2.7045890152741379e-10  3.3052586675869101e-10  1.3476808526384853e-10  9.7353840788560078e-11  6.3166232407153713e-11  3.7177983970509987e-10  4.9550363752492028e-10  9.9070067783260237e-11  9.7194449604543121e-11  1.4612930024814552e-10  7.1584612076593008e-11  4.7563413930506846e-11  5.3417802577857370e-11  3.1621663879757485e-11  8.5417051882294534e-12  1.7006956008043031e-11  9.1427140262009528e-11  2.1845873931387680e-12  1.0551306292869023e-11  1.8677478185854638e-10  3.5421722899670708e-09  2.2185381454628582e-10  3.9099106053268848e-11  2.2781189373477894e-10  8.9121755630482385e-11  1.0947272908969361e-10  4.1373243574355514e-11  1.6752982023297422e-11  8.6524378519943899e-11  7.5730842571164753e-10  7.6954041370084900e-11  1.8047980349524694e-10  3.2456950131640319e-10  4.6267944961726263e-10  9.6645181655891231e-11  1.0277933553926458e-10  5.8254507097085920e-11  7.8481330353879449e-11  1.0674136552410517e-10  5.2823013722244531e-11  5.7572344508149280e-10  5.7767272611628331e-11  2.8018938885734574e-10  8.8767452370318456e-11  1.2697897611859877e-10  2.9622228144256748e-10  4.1334215482799285e-11  6.2415358972312008e-11  2.7492038583740216e-10  1.1160149749573368e-11  1.0925552024553607e-10  9.0598180688472982e-11  7.6694382177343677e-11  5.7035457933715963e-10  1.6351957111935801e-09  2.8220441054256422e-10  2.9153002111905063e-10  9.1611328324459810e-11  6.6947760294348562e-11  2.5242358143972111e-10  1.1167316103114834e-10  9.3187980276073107e-11  1.0445172212628694e-10  1.8893950942851690e-10  7.1921530645708625e-11  4.8618864110800920e-11  6.6644690235335051e-11  3.7453307208820389e-11  8.1266034645476903e-11  1.9448515798802912e-10  1.6103765457882046e-10  1.1200140768772610e-10  2.7288627755794068e-10  4.4377672018946384e-11  1.3863687852637159e-10  5.3331611520455881e-10  6.5203179221223534e-11  1.2258222577048849e-10  1.2071478052066934e-09  5.5592277486216714e-11  3.4682771926246334e-10  5.3149100203739693e-10  1.6111609647710400e-10  1.2673493120332556e-10  1.2648146361170886e-10  8.6192566657129956e-11  2.5115656306940583e-10  2.9221715366773328e-10  1.7316601693962600e-10  4.8203429197733226e-10  4.2746764949384611e-10  1.1815545647901054e-10  2.0238867883836152e-10  6.3662789256601963e-11  8.1857000459043689e-11  6.1235053718662343e-11  2.3914953875672672e-10  4.0616877938086157e-10  3.0963040593121687e-10  3.3195172771210707e-10  8.5362862729815639e-11  2.3171992735506187e-10  4.8953315701525791e-10  1.5994702289656685e-10  4.7102025012541792e-10  1.8587891336796286e-10  1.3516050216291428e-10  1.1180587355985207e-10  4.9529046732887284e-11  5.2169833754309451e-11  3.5020919068088517e-10  6.1971975659345152e-11  6.1372305502233174e-11  1.2437146028229857e-10  3.2511032882951627e-10  3.1591572880512430e-10  1.5815300429910018e-10  1.1721600741692145e-10  6.1251807428555095e-10  6.3375257680827173e-10  1.6612218107567114e-09  2.7403231690735685e-10  1.9887756902339606e-10  4.4767376640740649e-10  4.6078439247870455e-10  1.2169004677867548e-09  2.9939826922088186e-10  2.3675578241126963e-10  3.3036540544272024e-11  1.2527147370051185e-10  3.2796397452938128e-10  4.3694160511450274e-10  2.1231051504110328e-10  6.8544706444009944e-10  2.9572822962175553e-10  2.1170189206351741e-11  4.9248420523475133e-10  3.3781485486702659e-10  3.8923096997307208e-11  3.4029963580559294e-10  4.1299642505021257e-10  5.5787151458578040e-10  1.4681331730579746e-10  6.7423287978526915e-10  1.9688206698028015e-10  4.7847853421475105e-11  1.2938270622770994e-10  1.3335158852692508e-10  3.1714532618413334e-10  7.6331160950730655e-11  2.4921705503032083e-10  1.9800210949087349e-10  7.9425620257724627e-12  1.3361833223594266e-10  5.5760877035170775e-11  9.0901207112060429e-11  1.2088601258495688e-10  6.5607754858074307e-10  4.1675063014400552e-10  3.1234531189917552e-10  1.1976800897598400e-10  1.2710034212674238e-10  9.2587692441735441e-10  5.5516999026851473e-10  1.3260615567415595e-10  1.4389236454422074e-10  9.8260177429228593e-11  4.9884545014970293e-10  1.3397472522980513e-10  1.6981878970107675e-10  9.2149405863696616e-11  7.0719147344011513e-11  6.1852492290364825e-11  1.4674954439002262e-10  9.9209989270984988e-11  1.2230792872058966e-10  3.8699642617776427e-10  7.8033516194472386e-11  6.1205190275335531e-10  1.1579527621086015e-10  2.2728156189936347e-10  2.6192424461574695e-10  5.6592746741323379e-10  1.1709926030787577e-10  3.8208130838057659e-11  6.1114303153603968e-11  1.4458684022740730e-10  1.6167243900925423e-10  5.0077592769956405e-10  8.1715952033314925e-11  1.6457867106839013e-10  2.5310355259575276e-10  1.4422443335438065e-10  2.3629540190018212e-10  3.5528288118827565e-10  3.1678424719372362e-10  1.0035785026791438e-10  1.7341523884886852e-10  1.4911511595163480e-10  2.2868121678529566e-10  4.0096636637635580e-10  3.7305519787072830e-10  2.0070599413793810e-10  1.8738532618977761e-10  1.2539578797810512e-10  1.6865529768754496e-10  3.0320633236063411e-10  3.8293843644738873e-10  3.6640111343753694e-10  1.6969997949012815e-10  2.2177361143131668e-10  1.9971976053733319e-10  1.4651806620213578e-10  3.9435614569121074e-10  3.1762811178155727e-11  1.0467530195914847e-10  1.2738733342140183e-10  2.4425937404597599e-08  4.0654386701811046e-10  1.6976286870414703e-10  6.1266084388421488e-11  2.5772562119235126e-10  1.3308016201313268e-10  6.3595544932907444e-11  1.0315251550620830e-10  2.0183134008386493e-10  2.0641416415134331e-10  2.0017164172182396e-10  1.8395449438431917e-10  3.1354996025520109e-10  6.5283528899761886e-11  8.0373228675715666e-11  1.8697994267822199e-10  1.2435137952362060e-10  3.2773613301515759e-11  4.0259639271716577e-10  6.3410938125611514e-11  5.9178884249891804e-11  1.9734136553477541e-10  9.9867696465074417e-11  2.3541622549528265e-10  2.8352415058876281e-10  1.2528463719702192e-10  9.0693590826929683e-11  1.8577403626934818e-10  9.6144780021747222e-11  3.0467471271851144e-11  8.3901776276465093e-11  5.8917499420108127e-11  8.0038059942801514e-11  2.2766666008756770e-10  4.5105092896345653e-11  6.2174256997827603e-11  9.3952703255130559e-11  9.0777202319031810e-11  9.3810168037005686e-11  2.5220770238066421e-10  8.8902545713556383e-11  1.8666435499835279e-10  2.1697073406886736e-10  1.0750005797542908e-10  1.6040576287063925e-10  3.1710297368248713e-10  1.2287921043293764e-10  6.2448525669076466e-10  1.6615969132056638e-10  1.4977402363335166e-10  1.3902569034347880e-10  2.1299740807315223e-10  4.2541847762409982e-11  3.7773959758865944e-11  7.4237018688949819e-11  4.1507967475732602e-10  2.0182917230497240e-10  6.8962406644659771e-10  4.4967932405110217e-10  1.2045755239839562e-10  5.5839178289693751e-10  3.5947257069744341e-10  1.8564701070013967e-10  7.1695996025986768e-11  9.1700453194309405e-11  1.7770752231960269e-10  1.8885444692181713e-10  4.0231236967437579e-11  5.0524523367800569e-10  2.9038069497229372e-10  3.2700265394714761e-10  4.9384466482978030e-11  3.4564955358306869e-10  2.7564290529406711e-10  5.9500266983155554e-10  6.9848973352285849e-11  6.1535988953105302e-11  2.4132734628281888e-10  7.0267702693547218e-11  4.1626187149314468e-11  1.4169693427099252e-10  2.4033234603040085e-11  6