<?xml version="1.0"?>
<VTKFile type="UnstructuredGrid"  version="0.1"  >
<UnstructuredGrid>
<Piece  NumberOfPoints="4852" NumberOfCells="9430">
<Points>
<DataArray  type="Float64"  NumberOfComponents="3"  format="ascii">-1 0 0  -1 -1 0  0 -1 0  0 0 0  1 0 0  1 1 0  -1 1 0  0 1 0  -0.5 1 0  -1 0.5 0  -1 -0.5 0  -0.5 -1 0  0 -0.1608775713298009 0  1 0.5 0  0.5 1 0  0.1967448868031411 0 0  -0.4940642079802017 -0.24745544934192 0  -0.4612623324989771 0.307531298922067 0  0.2472605605575955 0.4942823593493967 0  -0.2471405514166833 0.6608929800980488 0  -0.6218903435770901 -0.6215331447210243 0  0.6191509947484387 0.3720755077782482 0  -0.1100416865980407 0.3276585317445836 0  0 -0.5061325913258391 0  -0.25 -1 0  -0.6438859138870984 0.6454841927169814 0  0.7166425830571906 0.7157248692324233 0  -0.2963395421724095 -0.6737002059716186 0  -0.6611879313209865 0.04164730436240601 0  -1 0.25 0  -0.3486752629873742 0.0241595970312909 0  -0.7379807388235956 0.378116041445875 0  -1 -0.25 0  0.04114450384262287 0.7038803521226292 0  0.3610875713101158 0.2395442191948573 0  -0.250325083070576 -0.3934246915260649 0  0.4302350034473301 0.7176711235945965 0  1 0.25 0  0.5355652144809806 0 0  -0.75 -1 0  -1 -0.75 0  -0.7462798647294112 -0.3738502712932179 0  0.25 1 0  -1 0.75 0  0.02757118475249542 0 0  -0.25 1 0  -0.75 1 0  1 0.75 0  0.75 1 0  0 -0.02898318711980711 0  0.1242056457873234 0.2732421826801129 0  -0.1710449044414517 -0.1141141482765954 0  -0.7898912633472616 -0.1482016923434593 0  -0.471642661071515 -0.4615396162049061 0  -0.4384685031117957 0.5363433587404645 0  -0.1242840353537291 0.82975531613468 0  -0.4514312474429817 0.7694941052998122 0  -0.08321308982517886 0.5355862323825464 0  -0.161013473120705 0.125001903413111 0  0.459361399361511 0.5066954075658503 0  -0.7790955648862317 -0.7788979536548677 0  0.5818782539884072 0.1276328586766998 0  0.7886786893238404 0.265444190831651 0  -0.8173576035614337 -0.5838335046946518 0  -0.4922817035187917 -0.7861907241987495 0  0.7834889431483119 0.5134021894052385 0  -0.8422306187369101 0.1240977858610215 0  0.2325346278319453 0.7872449633616815 0  -0.2916156831872248 0.4029115203155385 0  -0.8431315543877608 0.6233041513440486 0  -0.7647395923176795 0.8029724106777795 0  -0.05905700606710274 -0.5379713263135957 0  0.6236818615066435 0.869119341757834 0  0.845991279804679 0.8451097429413146 0  -0.1382581379293944 -0.778934387016408 0  -0.6305116733771653 0.2236424284383931 0  -0.324942912431271 0.1935243034805559 0  -0.500963896001175 0.1092151682076589 0  -0.5166140971440228 -0.06904244236703339 0  -0.5989019489910732 0.4789176161508743 0  0.375 1 0  1 0.125 0  -0.005624468886415485 0.1585335422734513 0  0.08473036201426144 0.5377238917769581 0  -0.3138594381455895 -0.23554028990094 0  -0.2932868132865677 0.8315395329823175 0  -0.625 1 0  0.620033125249505 0.5703834079146076 0  -0.6393958776865211 -0.8705400475367822 0  -0.3343216060298882 -0.8514902304042056 0  -0.4582356421757057 -0.6221978711630475 0  0.8665659358488496 0.65398389799884 0  -0.6035401792126533 0.8340399653002201 0  0.125 1 0  -0.1156050258613902 -0.2457102714760844 0  -0.6330283599464225 -0.1749793254180404 0  -0.875 -1 0  0.1177321881517082 0.08636039079955704 0  1 0.375 0  -0.875 1 0  0.06189219334134144 0.8572702010613396 0  -0.3306450977296188 -0.530185067563387 0  -0.1045383183319901 0.6826698904787557 0  0.2932578480679912 0.643988271134181 0  -0.8475187334052973 0.2738218787033812 0  -0.6261508892966547 -0.468724789539586 0  0.001533614033313587 0.4166738963287711 0  0.5733356184614977 0.7323981597152782 0  0.4362788133813527 0.8649728390120113 0  -0.8516870735052113 0.4756547761170039 0  -0.07131928554431397 -0.3941106301029453 0  -0.7946415651851684 -0.007569425424786478 0  0.2352115581042966 0.09033868791611287 0  -0.6179801287074221 -0.3137573112178431 0  0.8015662137978324 0.1035003443755126 0  -0.8647919634684584 -0.4520968664055057 0  0.5088112490021155 0.2617262283294948 0  -0.8559903619202354 -0.2782228206023095 0  0.357366044614064 0.3947940879936347 0  -1 -0.875 0  -1 0.875 0  0.3490455731179425 0.06611118781535673 0  -0.3996870379082854 -0.3451231767776547 0  -1 0.375 0  -0.3130007583704464 -0.1023584459927178 0  -0.7262378249725638 0.5352465816858319 0  0 -0.07736776745332727 0  0.1349832542734101 0.4105903993896455 0  -0.375 1 0  -0.3040078297517653 0.5383385011712429 0  -0.2074030435249902 0.2457561991112016 0  0.1668489897744463 0.6740522417059323 0  0.2382596182411257 0.3359348443500734 0  -0.5882099034390497 0.347390129787677 0  -0.1178901651539998 -0.0002180820700070104 0  0.8862479311434126 0.4361867453278598 0  -1 -0.125 0  0.3114243679801723 0.8877237615468438 0  -0.1716954857597875 0.4433736994764068 0  -0.125 -1 0  0 -0.7575037395175259 0  0.07821397079968176 0 0  -1 -0.375 0  -0.375 -1 0  -0.625 -1 0  0.7474787146812756 0 0  0.625 1 0  0 -0.2918843213980812 0  -1 0.625 0  -1 0.125 0  -1 -0.625 0  0.3284075310660085 0 0  0.004929205892015135 0 0  -0.125 1 0  0 -0.006571003003944568 0  1 0.625 0  1 0.875 0  0.875 1 0  -0.6564151840921387 -0.7439697350985103 0  0.004442420932805219 0.2904860338325407 0  0.4974234762709926 0.3905502617764898 0  0.7479572185283284 0.3889962617091683 0  -0.890699438089714 -0.6859468378284544 0  -0.8905036332110965 0.8115760722551938 0  0.50816594016028 0.6212924460838067 0  -0.4358836173863915 0.8922018983417795 0  -0.8114985095477861 -0.8962457887482644 0  -0.8963255558130119 -0.8111783141360145 0  0.1744362751955782 0.8910179607356798 0  -0.7492182818801871 0.2010167806285811 0  -0.6957669710613544 -0.07366453032069906 0  -0.8997772994261246 -0.06184902924395729 0  -0.3790277527502915 0.6554249057302562 0  -0.511327243231275 0.6514420606270256 0  -0.4881185430666319 0.4259482980537185 0  -0.7279222786527461 -0.2532773862537721 0  -0.426831484003859 -0.14723444567976 0  -0.7307711971784003 -0.6575990727234853 0  0.9012480536509243 0.3108554413675635 0  -0.04307773139850399 -0.1275458194010947 0  -0.1007280013424631 0.2116739348953453 0  -0.1936282219080463 0.5567918785775415 0  -0.2344621228599064 0.03870357614773266 0  0.6589739773174592 0.06792653244682635 0  0.6763978499102795 0.4746447965228519 0  0.7316325127371668 0.830136306226985 0  -0.8225355754636938 0.8998211528645769 0  -0.7431357174729954 -0.4914659174296018 0  -0.2145538647970062 -0.5728351692285999 0  0.8980525117366717 0.5472910959024151 0  0.1975261222379197 0.1982737023097386 0  -0.7002205834602443 0.8956651319906735 0  0.5627749747095683 0.4777207391296974 0  -0.06251882503772797 0.07739864236588505 0  -0.5469515987237477 -0.5414383304679963 0  -0.5144717205417405 -0.3585411976575258 0  0.3985503862741749 0.6113157344623951 0  -0.3031293924879249 0.2971831047246513 0  0.7632259854976817 0.6189795274410381 0  0.3535857653707178 0.5006879814454529 0  -0.4477865611562435 -0.8932239458990726 0  0.1276409236311591 0.7733932795888955 0  -0.4075222431040847 -0.7158585272612452 0  -0.5583860725866631 -0.704716801159058 0  0.341817736264492 0.7816611967960393 0  -0.9118405150368408 -0.1866728359904952 0  -0.2082493970034993 0.8973964607219729 0  0.6122969693065322 0.2618013387275801 0  0.4377359994568996 0.0450672958140297 0  -0.1866247665247923 0.7457481827203789 0  -0.02377673660432713 0.7909209430563916 0  -0.06237800229896001 0.9146791460674817 0  0.0001988312261546645 0.6031374118420461 0  -0.519551947211733 0.2156676023042528 0  0.6920312554994161 0.199165659416048 0  -0.5494898995326043 0.7465951647296012 0  -0.8895117447462878 0.374390691755237 0  -0.1562818381021396 -0.671447202621255 0  -0.02858766666765065 -0.6406898639009692 0  -0.3555792386273247 -0.4341558088196446 0  0.9104615993434479 0.183272787748939 0  -0.2593375706528711 -0.7639256147708396 0  -0.918033946616536 -0.5614817299873253 0  -0.3863091266888946 0.4449763631754126 0  -0.7431554705559384 0.6338499297023107 0  -0.9214378142563452 0.5613559203310208 0  -0.9215618996790704 0.686714480240322 0  -0.7421601389511442 0.1016910011375474 0  -0.9026807513790107 0.04048111767835164 0  -0.9212080926295094 0.1866924108189128 0  -0.2075080307208656 0.3467028065415038 0  0.212600364392917 0.5866235422247066 0  -0.03844893700352552 -0.273210832316138 0  -0.8032041403779364 0.7129739388917882 0  -0.6696731507441313 0.7504692561236667 0  -0.3943079029335426 0.1170131198168628 0  -0.3168266683836707 0.733255911317081 0  -0.06417947065731207 -0.06504607083474258 0  -0.5345705895123551 0.905274543271431 0  -0.5729236219005138 0.5745713195877936 0  -0.4220298704695707 0.2090778874114001 0  0.03943983764390416 0.06010186786263692 0  0.8171737263932022 0.7446381520059144 0  -0.5424123246762165 -0.8708765061516115 0  0.4223781694385659 0.3249684456030276 0  -0.1725594570433932 -0.9036734735987917 0  -0.06224498960237567 -0.8566406716432595 0  0.4956150278758557 0.7887116076105217 0  -0.2092891349567832 -0.4758290926497942 0  -0.417270634723354 -0.04883370751788084 0  -0.9085357161158305 -0.9085139261297052 0  -0.674356514762401 0.3069105128762237 0  -0.604121625168144 0.1258930280690987 0  0.5297533916487827 0.8780279695663783 0  -0.01778479956478424 -0.3884022054534759 0  -0.3454357092035438 0.9096670251015092 0  -0.2571641199645516 0.1282205901149985 0  -0.6071218268236311 -0.03667398906298141 0  -0.5339409366640487 0.02230018612610477 0  -0.4412343459028185 0.03843577659569326 0  -0.5370393065312861 -0.1622360508153432 0  0.9085569736919159 0.7357934663372901 0  0.8119913930758292 0.9313034094086303 0  0.7046051553277192 0.3024794072914007 0  -0.6724925424380831 -0.5470144923548349 0  0.6521173764114253 0.7810142153730719 0  0.7027623961318119 0.9187153472421098 0  -0.0829405162822123 0.4436270766870641 0  -0.9154363885751569 0.9156708195069372 0  -0.253355523098665 -0.1673864630664554 0  -0.3062969194176335 -0.3246238538113452 0  -0.4052027070867965 -0.2326389511723437 0  0.07401901977226505 0.3454378629392932 0  0.9133560917790413 0.9129413250301647 0  0.8856314498293072 0.06799489570480045 0  0.43065735850371 0.18749787381
[...]
<PointData  Scalars="w"> 
<DataArray  type="Float64"  Name="w"  format="ascii">3.1131857686190811e-11  7.5009460320970198e-12  4.1028063970031501e-10  1.7246735495899230e-07  4.8660657055417095e-10  1.3639734159447123e-12  7.3234232546242956e-12  3.7781416029625261e-11  1.2871490090381732e-11  9.5720591978388487e-12  3.1472337088672741e-11  2.4718754404938654e-11  2.6706857301875113e-06  2.8140407329806373e-11  6.6974178339772303e-12  3.6399325978212474e-07  6.6573421794286418e-11  5.2791816766283176e-11  6.8172538952340355e-11  1.0426510556931828e-10  1.5785216727825690e-11  3.3426154349984386e-11  8.7508637927293123e-10  3.3363905314892013e-06  8.3879045663674028e-11  3.2978120223677637e-11  3.4183232680317121e-11  4.2262642342230047e-11  3.2886218740968537e-11  1.0665399459348730e-11  7.1105338664657645e-10  2.8802682471014355e-11  6.7313655573448241e-11  5.3299478323822451e-11  5.6369473178735318e-10  1.7151183323660416e-10  2.6238721096932013e-11  5.5430888155605887e-11  4.3906463986550624e-08  1.0883999759075435e-11  1.0371215966335510e-11  3.5636324841116270e-11  2.8685697519585835e-11  7.5897345313444212e-12  7.8576236807580423e-06  3.4211335475181831e-11  1.2549498562723824e-11  1.9587202601380494e-11  2.7256964417466414e-12  1.6041738618350995e-06  1.1142234265053977e-09  6.6586015540786030e-10  2.9964955960971684e-11  8.9256406210993912e-11  9.1558589221325535e-11  5.9585291306230470e-11  1.1301147368985667e-10  7.0656359538719717e-11  2.1422794684474094e-09  9.0925185039496112e-11  7.7503895403879765e-12  6.6083213290899089e-10  5.4285926608962407e-11  2.7043562160776477e-11  1.4048151167025498e-11  4.2138651482282873e-11  1.8496915590757815e-11  8.0269624455101022e-11  2.4104218473716046e-10  1.4557490995397944e-11  3.0368258561618358e-11  9.2611899623567380e-10  1.6365598113524790e-11  3.9522707073102709e-11  9.9630835863920285e-11  1.0279596744564635e-10  3.4785705719943446e-10  1.2323888555913351e-10  9.0072113170942629e-11  7.8166192977242652e-11  3.0802327486610921e-11  4.9109299836630144e-11  2.5931072962696672e-09  1.1832389058852080e-10  2.2906820127003816e-10  4.9799927574664785e-11  1.3465823482921899e-11  3.4228947583158785e-11  1.9735005294630464e-11  3.9389245780080370e-11  1.4460176413410605e-11  2.5904032821689668e-11  2.7145001236801144e-11  2.6409921502539036e-11  2.2214911044459683e-09  6.4063419945651952e-11  1.2089254277825779e-11  8.1626332614399027e-09  5.4123398008958049e-11  1.3520436915352752e-11  7.6963083209076118e-11  1.6377719066137934e-10  7.3180492713462238e-11  3.2466177502414927e-11  4.5909330396573586e-11  1.4616928082448169e-11  4.8269094033113815e-10  1.8925622745462121e-11  4.0508395513641842e-11  2.1315823922230198e-11  1.9735898009956450e-09  8.2374569629040098e-11  1.5430968470133548e-09  1.9956194839780449e-10  1.6358139940277975e-09  2.3036180821875671e-11  1.8779977514986317e-10  2.7992551299545036e-11  2.1001344702924902e-10  1.3525548442325124e-11  1.3172482862843406e-11  1.0639942820162379e-09  6.1213978396775091e-11  1.9143521890497677e-11  9.0452628511988957e-10  1.6918019220470728e-11  4.0699293004441020e-05  1.3833694820060405e-10  3.0734229308003220e-11  4.7318012063055436e-11  6.2217297365698485e-10  3.4631040680746613e-11  3.2555300353915171e-10  4.3841933437617052e-11  5.3723250164492668e-09  4.0009718953172761e-11  2.7030807030819761e-11  1.7274912680593950e-11  2.2060043434914730e-10  1.2416269541087209e-10  1.9372516292715874e-09  7.5868223740153012e-07  1.9950577129596441e-11  1.9341680920980337e-11  9.8277718229275188e-12  5.6772333690758297e-10  2.2789360105494336e-11  7.4648352073140449e-07  5.1970778404655514e-11  3.7813851315286330e-11  8.4934768794906804e-12  2.8946118846792940e-07  1.1977097775233816e-06  1.9669778418785882e-11  1.1670488793438960e-06  1.8958754029573603e-11  5.3297686606205708e-12  1.0134264344024355e-11  3.3733427665728738e-11  1.2331545939703937e-09  1.6498819362814444e-10  3.5911112901085721e-11  1.9991880349290329e-11  5.2496890947698192e-11  8.1442584859767326e-11  1.9846934491584070e-11  1.7057347856542077e-11  6.2878718681943814e-12  1.1249599641905903e-11  8.6906517093122920e-11  3.9237488779368173e-11  2.9566783830570352e-11  5.0137814309957221e-11  3.0954148230776609e-11  3.2194933407335727e-11  2.9750144358578957e-11  2.6334735932465858e-10  1.8004967587413026e-11  3.9727435226897433e-11  1.1514703814399647e-09  2.1560284819535995e-09  1.2585283910211713e-10  1.0470541961556077e-09  2.6797541791533602e-10  3.5514288688259482e-11  3.6945923985155279e-11  1.3075409925633262e-11  7.5764012773646732e-11  6.1932826118354064e-10  5.2945821202135047e-12  4.5714807649956355e-10  2.8990972927204171e-11  5.1196170944537515e-11  1.8620380731664234e-08  3.7421200996896496e-11  1.3043383900366556e-10  1.0278970722384012e-10  2.8839041210195449e-10  3.0770092363098525e-11  9.8602218492327795e-11  5.7971047242010931e-11  1.0929315408452849e-10  5.3887090894742949e-11  2.4621088635813376e-11  5.4772734607587835e-11  2.6011303480348491e-11  3.6114829583027573e-11  8.7584256964588868e-11  1.7959985338856667e-09  2.8853596384333585e-11  3.4068240308426993e-11  6.1434201199798863e-11  7.1720632436216154e-11  1.5891424494181168e-10  1.2258968234162918e-10  5.6929363214242168e-11  1.9140890033627446e-11  1.8371448784550658e-09  5.5974344203556172e-10  1.9753986573261517e-10  7.5011834692504358e-11  5.7441207298869502e-11  1.3941588361725978e-11  1.7510842083290873e-10  1.7558341910441996e-11  2.3912652697373502e-11  2.2529688554704165e-11  4.1501342232551313e-11  7.7611335010384793e-11  3.7159631005813998e-11  3.1588994797281696e-10  8.2999647892828517e-11  3.6447209861924102e-09  2.4588950333786513e-11  5.7234335548217726e-11  1.3070246259627494e-10  3.4480363209381504e-11  1.4865461868157197e-08  2.5048065113012664e-11  3.5708319869482116e-11  1.8287828865894659e-10  2.0142960834744710e-08  1.2291024545327100e-11  1.5966598171034806e-11  2.0591444390807898e-10  1.0986221482332398e-10  2.4730693754432758e-10  5.0322896357890360e-11  2.3584718889392744e-10  2.7522679285789171e-10  1.1581169776330179e-11  5.5144080459602156e-11  8.6032201263582443e-11  1.2920883651438794e-11  4.0092082162491358e-09  1.0844848072465933e-11  6.8507245637025888e-10  9.2404422804176544e-11  6.5685538467350588e-11  1.8497255051151724e-10  2.1058494356310550e-10  3.7374808880223226e-11  9.5397701569453799e-12  3.3645129720589260e-11  2.5980041265700402e-11  1.7003920911560390e-11  1.1905220936698755e-11  1.5315022647644261e-10  1.5922105512984169e-11  8.2002495031653757e-10  1.8164363715085309e-10  1.4008263166184706e-10  2.7534473956394272e-10  4.2005032623725067e-12  4.6188183932494976e-11  2.2257897553980634e-10  4.8222242176660632e-11  1.0291978620046438e-09  1.0850893101060756e-11  2.2779843646950550e-11  1.2896262125113906e-11  6.9558886043385133e-10  6.1864821288594066e-11  6.7802392530445516e-11  1.8287174367737920e-11  1.8527910409698009e-11  4.3488392976892748e-11  7.2369818692283600e-11  1.3762463056812247e-10  1.2183892718855646e-10  7.7827667767663838e-10  2.1435091737806726e-10  2.7943423633359426e-10  3.1442274777992961e-11  3.3576013124025000e-11  2.6220250132303584e-11  5.7015394607398541e-11  3.8636693095991440e-06  3.1282149025207658e-11  1.4711678052689375e-11  2.1772319713694932e-10  4.8088476536057199e-10  4.4142810410745951e-11  9.6866369439454100e-11  1.3777528211179835e-11  2.8424829212175077e-11  2.3010300849056398e-11  2.4994691278038288e-09  1.7135308234631338e-09  1.2824150488673612e-10  6.5078292522120984e-11  1.1768361408304682e-10  1.7248567977849728e-11  3.2630295461199711e-11  2.0990855762752524e-06  4.5322615225759041e-09  2.1466676848273226e-11  1.4797728814801138e-10  3.2316538493582067e-07  7.4445866506004500e-09  8.2767621784769072e-07  1.8320839727924299e-09  1.0983041837306607e-09  1.0583939149396336e-10  2.5111888560451362e-10  1.1388642666268643e-11  1.9401669046984647e-11  6.4441995543431820e-11  2.8823139263633285e-11  1.6848535104816133e-11  1.3489631625111186e-10  4.2958990299776281e-11  2.3605955566524978e-11  1.0860288414207144e-09  2.2365529727510636e-09  2.8290176164636059e-10  8.9942547709583516e-11  2.8974614138438639e-11  2.3019883909199857e-11  2.3509043870999651e-11  2.6358526257716084e-11  8.8882330455283655e-11  6.1409973907757234e-11  2.2291866094021826e-11  2.0084145415652860e-11  6.5280581251742182e-11  3.7544894194411666e-11  2.1146770461464957e-11  1.9216930547098282e-11  1.3205965327826478e-10  1.1055027388130409e-11  5.5073856022761451e-11  1.3943898890805402e-11  9.5816318558913202e-11  1.5736853050438632e-10  4.7703089485723765e-11  6.4570075693981232e-11  4.4129120493599438e-11  2.4512385654811774e-11  4.0824811733477004e-11  6.0812822046685410e-11  6.7475671910021263e-11  3.9823244490940931e-11  4.6533729633412656e-11  4.1183175423087811e-11  3.5808607853468471e-11  8.4519796724458605e-11  3.9555031725757992e-11  1.3753722454219328e-11  4.8163387102241755e-11  5.3300151301642399e-11  4.7719014940034224e-11  4.0900761041467400e-11  6.1783989216729374e-11  1.0046232000053201e-11  6.0154333120816935e-11  8.2867538742418880e-11  4.9009765585674162e-12  1.7634260466396129e-10  2.1852063570077808e-10  5.2299353709949007e-09  6.0501671237442569e-11  4.9620881647376043e-11  1.5938329183291684e-10  2.5339504412696241e-11  3.8159075819426095e-11  9.0901282838775624e-11  1.3095625464253280e-11  8.7822954613923483e-10  1.5369301695408666e-10  3.4341144610522128e-11  6.4059333592286489e-11  3.2011799534145773e-11  1.1661714618664059e-09  3.4495201517427061e-09  2.8265413737959811e-11  7.0453127806456922e-11  4.0306540637316962e-11  1.2811003043985798e-10  1.6062312562567083e-11  4.6531618503696166e-11  1.7885496334668190e-11  1.5212564257179279e-09  3.2605532932973171e-11  1.4655648781846209e-11  2.9191663456668880e-09  1.9437392559057871e-10  8.3631836629486940e-11  9.3467937470886477e-11  2.3420001227789032e-11  6.1606287720486401e-11  1.2627276809322628e-11  1.7437022541476773e-10  2.4781033316966317e-11  2.4551262934601331e-11  7.4412386892843941e-11  1.8312869206879830e-11  1.7726249607715911e-10  1.2131537880592341e-11  2.4385516115067482e-11  2.1197770290979296e-10  9.5893969361637019e-11  1.5122005152024778e-09  3.0081341227365487e-11  5.0636316889777238e-10  3.2896527700931470e-11  2.4052010519511969e-09  3.6701840645240670e-08  1.3731066510489067e-10  1.6495989518124025e-10  8.5073884115795654e-07  1.0430427743536855e-09  1.6163324674661771e-10  1.8080915188819254e-11  1.8384555991981416e-11  3.3322176232564440e-10  5.1731288083413157e-10  5.6943168875913421e-11  1.9815548515699715e-11  1.7886523817986150e-11  1.5586027574492486e-11  2.5208809512936856e-11  1.4013619207112333e-10  2.4387866254875141e-11  1.2123183564000643e-10  7.1836241979239392e-11  1.3646301673846139e-09  1.3375394860807402e-10  4.6538230143585010e-11  2.0460864020151032e-11  1.0896475294130665e-10  3.7085173626652592e-07  2.3309855912223010e-10  1.6678670800421456e-08  5.7423532017642409e-10  7.7774742618434472e-10  2.7155463268634029e-09  1.8568724141943905e-09  5.4457496055134522e-11  1.0290885542062465e-11  1.0913613545783866e-10  2.5733993004886630e-11  5.4071403524932257e-11  6.0112948111321562e-11  4.2851488052170564e-11  5.9454111233692899e-08  5.2119933745129469e-11  3.4350562645488676e-11  1.7716723940454276e-11  5.2923047738675964e-10  2.7797362221467338e-10  2.6237404986247377e-10  1.7664820519311441e-10  2.2128339355187571e-11  1.8015893383759108e-09  2.7187125039395438e-10  2.9060474854223471e-10  1.4486063514866368e-10  5.4711834075241263e-11  5.4744003999002033e-11  4.0655670982805319e-11  2.1314720674890907e-11  1.9538983163680308e-11  5.7530156670307889e-09  1.2819651228465359e-11  2.5232910257503398e-11  2.6979267874754538e-09  2.7671295455710347e-11  3.4079817057532549e-11  3.9221845506530407e-11  2.6888972187272652e-11  1.3152907382797581e-11  8.6083974378929715e-11  5.6901211334477302e-10  1.2063588885907219e-11  8.5762322227817928e-11  4.3391373283494877e-11  2.7093281001247257e-11  8.9963107753151239e-11  9.4498365869747265e-08  3.3669580736999913e-10  1.5034711784607126e-10  6.6523556468537980e-11  3.4882551312113656e-11  3.0821664075627127e-11  1.9111215282838254e-11  6.3614863340283192e-11  2.5028114044924675e-10  4.7279949299042083e-11  5.7510116830016103e-11  6.5964845491563695e-11  1.5193890911074995e-10  9.5586433811055817e-12  9.5569900153176381e-12  6.1067101415336073e-12  1.6564482793850269e-07  4.4256173369336530e-11  1.9176627209682989e-11  2.8842863764668841e-08  1.0424456454371335e-11  3.0785422858712335e-10  8.0167976793139349e-12  2.6718660569767803e-07  1.0059442752788697e-04  5.8480956925106762e-11  2.9253666074113740e-11  1.5879274044173166e-11  2.3560848821492145e-11  1.1135946550053732e-11  3.8152843669602013e-11  1.5994397445558975e-10  4.0515707681852142e-11  2.1772698283784824e-07  3.1519617598350154e-05  2.5544196032634300e-11  2.3522686667845961e-11  1.1526744883398305e-06  7.5149751638464667e-11  2.3012877996448869e-11  2.4045406782089234e-11  4.2462209279719218e-11  3.2372348585738430e-11  1.3676106502144078e-11  1.5046162300516129e-11  1.4101065956510099e-11  7.1373935805266007e-12  1.0296657287089750e-11  2.5636326577132899e-11  1.1172843053346398e-12  5.1064579199021186e-12  2.3005095413990362e-05  3.8224103269400232e-06  3.4464130077083923e-11  4.8340495090072603e-12  6.5996889963674912e-11  4.7536386903431135e-11  3.2998758717252764e-11  1.4385629605249853e-11  6.4999296042276716e-12  2.8928839079215002e-11  3.1875033918852255e-08  2.5711880027070559e-11  1.0025371445999509e-10  1.0937479501111352e-10  2.7638828332597186e-10  5.5991195300721470e-11  3.1030774204929514e-11  2.2341910233349940e-11  6.4989106003046442e-11  3.9351699583534153e-11  1.9831681897585343e-11  2.0847946755175151e-10  1.9767159065980393e-11  4.0127744341167842e-10  2.3312379091454256e-11  2.4547092443412781e-11  7.9133617987674877e-11  3.7024421367847087e-11  1.3601120743947716e-11  4.5466077075606928e-11  4.1959388337222041e-12  4.4323247255626709e-11  4.6610723481418146e-11  5.2446749842034457e-11  3.2183895640438563e-09  1.2058836253774722e-09  6.0101308756873460e-10  1.6406021249175158e-10  3.8722385167111664e-11  1.9002072300809215e-11  1.1334701297367485e-10  3.6102103351606706e-11  1.6755609834373485e-11  2.3903999364833009e-11  6.5090599487752601e-11  2.9813403242795234e-11  1.3830386322205902e-11  2.1667446488768778e-11  1.4790215734942209e-11  3.4384974722203176e-11  1.7739432984149834e-10  1.3654878004095971e-10  6.6940117084182042e-11  1.1498982613779433e-10  1.4680133576156258e-11  3.8511267651309483e-11  1.4424088408351843e-08  2.0027610337704431e-11  3.4920080099564443e-11  1.3887273802163343e-09  3.1938742179876233e-11  1.5950629373592155e-10  3.0583794964458706e-09  2.3898144442291648e-10  3.7065988133093081e-11  4.6419239491166050e-11  2.6998264797974064e-11  6.3674064399329883e-09  4.3267777273551145e-10  1.2198852376203755e-10  1.0472421690209663e-09  5.3833132409904992e-10  4.6029136052241057e-11  4.7035679602505001e-11  1.7232888862546973e-11  3.2388468811333459e-11  4.3507635680382587e-11  8.3898927490864211e-11  1.6261268262021207e-10  1.8389224163493856e-10  1.4200994964403295e-10  3.4540469105917366e-11  1.0643358399917312e-09  2.0033370134033084e-09  4.3379606780238884e-11  1.3023506844167131e-10  5.6194990600108710e-11  3.4907860300594641e-11  2.7654220439064577e-11  2.2311116845274325e-11  1.3330189222940555e-11  1.2932335956193797e-10  2.8131702232721221e-11  4.2884217727746888e-11  4.6928566383285225e-11  2.5308826706976676e-10  1.1682575365835977e-10  7.4019711773994800e-11  2.3224636658782407e-11  3.2065073458799179e-09  1.1553628317102948e-09  3.3438616392329636e-08  3.4959497328797234e-09  1.6342743174737577e-09  5.3165390178780134e-09  1.2608779940253194e-10  1.7754638197504062e-08  2.7999278244643129e-10  4.6587416460153723e-11  1.2173998956031127e-11  3.5684538219148368e-11  1.8976902243056302e-10  5.5240285300392754e-10  1.5069852088812938e-05  4.4229810940262585e-10  6.4248372281201240e-11  9.4226907011061866e-12  4.1727773235800178e-11  2.1322003332219274e-09  1.6288726492171664e-11  2.5735922490277308e-10  1.0669824695086879e-10  5.2123142175664623e-10  1.6509887884659849e-10  6.0683856663495884e-10  1.0743990571126635e-10  2.8559718805233380e-11  9.6832631950546656e-11  6.8871034448823696e-11  7.1981796641519646e-10  1.5039185700159735e-11  1.0068266311684699e-10  4.8674894595794297e-11  3.0521983231094740e-12  1.5883751830216973e-09  2.7312360531193258e-11  3.1022508533795127e-11  6.5854475548781037e-11  1.0167614423460330e-09  2.9163230532880726e-09  3.0563857438196414e-08  3.3692215127721379e-11  2.7048620136076547e-11  7.4079319418183283e-09  4.8453159461547553e-09  3.1976529892011270e-11  5.4741943551491060e-11  2.1279575260356911e-11  1.1105562675780734e-10  3.9271604169796042e-11  7.6661725477191633e-11  2.5750482471599961e-11  2.5167750258326042e-11  3.0026082452929606e-11  3.5795082803755264e-11  3.8865472944016450e-11  6.9477198582181115e-11  7.8623654985775420e-11  1.9766189562265711e-11  4.0707659153009981e-08  4.1736238947256473e-11  2.7829224227634762e-10  4.0576714779517781e-11  6.7840179927448978e-09  5.9406010555066653e-11  1.6453748033845378e-11  2.2443751087357539e-11  1.0076675217642622e-10  7.9543767067454189e-11  1.7285477135811052e-10  2.4173361691668140e-11  3.1265806832033301e-11  4.3869363094634942e-11  2.8873083379360589e-11  4.2083488805803560e-11  6.8336196111896296e-11  3.2139795819984882e-10  2.8835692160035724e-11  7.8464080606334281e-11  4.3131114646794319e-11  1.5547118983775841e-10  2.4073659531793366e-10  1.5711123026795465e-10  9.8650267709896530e-11  3.9430967916310644e-11  3.8843047237327352e-11  4.2517425199891677e-11  3.5200467549147046e-10  1.1964277553933625e-10  1.1459182644821756e-10  2.5369716453736341e-10  1.6769861677611353e-10  6.7098410035543879e-11  3.9757643147204781e-11  5.6331803254369523e-11  9.5017935345794333e-12  1.8528235768261848e-11  5.1531518854888810e-11  8.7522158335134201e-07  1.2614525370466448e-10  4.7564529897485781e-11  8.5982908519025017e-11  2.4602144206190918e-10  6.4575385516477865e-11  1.6278104802373574e-11  4.2844069647866617e-11  9.0567225518248116e-11  1.2945376932037046e-10  1.1610013296699930e-10  7.8600587988600723e-11  1.1747458814982357e-10  1.0611321745651894e-11  6.1056850325398815e-11  1.4414741969059836e-10  4.0457984307097634e-11  1.7917262646712389e-11  2.0235121493290889e-10  2.3357463706465422e-11  2.1646028982207768e-11  5.4677501205522288e-11  2.3942141648729729e-11  8.9784317914044752e-11  1.9905565423896531e-10  4.6564616143817328e-10  3.6516953226518053e-11  3.6844017656588154e-11  4.6112817479022103e-11  1.1646197990659446e-11  2.2871024563319882e-11  1.6866130211779954e-11  3.5239829686257171e-11  3.7889053918255866e-09  1.7209144886883696e-11  1.0674080263093148e-11  2.2149095327659447e-11  3.3679631861272713e-11  7.8961133499045023e-11  2.4707116239586180e-10  2.9509236623090128e-11  3.2821958417149440e-11  2.7757133815220872e-10  9.2057928126643817e-11  3.6557627798228258e-11  1.3045691313226016e-10  3.8148860576773001e-11  1.5525574315450156e-09  7.4712085296435322e-11  8.0048392412403961e-11  2.1721709221256213e-10  5.2470380376677837e-11  1.4514724733647664e-11  1.3263179713948968e-11  3.2574125108506742e-11  2.1371603010689511e-10  2.8695317975869407e-10  1.5477519038786805e-10  7.1737350129922411e-10  7.9888903500320699e-11  1.0255861136528135e-09  7.5712211099240871e-11  1.4970036562985829e-10  2.8403730296198166e-11  3.6107360750709516e-11  6.4916982749416016e-11  2.1411080346266458e-10  2.0131421153499479e-11  1.6280769904572225e-10  5.6421370986722207e-11  2.7033463261427034e-10  1.7237674296478183e-11  2.2099884275545785e-10  6.7834890932766901e-11  2.0525305709974878e-08  4.2513342129847440e-11  2.4943942698041706e-11  2.1482082738306081e-10  3.0829052207292729e-11  1.4504279735195039e-11  3.6863216279577093e-11  1.0298985168565120e-11  1