<?xml version="1.0"?>
<VTKFile type="UnstructuredGrid"  version="0.1"  >
<UnstructuredGrid>
<Piece  NumberOfPoints="4852" NumberOfCells="9430">
<Points>
<DataArray  type="Float64"  NumberOfComponents="3"  format="ascii">-1 0 0  -1 -1 0  0 -1 0  0 0 0  0.9999999999999999 0 0  1 1 0  -1 1 0  0 1 0  -0.5 1 0  -1 0.5 0  -1 -0.5 0  -0.5 -1 0  0 -0.1608775713298009 0  0.9999999999999999 0.4999999999999999 0  0.5 1 0  0.1967448868031411 0 0  -0.3403553108316783 -0.1757616589248417 0  -0.3363950958639657 0.2240240229510871 0  0.1739928589189103 0.3458222785668872 0  -0.1847159190527967 0.5546337323464114 0  -0.5035330893041707 -0.5373502595553722 0  0.4905107756099026 0.2569835453079113 0  -0.06414872672357923 0.2007580836056126 0  0 -0.5061325913258391 0  -0.25 -1 0  -0.5608645669087373 0.5770984432190379 0  0.6614038003992955 0.6336949788538004 0  -0.1765618569015205 -0.5377301551892925 0  -0.5385568766683883 0.02541194551547934 0  -1 0.25 0  -0.2058489078560316 0.02373430214975342 0  -0.6541843609905812 0.3090783764010757 0  -1 -0.25 0  0.03925837683794809 0.5913599555964016 0  0.1951367413231494 0.128682305336101 0  -0.1361214729144276 -0.2199131797067206 0  0.3710019789814051 0.6142056612449923 0  1 0.25 0  0.5355652144809806 0 0  -0.75 -1 0  -1 -0.75 0  -0.6447924996591047 -0.3229574647280227 0  0.25 1 0  -1 0.75 0  0.02757118475249542 0 0  -0.25 1 0  -0.75 1 0  1 0.75 0  0.75 1 0  0 -0.02898318711980711 0  0.05431379178750469 0.1420406013341245 0  -0.07757080965550921 -0.02780914708850195 0  -0.7008484854558417 -0.1323515327824802 0  -0.3213046475614793 -0.3472800041989234 0  -0.3397448860913412 0.4370119448886696 0  -0.09980156238184623 0.7640245103668686 0  -0.3827458963587633 0.7023784616017993 0  -0.05463372472541891 0.398536585763574 0  -0.07872722746499869 0.07183775526184626 0  0.3589499869891143 0.3693151211875483 0  -0.7157679629566839 -0.7297954903764932 0  0.4118644416841241 0.08985483730848041 0  0.6899618911970629 0.1916252350552123 0  -0.7472014468350772 -0.5268185388965785 0  -0.3874083127811416 -0.7105303858980807 0  0.7215724332953841 0.4185389115025276 0  -0.7757917606104211 0.09690580430604701 0  0.1966891868584765 0.6983846743594889 0  -0.1983366818046302 0.2881631569452697 0  -0.7986571429515307 0.5771537837193516 0  -0.7164001152899767 0.7661302890127101 0  -0.05194930244887854 -0.3735000396654709 0  0.5845643525622526 0.8163844642352145 0  0.8202415221231512 0.805730558611587 0  -0.1063694175773506 -0.6973107626489599 0  -0.5141208230889299 0.1625203544098176 0  -0.2014938461433394 0.1254531440311365 0  -0.3587951221882354 0.07523855402161665 0  -0.3647799875324155 -0.05235502746162757 0  -0.4961911591228194 0.3947311195423812 0  0.375 1 0  1 0.125 0  -0.01176379051173168 0.07110723809877506 0  0.06223600406816911 0.3914804939740986 0  -0.1711434239737951 -0.1223921282088214 0  -0.2425809448401297 0.7734786298489222 0  -0.625 1 0  0.533358888458343 0.4541137117479096 0  -0.5757761711126287 -0.8299954644812876 0  -0.2575494680817171 -0.783589286769816 0  -0.3195656911991343 -0.5083722691206322 0  0.8339462800212261 0.595135787364787 0  -0.5482817447342233 0.7906254142542519 0  0.125 1 0  -0.06734770115786506 -0.09341217325204185 0  -0.4941994787873353 -0.1432084721146443 0  -0.875 -1 0  0.02960292651797279 0.0415311789436862 0  1 0.375 0  -0.875 1 0  0.05732471291733496 0.7937662269137641 0  -0.1958767430783299 -0.3736757416254561 0  -0.07262481166336553 0.5707316153117203 0  0.2364554136299484 0.5176223602720763 0  -0.7920829175396203 0.2292323165623463 0  -0.4948303255725471 -0.389002385946782 0  0.0002662041028002432 0.2708211787507731 0  0.5098092920728033 0.6400082620536983 0  0.3987428044927639 0.8071922340225018 0  -0.8059475724796837 0.4241581503821893 0  -0.06425839939432162 -0.220515636864795 0  -0.7093365365601981 -0.01415295613590327 0  0.09054619879371356 0.05238317740816394 0  -0.4778140384530945 -0.2512394331947339 0  0.7238456853398203 0.0828703352312949 0  -0.8084215275757186 -0.4109267212365947 0  0.3375630298154509 0.1534614295744888 0  -0.7942914707135836 -0.2507169228026658 0  0.2363667697821215 0.2541111409668739 0  -1 -0.8750000000000001 0  -1 0.875 0  0.1843372501913765 0.04782427088097754 0  -0.2471714759207158 -0.229139941247429 0  -1 0.3749999999999999 0  -0.1708222553119046 -0.04176701236466018 0  -0.6484558285294282 0.4671638853986723 0  0 -0.07736776745332727 0  0.08051605202374222 0.2596110079520507 0  -0.375 0.9999999999999999 0  -0.2164975855608942 0.4244602390351047 0  -0.1197938958424024 0.1499555787369807 0  0.1332521676770974 0.5538848908786923 0  0.1320040740125187 0.1935673286250143 0  -0.4743401987365438 0.269286837397392 0  -0.04608584766539682 0.0138747899709149 0  0.8514251815914945 0.370165521351033 0  -1 -0.125 0  0.2855058573244523 0.836753127397135 0  -0.1104825614469942 0.3127458401114819 0  -0.125 -1 0  0 -0.7575037395175259 0  0.07821397079968176 0 0  -0.9999999999999999 -0.375 0  -0.375 -0.9999999999999999 0  -0.625 -1 0  0.7474787146812756 0 0  0.625 1 0  0 -0.2918843213980812 0  -1 0.625 0  -1 0.125 0  -1 -0.625 0  0.3284075310660084 0 0  0.004929205892015135 0 0  -0.125 0.9999999999999999 0  0 -0.006571003003944568 0  1 0.625 0  1 0.875 0  0.8750000000000001 1 0  -0.5623832287071808 -0.6762724249352337 0  -0.004558174855624252 0.160024336952218 0  0.3623981426554445 0.2629586636374209 0  0.6529714925402322 0.2939322307325591 0  -0.8545671469967291 -0.6464155964859123 0  -0.8632753640978014 0.7869187487123533 0  0.4304494262392634 0.5012369739565034 0  -0.3982534628612017 0.8557089268997393 0  -0.7785693920357724 -0.8747280111857194 0  -0.8703648634195901 -0.7842130959339805 0  0.1541014861144149 0.842100702045814 0  -0.6582508765725974 0.1525709595417958 0  -0.5773341257065979 -0.06411573389493548 0  -0.8544425012879546 -0.06254158876068021 0  -0.295550002869111 0.5619517780896695 0  -0.4232513750231182 0.5697027709413328 0  -0.3756329774521247 0.3308200732787795 0  -0.618095867247033 -0.216314067928087 0  -0.2725599846129982 -0.09004466587546871 0  -0.6397911817949894 -0.5883942841028748 0  0.8597139595597987 0.2660304817106118 0  -0.03276044433120963 -0.03294624508750154 0  -0.05458369539691358 0.1144240411562478 0  -0.1334419304878995 0.4317627274162302 0  -0.1195887900112223 0.03233832521491283 0  0.5377655342828704 0.06462238703203131 0  0.579223101245374 0.3593332905891684 0  0.6912414201209502 0.7746890484514396 0  -0.7932494309025434 0.8810514401340861 0  -0.6430289451657942 -0.4290958835246767 0  -0.1167620281096031 -0.3971123838122502 0  0.8721963941041297 0.4886465067617251 0  0.07601232181527701 0.09375042187442841 0  -0.6643938845463916 0.8680392564041016 0  0.4546483453486323 0.3506079268513481 0  -0.02621207295967215 0.03576769667931633 0  -0.408830088083263 -0.4402237262140039 0  -0.3615378211389352 -0.2688183380157596 0  0.3235410012791186 0.4816585242813672 0  -0.1957545069067107 0.2013383562794222 0  0.7056146265792014 0.530846725325928 0  0.2618425470602564 0.3559516604176569 0  -0.3765071238325924 -0.8518002420568432 0  0.1092021470435805 0.6818733147077878 0  -0.2848373868078845 -0.6119625927166752 0  -0.4410560346059693 -0.6200231531059448 0  0.2961438037647149 0.6922228386345116 0  -0.8748232079862305 -0.174731671282922 0  -0.1798949285473931 0.8548484932367849 0  0.4547665616120579 0.1634206742516663 0  0.2803002386826279 0.04667038027078449 0  -0.142105785186673 0.6573423958181467 0  -0.01127195530196961 0.7085294415473481 0  -0.05329884158681874 0.8749344874804506 0  0.00553587833116299 0.4696447322958885 0  -0.3873613728886491 0.1534057762544148 0  0.5491671245842964 0.1332785596753405 0  -0.4755023576493467 0.682302232198036 0  -0.8513998440735505 0.3326662273555168 0  -0.09196607852416445 -0.5363157125214145 0  -0.02887843923559526 -0.552122290584136 0  -0.2133777352729679 -0.2877354643812535 0  0.8684870360591302 0.1515589179989479 0  -0.1700234966645968 -0.6610228080990934 0  -0.8891867414302718 -0.5283489984089624 0  -0.2813798465366969 0.338147412755774 0  -0.6760089784554389 0.5739535751886318 0  -0.8973830204307832 0.5312962133375029 0  -0.8982789326682942 0.6608028930276421 0  -0.644170374906226 0.07233976573611933 0  -0.8590268486744927 0.02854014791983531 0  -0.8880766755836131 0.1678504797336676 0  -0.129901405045767 0.2288028863663315 0  0.1604056647697573 0.4460607822069362 0  -0.0434957620040988 -0.1257861006112346 0  -0.7532173270676314 0.6699125538883676 0  -0.6021368087604317 0.6978636572524847 0  -0.2541450148561115 0.07849432306315035 0  -0.2490328048019756 0.6486954935359002 0  -0.02737813636668309 -0.006383227724287563 0  -0.4941662153163782 0.8769583315109384 0  -0.4765229322222151 0.4903825065562236 0  -0.2901666229917636 0.1439824540478671 0  0.002320399333540529 0.02358189967507446 0  0.7794693367890604 0.6835621413103897 0  -0.4697194243286735 -0.8246994823475703 0  0.2719875896138915 0.1949550478373275 0  -0.148857378078999 -0.8632945559011765 0  -0.06578968940711259 -0.8297743670034371 0  0.4432916391159628 0.7059620971300019 0  -0.1172722049495633 -0.2882856483536569 0  -0.2646732479659721 -0.02617933205617326 0  -0.8937499950676066 -0.8964497436336898 0  -0.5726684625519332 0.2370761758164916 0  -0.4758967385058064 0.08755099363820355 0  0.4911053414724982 0.8257929357409511 0  -0.02844749236281116 -0.2601936962710809 0  -0.3098727170304515 0.8753113021679948 0  -0.1428184438660678 0.08046011446839874 0  -0.4690580160905233 -0.03488773638220295 0  -0.3877273177674577 0.01212013668691156 0  -0.2914842925397775 0.02755518252030013 0  -0.384672399859004 -0.1204461530052699 0  0.8881518162468685 0.6979896436487331 0  0.7925794940285541 0.9106808312628142 0  0.5766410010007637 0.2080375713432385 0  -0.5598455425370551 -0.4693087318117538 0  0.5987924348596775 0.705973994996925 0  0.6781455422814613 0.8883011388429916 0  -0.05087614507831456 0.3029750085071886 0  -0.902125133852287 0.9046185165427101 0  -0.1273567347856046 -0.06712805046607015 0  -0.1688226819153108 -0.18260504037972
[...]
<PointData  Scalars="w"> 
<DataArray  type="Float64"  Name="w"  format="ascii">1.7494077080218095e-10  1.0368749886492578e-11  4.4502051167292908e-10  2.5760023410936315e-09  6.2414166669178717e-10  1.5677560989229910e-12  8.6840095996090768e-12  7.5067996675571860e-11  4.0648464903204277e-11  2.1137724099634324e-11  1.0787748207772719e-10  9.6116166616962790e-11  4.0312767734078896e-10  2.7693001671078772e-10  9.1519100757237705e-12  5.2460109114185162e-10  9.1079883686834572e-11  7.2376517910730170e-11  1.3077848466552175e-10  3.5616334652701455e-10  6.7169760643554235e-11  1.0448697128534095e-10  5.7485621283210107e-10  1.5555014199851935e-08  5.7775384839260711e-10  1.0864904608994898e-10  8.8876521560141206e-11  1.7014407506309700e-10  7.6713435816817188e-11  1.8847630191536754e-11  4.6893718703410620e-10  9.8094111142338508e-11  2.4331264306257013e-10  1.8109793632844666e-10  4.5449264937395127e-10  2.2576815156174806e-10  7.8128445775812160e-11  4.7755860060522543e-10  5.8709783805919912e-10  3.1271147425894407e-11  5.2678098781392320e-11  1.0812244524833998e-10  9.2701916389473359e-11  1.9803734483188791e-11  1.0479692300513008e-09  8.8232931443129424e-11  3.2115387126523725e-11  9.6446696113629251e-11  1.2401498616423151e-12  5.8824624811313708e-10  2.2082468865643129e-10  2.1364269457578126e-10  8.2601430846548829e-11  2.5242717381080933e-10  2.6056259145868150e-10  2.0472603642989581e-10  3.5753624529203690e-10  8.9395494889800401e-11  5.7902377956421397e-10  2.5176340478825690e-10  3.1333527291768132e-11  3.1478129713520173e-10  3.7866216785569433e-10  1.4410111615282890e-10  5.4119491299698793e-11  1.7803141060072289e-10  7.0853466574718657e-11  1.7834846533365756e-10  2.3333074836757027e-10  4.6125845860782433e-11  6.4825174546164188e-11  4.3098691535888977e-10  5.6796011816647991e-11  8.8252507607601950e-11  1.7217204098894002e-10  1.7063296561734770e-10  2.5722795427352495e-10  2.9096512643051501e-10  1.8293269241682837e-10  1.9542871228170708e-10  6.5184058481559716e-11  2.5232640591500466e-10  2.6253454674229849e-10  2.0140078294737171e-10  2.3435338924403238e-10  1.2491584412986785e-10  4.6813293145437208e-11  1.0987666076950164e-10  9.4672816677923320e-11  2.5240257254087292e-10  6.9297980792555433e-11  9.9294062047510598e-11  7.8455351910688597e-11  9.4647439551891369e-11  3.8947535992683152e-10  2.0993656701250528e-10  2.5575210116159543e-11  6.5216329013128744e-10  2.5666503522105405e-10  3.1711498772308131e-11  2.7745857233793814e-10  4.1290810055407937e-10  7.1222655164258413e-11  9.7328342399917128e-11  1.5737789076553967e-10  6.3879055997469591e-11  2.7410911012734540e-10  8.3346183142805768e-11  1.4687026740375263e-10  6.6183807153862901e-11  3.1152534160435318e-10  2.4729181103857709e-10  2.3169361705489307e-10  6.4478494407215608e-10  1.2101525171710523e-09  1.4987712941858381e-10  1.6523992390907070e-10  1.0285206248920599e-10  4.5886372132711692e-10  2.6006612823706116e-11  2.5746305795996712e-11  2.7787749011632213e-10  9.1586881188610188e-11  6.1418653535177815e-11  5.0245822447695415e-10  5.7664533798091770e-11  5.9630401690637048e-10  1.1875141817532872e-10  7.7228863106121661e-11  8.2785259508072546e-11  3.4255190720454390e-10  1.7324405964884281e-10  4.6527922465341771e-10  1.3550785477786361e-10  6.1961880500449017e-10  4.4382397963661436e-10  1.0937518178901277e-10  5.2174384379409177e-11  1.3016771307892052e-10  2.5689880172490985e-10  4.2954726775193063e-10  6.0318044742827626e-10  9.3166517627318718e-11  1.1957095168516972e-10  6.8997986995088604e-11  6.5636159504994803e-10  8.6316747109936887e-11  3.3324836551535210e-10  1.4824480801101280e-10  1.2443493729435876e-10  2.0107561043314754e-11  2.8322430371084194e-10  1.5706769460921443e-09  5.7159394976426483e-11  9.5876379809839891e-10  7.9211781242109449e-11  2.4627483434532191e-11  2.4365094579982747e-11  1.2199013551886472e-10  5.6076483434767324e-10  4.4514055267401864e-10  1.6104947477943499e-10  1.1538836486619176e-10  1.6770289720276871e-10  1.8723109797123354e-10  5.8782456197032870e-11  7.8041855145098647e-11  2.0477822837618123e-11  6.0216411170270207e-11  2.9545825879127885e-10  9.2490090839604603e-11  1.0632077373259078e-10  8.2958824509961303e-11  9.6584813593121597e-11  5.3446915792869190e-11  9.6015849099414078e-11  4.5623729242665762e-10  5.7032286375512375e-11  1.6410942495895105e-10  1.7139732021079230e-10  4.6409551578331239e-10  1.9853079073075430e-10  2.8287072460633601e-10  1.4296174360276457e-10  1.4488890394790250e-10  1.5033598262340595e-10  2.1156460449312921e-11  2.8725699284764063e-10  6.5401430743806837e-10  2.5605114099488760e-11  2.5143979213109117e-10  8.9541417090630191e-11  1.5776711905805302e-10  1.1068288313683465e-09  1.3733803100655300e-10  1.6388215664022460e-10  2.3385013973339439e-10  2.8800128632211966e-10  1.0604832416364422e-10  2.0470441976076202e-10  4.2018490402910174e-10  2.1894329120160094e-10  2.3932248206897873e-10  1.1008132282306735e-10  1.1273406137078406e-10  1.1335938439689389e-10  7.1400769043798145e-11  2.0835841088952764e-10  8.8454868346121260e-10  7.8291764546680415e-11  1.0882506193944568e-10  7.7798596667167935e-11  9.7095983605308290e-11  1.6259115414726207e-10  3.7724483412274008e-10  7.9472259692686942e-11  8.5389003482435969e-11  8.0497297537499125e-10  9.2218069049707887e-10  2.9286452376068756e-10  1.9990018311417208e-10  7.6523250260416580e-11  8.1112947651669398e-11  3.3699798072870504e-10  5.8953810520366531e-11  8.3779523014160644e-11  5.0388152576479487e-11  9.3534396417828202e-11  4.1563333521493648e-10  9.0812814403057031e-11  1.9767113563485571e-10  1.6636616584751508e-10  9.0073454380492474e-10  6.2075157241744539e-11  1.9955117931173272e-10  1.1546898656160721e-10  1.1265283873735928e-10  7.4492768153776323e-10  7.5445277360553013e-11  8.5458718647759843e-11  1.1825590148232226e-10  1.1068348838156281e-09  4.1128143408091376e-11  7.8043276483592250e-11  2.7908122269883948e-10  2.5198346974805437e-10  3.4655703207314498e-10  1.8280092025833419e-10  2.0438073881626379e-10  4.0469823042707618e-10  2.9572980518064642e-11  1.0568812976683567e-10  1.2845962766925722e-10  3.7706472831819885e-11  2.6938960849116555e-10  4.4106330237495300e-11  3.3377110317069239e-10  1.3631819263438884e-10  1.1058963992480934e-10  1.9178613233938880e-10  5.0333816025747270e-10  7.3293375963885266e-11  2.7056989674619442e-11  1.4480869071996409e-10  8.2298456796772552e-11  5.9571532329072339e-11  7.6418454712922315e-11  1.7935963650926898e-10  4.9568131958914033e-11  2.6371228635054912e-10  2.5453643437161754e-10  1.2914207209069499e-10  1.2866415009014684e-10  1.3778087197712858e-11  7.1556415327806818e-11  1.4651716025862494e-10  1.6915024578953781e-10  4.9731206609127478e-10  3.7024213237211244e-11  8.2227910375521547e-11  3.3575226901968848e-11  2.3880084073149646e-10  1.2611305560840251e-10  1.8563222668310453e-10  7.5317340181689828e-11  8.8182214243179182e-11  1.2089193108192802e-10  2.0325672677613991e-10  2.2390675289701285e-10  2.6177684366041089e-10  4.3771211573891185e-10  2.1449633453996419e-10  2.0991831797011674e-10  1.4510678888896910e-10  7.9934899719981152e-11  1.7127953088282407e-10  1.6570699701776821e-10  6.2422155501646518e-10  1.2960415982999471e-10  6.2478396021173063e-11  4.0698860416691631e-10  1.8971878438532483e-10  2.0883899798922657e-10  1.2472329042188820e-10  3.2837545559867463e-11  4.4962387858961060e-11  9.9200639246886973e-11  6.8057371461070871e-10  2.9301361870315720e-10  1.8120224490172203e-10  1.3684878247565659e-10  3.3447971768309410e-10  6.7466691665654608e-11  1.0959803002132156e-10  3.5222200597484433e-10  1.4592634495955307e-09  9.9262026846014489e-11  2.8259939008538314e-10  6.1275033119429216e-10  1.2284814835608924e-09  1.9715685002668239e-10  1.5263363514443707e-09  4.1846749170450397e-10  2.2595991523771423e-10  1.1611964961180949e-10  4.1976026634776580e-11  6.6250667888395178e-11  1.2673316869756333e-10  1.5714107161591950e-10  6.3984014235516970e-11  9.8919795941393612e-11  1.0725457513079683e-10  1.2816567331682683e-10  1.9246890661178491e-10  4.9708715635912912e-10  3.1907478399581001e-10  1.6638541232566242e-10  9.6301338789489511e-11  6.1923394993856484e-11  5.9291817148652103e-11  7.0832900134868745e-11  1.8250354998355018e-10  2.2720781533424771e-10  1.0631544866702419e-10  1.0594041447176573e-10  2.3959154170353921e-10  1.3667383990388601e-10  6.9890969350862203e-11  5.9740354472761149e-11  1.0565278320260820e-10  3.4387303489748480e-11  1.8710531752161605e-10  3.3011303524392500e-11  1.6116761727962813e-10  1.7939881124591313e-10  1.5208677992453028e-10  3.9974505725721158e-10  7.9732863846737538e-11  8.3478319136330168e-11  1.4523059719119605e-10  3.0795537835144138e-10  1.4380478887763445e-10  2.6347144244090920e-10  1.1110237067397668e-10  1.3596119699563960e-10  1.5745681843773075e-10  2.7930707903184130e-10  1.2761751419648739e-10  3.3838952584562179e-11  1.1783260292667037e-10  1.1245959552511784e-10  1.4862480136743745e-10  2.5353034228075648e-10  1.7118037318601152e-10  3.5122590832698857e-11  1.2993855020122088e-10  2.3117429672424754e-10  2.9317844532020906e-11  3.3062306586603178e-10  1.6386347561793009e-10  3.8892585303520111e-10  1.1266157076606961e-10  2.3726263474597601e-10  3.2594499352475986e-10  7.5991273938143756e-11  1.0572782943537023e-10  2.1830706343947512e-10  7.3858016310810591e-11  4.8275427255450052e-10  1.6009265126213082e-10  9.8565203166592423e-11  1.0881248662252823e-10  2.0981330724373174e-10  5.4158802481729191e-10  4.7717384169928050e-10  1.8047448779658709e-10  1.7223387973309648e-10  2.0868613070901565e-10  4.0256343399867461e-10  4.5708904752261731e-11  2.2608448841874329e-10  8.2333578504688572e-11  1.2395850723485192e-09  1.1849901349974238e-10  4.6225445757613281e-11  5.4976663987602525e-10  3.3178284505642853e-10  2.4744936619188653e-10  2.1076903432958255e-10  6.4347903792450143e-11  1.5393327863903331e-10  3.3635514429027107e-11  4.3871930426171232e-10  8.2480854123661935e-11  1.3840163345297513e-10  1.2772229464411672e-10  6.6340012059259705e-11  3.4886704332792592e-10  4.3450752137903995e-11  1.1837335046126373e-10  2.4525349028377847e-10  1.7922049281013488e-10  7.1264738056812970e-10  9.2733373433237514e-11  5.7605179997699946e-10  1.4801140882261949e-10  3.5438243826300409e-10  5.4829257748203625e-10  2.4407922119168916e-10  1.5528167675702568e-10  2.7222446776158921e-10  4.8009811063908107e-10  3.4427553075433854e-10  7.5761773079786470e-11  4.9524620338603222e-11  1.6368560914719133e-10  3.5657096060394398e-10  1.8661062091411751e-10  1.2728552789054595e-10  1.7184437660305012e-10  8.1510928701810693e-11  7.1575907888050258e-11  1.9957945949975071e-10  5.8252574086434227e-11  2.0755288746149605e-10  9.0821377504381795e-11  4.8020520074624705e-10  4.9607157567210090e-10  8.2114946057481440e-11  4.1991572294079230e-11  3.9743271622237643e-10  6.4869385770093182e-10  2.5917442565032956e-10  9.8421676532824502e-10  2.8826850128637009e-10  3.1724446275620592e-10  2.7236780001570887e-10  2.6608234109182305e-10  9.7752478226124109e-11  3.1443613691599618e-11  1.9454142649086011e-10  1.0653311274509765e-10  2.1557933820059328e-10  7.5501283589837765e-11  1.2374194663105436e-10  2.0375679713692766e-09  1.7706019090848655e-10  8.1146686531687540e-11  8.2578454164352374e-11  3.9911652276657186e-10  2.4321537415811241e-10  1.8992641541278819e-10  2.0831389235929210e-10  4.4803119718537535e-11  7.5674850208658919e-10  2.4216701053854165e-10  5.3414333451828211e-10  2.4869867818479908e-10  2.4287104263466444e-10  3.1211474671969424e-10  9.4497551179134413e-11  3.3163972543488239e-11  3.6234123039886135e-11  3.6790900351430523e-10  3.6231075107729322e-11  1.1738561431178400e-10  1.0189633225581361e-09  7.5264263824158940e-11  3.5081719983722406e-10  2.6293289619420123e-10  6.2049610169970484e-11  6.0212643831759418e-11  1.8003346517738260e-10  2.4536002497754947e-10  4.8552615709237556e-11  1.1357052569486726e-10  1.6124495308197630e-10  7.6054116552370246e-11  1.7014259656236843e-10  2.1218295371508801e-09  3.5054086444797992e-10  3.1969837855052755e-10  1.0697065899552551e-10  1.0788790492340896e-10  1.8840570428936701e-10  8.0606466303668183e-11  1.3445445827868228e-10  4.9925553507185041e-10  8.7195355646577158e-11  2.4261526114329633e-10  2.1534501318427084e-10  1.3911146940268180e-10  5.1545037200605009e-11  7.8179893319592815e-11  5.5752656875184394e-11  3.7482093307487173e-10  1.0664762216419160e-10  2.2139039298974731e-11  5.7088802894433286e-10  3.0800296717631658e-11  6.2119728604714850e-10  1.1712109193103986e-11  7.1085295634507944e-10  1.7463533465817897e-10  2.4833515619541740e-10  1.0504563465024755e-10  2.8856625156458552e-11  8.5536304740494962e-11  2.8075575086880476e-11  2.0692024363412300e-10  3.7257362325071019e-10  2.7165910840016118e-10  3.2703806830347017e-10  1.3411393116552385e-10  9.4606310230207944e-11  6.3782267342125503e-11  3.6069135365765633e-10  5.0280571253431489e-10  1.0585008326116721e-10  1.0089993205926746e-10  1.4709674936622374e-10  7.6619162087899557e-11  4.5790217020650286e-11  5.5101933301449696e-11  3.2270024044738073e-11  8.8755263203752261e-12  1.7868073585267828e-11  9.9071474471179368e-11  2.2524664194160780e-12  1.1071148250078465e-11  1.8585741923984454e-10  3.4910645271444454e-09  2.2547850382516876e-10  4.2645758724265537e-11  2.2064858716186219e-10  9.3329740119314090e-11  1.1255482725739008e-10  4.4028565021646839e-11  1.7175425912050188e-11  8.8398948903597884e-11  7.2661972943395954e-10  7.9935713888092304e-11  1.8346051600349126e-10  3.2373201151342147e-10  4.8477618792996329e-10  9.6517876837648721e-11  1.0179598451229504e-10  5.8510268165368345e-11  7.7147610354634472e-11  1.1269565131169756e-10  5.7635503143565534e-11  6.0808297464340673e-10  5.9241791562754106e-11  2.7792852150828378e-10  8.8343945756600675e-11  1.2797472559799749e-10  3.1213082115052646e-10  4.1631538619186020e-11  6.3442819732977324e-11  2.8747716005700281e-10  1.1972130520692077e-11  1.1351525272716805e-10  8.8497056207759877e-11  7.6978343638948680e-11  5.6184534618304077e-10  1.6145506208863305e-09  2.9444945193367968e-10  2.8909283378788303e-10  9.0880119174045223e-11  6.9380815814898204e-11  2.5510707496980306e-10  1.1769531995111097e-10  9.9778412741175379e-11  1.0487797847303379e-10  1.9878035297784007e-10  7.4217048471104063e-11  5.2855729575598452e-11  7.0811694444851356e-11  3.9877088186535660e-11  8.6757346846920514e-11  1.9143088031203607e-10  1.6226487825251891e-10  1.1187136484602328e-10  2.7497064183854823e-10  4.7321675726318010e-11  1.3617640440230995e-10  5.2197684869675959e-10  6.6920879330394584e-11  1.1822779568540151e-10  1.3453786012238916e-09  5.8343225802867444e-11  3.3673882748979095e-10  5.1146743141357404e-10  1.5817176024601757e-10  1.2859748890985912e-10  1.2590945910791929e-10  9.0326833313954334e-11  2.4746074498707334e-10  2.8605340127344792e-10  1.7752472885513814e-10  4.6806233878265103e-10  4.2300108253563334e-10  1.2182628773542570e-10  2.1109557721251195e-10  6.6709726676691584e-11  8.5069907359200197e-11  6.2784085195316227e-11  2.4005047494322523e-10  4.0065462508918820e-10  3.0782902129130291e-10  3.2482019411347374e-10  8.6181844882017606e-11  2.2768401144677618e-10  4.7956792706580685e-10  1.7168928220403073e-10  4.8168679397466528e-10  1.8372310430885822e-10  1.3837284507356181e-10  1.1169241945432609e-10  5.1353658094196615e-11  5.4475672625869568e-11  3.3070354728547344e-10  6.2941279924892020e-11  6.4696920384025940e-11  1.2960784121980515e-10  3.2165594561268475e-10  3.1895819774629694e-10  1.5766632499869078e-10  1.1767960387124273e-10  5.9059243607941850e-10  6.2803135779322710e-10  1.5957893285736280e-09  2.6759150789027007e-10  1.9870572095919421e-10  4.4261674305576480e-10  4.5566077819566112e-10  1.1651884884594858e-09  2.9673263267771030e-10  2.4662597710403751e-10  3.3155380188082551e-11  1.2966524749761715e-10  3.2588497937437355e-10  4.9759847896365816e-10  2.1232917246153400e-10  6.6355920463216147e-10  3.0561405924961559e-10  2.1620870928039094e-11  4.8222770688220142e-10  3.3311393949534277e-10  3.8803838161217130e-11  3.3433974664186336e-10  4.1403917521628467e-10  5.4444515286255511e-10  1.4579090950636807e-10  6.7232051147919602e-10  1.9585294176235422e-10  4.7522613875920722e-11  1.2762119253935752e-10  1.3291931446809091e-10  3.1541705488212826e-10  7.9111491340893150e-11  2.6465808391928868e-10  1.9602762902741686e-10  8.1948002722962559e-12  2.4508218906409516e-10  5.8110633259325972e-11  9.0376534447852274e-11  1.2413631866589144e-10  6.3182625676658507e-10  4.1166392032410688e-10  3.0404682092232267e-10  1.1718532339624516e-10  1.3239810777863618e-10  8.9856206297976060e-10  5.3920279741705608e-10  1.3456769237055597e-10  1.4252844540640893e-10  9.3585168768413526e-11  4.8837147943418159e-10  1.3892652622693809e-10  1.7494252342350172e-10  9.5200347577733098e-11  7.0658249698070510e-11  6.3433323371506387e-11  1.4947888011142866e-10  9.8337345451309166e-11  1.2920090780402702e-10  4.3395084599746637e-10  7.7145336432320605e-11  5.9529527855681154e-10  1.2724547267696389e-10  2.2444420385035879e-10  2.8109558254942209e-10  5.4885713448764057e-10  1.1651776350322557e-10  4.1128589374958862e-11  6.3200949464320463e-11  1.4215401363192375e-10  1.5917751149470227e-10  5.1682453745668322e-10  8.4438711078145362e-11  1.6298609764809765e-10  2.5258892887772130e-10  1.3774639745396869e-10  2.3606779108873271e-10  3.3203089430792315e-10  3.1183715158830367e-10  1.0508014591589430e-10  1.7471097324780224e-10  1.4906049883950061e-10  2.2842201372156768e-10  4.8127113392125352e-10  3.7386728263240020e-10  2.0186804987303501e-10  2.0561197102803101e-10  1.2562700283096351e-10  1.7254405841571335e-10  3.0015381377367246e-10  3.8078967605495150e-10  3.6139637736222465e-10  1.6609761209901878e-10  2.2026383464481365e-10  1.9474666410847126e-10  1.5430399190320457e-10  3.9880700316857925e-10  3.1823619166693477e-11  1.0558412902558242e-10  1.2689236006623308e-10  8.7428294349179170e-08  4.0737945246229606e-10  1.7647597254565654e-10  6.1158821781586220e-11  2.5711685275937094e-10  1.3802718629441248e-10  6.4651483030683296e-11  1.0568572842437982e-10  2.0270885370078694e-10  2.0634318400375709e-10  1.9550550939238493e-10  1.8939957362158192e-10  3.0969512857020538e-10  6.5509185390408611e-11  8.0288954881803528e-11  1.9160107566214828e-10  1.2255924737370906e-10  3.5481477551427899e-11  4.0285422754488848e-10  6.4830297534014912e-11  6.1945162389562741e-11  1.9407674385450193e-10  9.9356966548638630e-11  2.3703693056978818e-10  2.9232854322909135e-10  1.5662511353077649e-10  7.8499689469951907e-11  1.8800802239488534e-10  9.6515558791785000e-11  3.2791558988745373e-11  9.0811671864168895e-11  5.8303212736140314e-11  7.8768007707776881e-11  2.2505694918044179e-10  4.7431378498412371e-11  6.6416524309508146e-11  9.4742720483560578e-11  9.3960672323340279e-11  9.4137957482492565e-11  2.5420755533187252e-10  8.7791904944962216e-11  1.8441774817484423e-10  2.0219344716335670e-10  9.9390780169292248e-11  1.6085332899322668e-10  3.1517173942691222e-10  1.2437025109608902e-10  6.1477865103351720e-10  1.7106745230543377e-10  1.4960837410872686e-10  1.3878246208568218e-10  2.2859222675608515e-10  4.4225774882749070e-11  4.0040251759147890e-11  7.7111193436623722e-11  4.3380137292795503e-10  2.0017660691610950e-10  6.3696012762439632e-10  4.4300871554690770e-10  1.2137723914622799e-10  5.4787879949882761e-10  3.6464264561363695e-10  1.8890764247324538e-10  7.1090157039040486e-11  9.3733904730794982e-11  1.7468262347992257e-10  1.8794374137586723e-10  4.1776645579092272e-11  4.8110737524045427e-10  2.7803650910773704e-10  3.0060881066687992e-10  5.3693954459808815e-11  3.5189153563676718e-10  2.6723136977204688e-10  5.7731912736317887e-10  7.3408910572537506e-11  6.1887756658084968e-11  2.3951339478947768e-10  7.2796719935057433e-11  4.2787445259898649e-11  1.4801252593250823e-10  2.4424741578456593e-11  6