<?xml version="1.0"?>
<VTKFile type="UnstructuredGrid"  version="0.1"  >
<UnstructuredGrid>
<Piece  NumberOfPoints="4852" NumberOfCells="9430">
<Points>
<DataArray  type="Float64"  NumberOfComponents="3"  format="ascii">-1 0 0  -1 -1 0  0 -1 0  0 0 0  0.9999999999999999 0 0  1 1 0  -1 1 0  0 1 0  -0.5 1 0  -1 0.5 0  -1 -0.5 0  -0.5 -1 0  0 -0.1608775713298009 0  1 0.5 0  0.5 1 0  0.1967448868031411 0 0  -0.340335381167142 -0.1761196810295058 0  -0.3367268863788482 0.2240302187123123 0  0.1738791260312298 0.3462034059521073 0  -0.1850133864337893 0.554852980222781 0  -0.5032297433796303 -0.5375680099599868 0  0.4905542307499011 0.2570947694739126 0  -0.06440332624608699 0.2010799879233285 0  0 -0.5061325913258391 0  -0.25 -1 0  -0.5610496663039702 0.5770862368660403 0  0.6614185028364472 0.633673027623927 0  -0.175862887883651 -0.5380215274412061 0  -0.5387194233958482 0.0251407621688325 0  -1 0.25 0  -0.206111548667002 0.02368695255453661 0  -0.6543740894137997 0.3089726305536034 0  -1 -0.25 0  0.03902441322713188 0.5916671469423622 0  0.1951766977061229 0.1289166293612168 0  -0.1358781360648311 -0.2201701265479434 0  0.3709463319539799 0.6143843810170921 0  1 0.25 0  0.5355652144809806 0 0  -0.75 -0.9999999999999999 0  -1 -0.75 0  -0.6446703136895522 -0.3232233311362924 0  0.25 1 0  -1 0.75 0  0.02757118475249542 0 0  -0.25 1 0  -0.75 1 0  1 0.75 0  0.75 1 0  0 -0.02898318711980711 0  0.05424230472418213 0.1423607796935392 0  -0.07771233212147902 -0.02780416601035977 0  -0.7008880822482254 -0.1326149988464626 0  -0.3209669384078397 -0.3476577196997838 0  -0.3400485302077165 0.4370949629113879 0  -0.09999555968720247 0.7641515053666049 0  -0.3829785635809405 0.7024222041720913 0  -0.05492207062634618 0.3988798956686962 0  -0.07893408063083522 0.07201256836045258 0  0.3589185106099288 0.3695701554874998 0  -0.7155978894115014 -0.7297988094079187 0  0.4119134211052176 0.08991479476675734 0  0.6900142539033285 0.1915847444447781 0  -0.7470991861148742 -0.5268862161523113 0  -0.3870468519409141 -0.7107056958518643 0  0.7216220739553278 0.4184969191338612 0  -0.7758996058488322 0.09673198185247832 0  0.1965738894147712 0.6986137576655121 0  -0.1986732037318881 0.2883653855170097 0  -0.7987302866992233 0.5771107739041944 0  -0.7164648001604501 0.7661182515881977 0  -0.05126846264801505 -0.3736586836817506 0  0.584567883659845 0.8163803211064263 0  0.8202317316289917 0.8056543346391229 0  -0.1059479251381278 -0.6975109968815273 0  -0.5143611265218558 0.1623581102601947 0  -0.2018096497380413 0.1255445051347119 0  -0.3590707008278207 0.07509471811062823 0  -0.3649342988101766 -0.05262509257752859 0  -0.4964556627180045 0.394698966777615 0  0.375 0.9999999999999999 0  1 0.125 0  -0.01186712018081468 0.07131601276047791 0  0.06202174770839637 0.3918773327098916 0  -0.1711890767731849 -0.1225975228532639 0  -0.2427988765353031 0.7735644761443241 0  -0.625 1 0  0.5333682309880814 0.4541987620230525 0  -0.5755981899613247 -0.8300330063228023 0  -0.2571790762241497 -0.7837071479893073 0  -0.3190211232003666 -0.5086932471841118 0  0.8339658027329819 0.5950845555063495 0  -0.5483981684009679 0.7906239238478192 0  0.125 1 0  -0.06740420188530739 -0.0934771661700643 0  -0.4942394193438733 -0.1435528494880826 0  -0.875 -1 0  0.0295915972790765 0.04166312561098671 0  1 0.3749999999999999 0  -0.875 1 0  0.05720207651313917 0.7939364017213467 0  -0.1952429149211224 -0.3740397875642487 0  -0.0729139094831818 0.5710239426846427 0  0.2363298652282489 0.5179383997581045 0  -0.7921826147193326 0.2290890832604766 0  -0.4946162011899745 -0.3893256969970774 0  4.46180774951824e-05 0.271205381927989 0  0.5098000496564031 0.6400720068818779 0  0.3987234708109985 0.8072688156526349 0  -0.8060386266948244 0.4240919951358574 0  -0.06394398637168537 -0.2206756028241882 0  -0.7094289027616226 -0.01440113661197548 0  0.09057796928763653 0.05253014649369925 0  -0.4777336489861246 -0.2516008802773462 0  0.7238700768424136 0.08283662037388899 0  -0.8083539083217338 -0.4110456824951212 0  0.3376126298954901 0.1536323882586764 0  -0.7942856077013503 -0.2509125796666889 0  0.2363520241028967 0.254438657053429 0  -0.9999999999999999 -0.8749999999999999 0  -0.9999999999999999 0.875 0  0.1843736179780151 0.04793383717491449 0  -0.2470147867907778 -0.2294893507012672 0  -1 0.375 0  -0.1710036010656875 -0.04187366797453219 0  -0.6486021877518229 0.4671088975628132 0  0 -0.07736776745332727 0  0.08037771270073873 0.2600092950322426 0  -0.375 1 0  -0.2168270962006614 0.424658430228232 0  -0.1200826157863009 0.1501813663894444 0  0.1330771500547348 0.5541998430011212 0  0.1319638688069122 0.1939134987965216 0  -0.4746070418254233 0.2692079501745919 0  -0.04620346118944888 0.01396279863576334 0  0.8514774405445533 0.3701022306127751 0  -1 -0.125 0  0.2854657823371659 0.8368607429685698 0  -0.1107955399209017 0.3130505865990451 0  -0.125 -0.9999999999999999 0  0 -0.7575037395175259 0  0.07821397079968176 0 0  -1 -0.375 0  -0.375 -1 0  -0.625 -1 0  0.7474787146812756 0 0  0.625 1 0  0 -0.2918843213980812 0  -1 0.625 0  -1 0.125 0  -1 -0.625 0  0.3284075310660084 0 0  0.004929205892015135 0 0  -0.125 1 0  0 -0.006571003003944568 0  1 0.625 0  1 0.875 0  0.8749999999999999 1 0  -0.5621191388835978 -0.6763672627752825 0  -0.004722127656610801 0.1603592016660949 0  0.362420654318868 0.2631836273865218 0  0.6530299070719442 0.2939163329487146 0  -0.8544677902350706 -0.6463858707546968 0  -0.8633238912163023 0.7869027168321049 0  0.4304236591856082 0.5014152695549523 0  -0.3983935524475674 0.8557801223488261 0  -0.7784727981073452 -0.8747167382341074 0  -0.8702861268444806 -0.7841713828787158 0  0.1540316424419344 0.8422375541694372 0  -0.6584197818244492 0.1523912609897151 0  -0.5774018333084547 -0.06442143557059789 0  -0.8544639511572494 -0.06270235821504105 0  -0.2958297340411524 0.562081779325794 0  -0.4235127891448002 0.5697662409956987 0  -0.3759510287415885 0.3308469678341179 0  -0.6180242095365961 -0.2166291634504375 0  -0.2726772137638249 -0.09030308467204129 0  -0.6395525360953831 -0.5885019117372386 0  0.8597580564922471 0.2659802328595855 0  -0.03282753719263842 -0.03293593605134214 0  -0.05478516942085194 0.1146815078016388 0  -0.1337643125664155 0.4320405922331229 0  -0.119818367172022 0.03240717591633342 0  0.537791666431659 0.06462557686053969 0  0.5792551798962224 0.3593744146360551 0  0.6912464213867991 0.7746431356207307 0  -0.7932391048122739 0.8810910639504529 0  -0.6428514269369057 -0.4292998209651567 0  -0.1159418819553034 -0.3973938640010698 0  0.872233353819214 0.4885936641366166 0  0.07600644901278043 0.09399119349324474 0  -0.6644498479841668 0.8680899829669931 0  0.4546610737195288 0.3507683520828673 0  -0.02630968331946152 0.03589983086001548 0  -0.4084891546547925 -0.4405532207030224 0  -0.3613721008776328 -0.2692016580298004 0  0.3234589740068538 0.4819334600951926 0  -0.1960859460789628 0.2014986496671693 0  0.7056434844988692 0.5308133212699117 0  0.2617744926415761 0.3562848264151207 0  -0.3763014078693671 -0.8519046289599049 0  0.109022889909134 0.6821218916987323 0  -0.2842198437728118 -0.6122369756144792 0  -0.4407052773382097 -0.6202234436070401 0  0.2960800298056424 0.6924069540430368 0  -0.8747961273799749 -0.1748732669878592 0  -0.1800536367153553 0.8549884162510573 0  0.4548157143901966 0.1635141894108347 0  0.2803358008581854 0.046730964002115 0  -0.1423617465674359 0.6575070678895359 0  -0.01148075494103509 0.7087182117155338 0  -0.05339974203642578 0.8750776737512215 0  0.005280543185522797 0.4699931383497246 0  -0.3876621176367207 0.1533147385166968 0  0.5492089900487676 0.1332952150602775 0  -0.4757057650597445 0.6823112354250283 0  -0.8514844142524605 0.3325810711370926 0  -0.09205108413174985 -0.5364901183285189 0  -0.03016017317045674 -0.5523083122608037 0  -0.2130179720791914 -0.288094163883995 0  0.8685180534799851 0.1515143802569423 0  -0.1693903745534838 -0.661269874364103 0  -0.8890833022197474 -0.5283608084319471 0  -0.2817167813369477 0.3382755635554744 0  -0.6761107759857132 0.5739125175693601 0  -0.8974540642222578 0.5312651125003077 0  -0.8983480658099151 0.6607841934728043 0  -0.6443070342384128 0.07210886572078291 0  -0.8590699558422557 0.0283964062819877 0  -0.8881174203751774 0.1677482487170349 0  -0.1302146785523769 0.2290642948240589 0  0.1602416323690877 0.4464362640459748 0  -0.04348473320014418 -0.1258414409729128 0  -0.7532840542574569 0.6698776440347172 0  -0.6022480733510104 0.6978252516534268 0  -0.2544414890047437 0.07846339428140424 0  -0.2492885835777985 0.6488051526933536 0  -0.02744442183787129 -0.006344525719555098 0  -0.4942534379231263 0.8770193122054344 0  -0.4767919403459915 0.4904064420905352 0  -0.2904888107513177 0.1439778936281699 0  0.002285680545197615 0.02366484267347046 0  0.7794779794652981 0.6835032749857015 0  -0.4695189029864063 -0.8247790799119317 0  0.2720195531881268 0.1952137436308057 0  -0.148638528457592 -0.8633096021951823 0  -0.06569178668700455 -0.8298376371587879 0  0.4432653760955631 0.7060535056562577 0  -0.1166425262058267 -0.2885749860987079 0  -0.2648801782205617 -0.02635774928057819 0  -0.8936878814223288 -0.8964231159997782 0  -0.5728970477021208 0.2369426856688732 0  -0.4761298660437689 0.08734489692911421 0  0.4910987692623344 0.8258266093839901 0  -0.02786571684640423 -0.2602191660509451 0  -0.3100109539920916 0.8754084071746969 0  -0.1430953642836792 0.08057948287794171 0  -0.4692061738276198 -0.03518063835178897 0  -0.3879443334470508 0.01189259728172029 0  -0.2917370509263479 0.0274165860720802 0  -0.3847362129803998 -0.1207742388521432 0  0.8881548599361643 0.6979445712869933 0  0.7925370886733613 0.910646743872617 0  0.5766889874306713 0.2080591766328471 0  -0.5595750217866929 -0.469541074914028 0  0.5988009084015106 0.7059647985590329 0  0.6781422419814961 0.888279815508025 0  -0.05115391777627255 0.3033313754881217 0  -0.9021213878693675 0.9046052336403805 0  -0.127488777282901 -0.06722515095260492 0  -0.1687304970507729 -0.182864040006611 0  -0.252
[...]
<PointData  Scalars="w"> 
<DataArray  type="Float64"  Name="w"  format="ascii">1.7480145420606176e-10  1.0393210433048316e-11  4.4505607694714118e-10  2.6612936166866673e-09  6.2398197857880598e-10  1.5703234412782037e-12  8.6880394407573636e-12  7.4745290782716251e-11  4.0471866679292695e-11  2.1045646288959312e-11  1.0831041663416589e-10  9.6024444472698696e-11  4.0223454785504335e-10  2.7699060276245173e-10  9.1487645288387922e-12  5.2629628858656697e-10  9.1038145017536447e-11  7.2337438147504682e-11  1.3062884315499809e-10  3.5468833422412089e-10  6.7018061174212073e-11  1.0430792445334254e-10  5.7407239224932211e-10  1.9021659636472511e-08  5.7829426998348790e-10  1.0818994425252009e-10  8.8839684905430346e-11  1.6947953718750616e-10  7.6588087335626018e-11  1.8772121210000194e-11  4.6774969820852229e-10  9.7793730126966822e-11  2.4381436140911406e-10  1.8050393466085931e-10  4.5517827336849459e-10  2.2590737878915083e-10  7.7897277887168586e-11  4.7744413824283407e-10  5.8705193028322113e-10  3.1292402475268486e-11  5.2942704788989746e-11  1.0831600614007743e-10  9.2514705338017723e-11  1.9783173275119821e-11  1.0555171122562268e-09  8.7732417599816279e-11  3.2022047237846966e-11  9.6564723450063653e-11  1.2373597012752232e-12  5.9045409640160451e-10  2.2144332491973250e-10  2.1431174902643065e-10  8.2682726858322466e-11  2.5239086999400603e-10  2.5966963393824086e-10  2.0469056414295944e-10  3.5659672564991573e-10  8.9156847573068481e-11  5.8086741775616843e-10  2.5121269590448117e-10  3.1467639941324528e-11  3.1458582269990107e-10  3.7847324129784938e-10  1.4396713272540089e-10  5.4125726166381848e-11  1.7796653616319901e-10  7.0682148566532545e-11  1.7817979706156274e-10  2.3303367575716133e-10  4.6169496943576583e-11  6.4934113945376210e-11  4.3274508829386639e-10  5.6778376495721544e-11  8.8249238598248095e-11  1.7001274785231086e-10  1.7025022975129398e-10  2.5663298531999708e-10  2.8999260165085501e-10  1.8274116783746442e-10  1.9519559699043156e-10  6.5074490446363016e-11  2.5224733218344919e-10  2.6375697063854706e-10  2.0053580983819836e-10  2.3396084925632198e-10  1.2493965095060710e-10  4.6653012791238228e-11  1.0981008833853406e-10  9.4703161702720926e-11  2.5341105937225400e-10  6.9408200753329544e-11  9.9284265269438412e-11  7.8434320436494492e-11  9.4248266710195824e-11  3.8957796692070872e-10  2.0966641134366957e-10  2.5630860544909004e-11  6.5705409009894522e-10  2.5642629800475224e-10  3.1715310478847504e-11  2.7621261699586459e-10  4.1348325011425402e-10  7.0997838937766498e-11  9.7044198555483733e-11  1.5682300065267811e-10  6.3836491438406610e-11  2.7354196781302489e-10  8.3130316084992669e-11  1.4656111285844479e-10  6.6230698751985994e-11  3.1114721989133352e-10  2.4736243006350476e-10  2.3296362451913019e-10  6.4511531298151000e-10  1.2094935493390891e-09  1.4937454707810210e-10  1.6564568816299582e-10  1.0238967754997489e-10  4.5822003366937152e-10  2.6094941174912714e-11  2.5737675998136817e-11  2.7848859164512633e-10  9.1722051270366551e-11  6.1248513436040747e-11  5.0206246433870037e-10  5.7488901822171639e-11  5.9825393970641504e-10  1.1863634983627667e-10  7.6910609206049326e-11  8.2577875852299072e-11  3.4212528983319845e-10  1.7235446791973349e-10  4.6463006435391120e-10  1.3519015067422054e-10  6.2341933262395558e-10  4.4379716349651569e-10  1.0928640118708437e-10  5.2101723619115284e-11  1.2990541735234035e-10  2.5672511330712272e-10  4.1003439561879150e-10  6.0705459953203219e-10  9.3387217293660959e-11  1.1966755268177068e-10  6.9172365299804162e-11  6.5609061994329814e-10  8.6335142575162548e-11  3.1883352051783640e-10  1.4767822209334865e-10  1.2412034083966592e-10  2.0172001798494440e-11  2.8341026028470758e-10  1.5888352342446766e-09  5.6832819992148781e-11  9.6659254860767931e-10  7.9289341080753397e-11  2.4737015342338085e-11  2.4434141422782870e-11  1.2180659018666897e-10  5.6092961302399682e-10  4.4462207643924500e-10  1.6105855575849827e-10  1.1552694824139764e-10  1.6734476488088578e-10  1.8729323050144601e-10  5.8711715547034390e-11  7.8226566206666338e-11  2.0517899161346221e-11  6.0058652901238049e-11  2.9502691435352813e-10  9.2430594324508336e-11  1.0596115465934935e-10  8.2747305796475022e-11  9.6325588587240543e-11  5.3375929822635775e-11  9.6148402626399677e-11  4.5555808880680996e-10  5.7186919935383847e-11  1.6400369872375481e-10  1.7213408112450730e-10  4.6446656800859935e-10  1.9794037231096294e-10  2.8264339919754657e-10  1.4295235877342260e-10  1.4484702857578327e-10  1.5022715075155643e-10  2.1124620705032175e-11  2.8849782531211253e-10  6.5156300650267659e-10  2.5621486510228718e-11  2.5191128987191989e-10  8.9381505005089748e-11  1.5768341306773776e-10  1.1163401858264715e-09  1.3757463096254031e-10  1.6405397666842740e-10  2.3353802455000030e-10  2.8718127719718923e-10  1.0607633661290728e-10  2.0436512811158630e-10  4.2048806133246762e-10  2.1855966687226539e-10  2.3897659915551972e-10  1.1002489005844126e-10  1.1261834947331369e-10  1.1301209728592396e-10  7.1379902987297600e-11  2.0820095414604337e-10  8.8548703714044537e-10  7.7833038344728050e-11  1.0825658779717236e-10  7.7803367944053379e-11  9.6815492564297124e-11  1.6249170693830996e-10  3.7712686207166856e-10  7.9255692160601731e-11  8.5446303352412537e-11  7.7672767402496514e-10  9.4100062487152122e-10  2.9278865542025985e-10  1.9980626181668171e-10  7.5879551911939529e-11  8.1276945840968928e-11  3.3611867159782089e-10  5.8838648599606135e-11  8.3707309317859277e-11  5.0372079925737393e-11  9.3579047177348558e-11  4.1457162447318598e-10  9.0718813229708474e-11  1.9749302312049121e-10  1.6603074168066258e-10  9.0293742696715295e-10  6.2077411923938428e-11  1.9879502074308935e-10  1.1545987218551558e-10  1.1213211072379546e-10  7.5082778407674685e-10  7.5491503865079829e-11  8.5347841829316944e-11  1.1819281848626179e-10  1.1215975817911979e-09  4.1130056062175998e-11  7.8037745768074196e-11  2.7939457800915570e-10  2.5141534067635273e-10  3.4468548053947965e-10  1.8233345785090379e-10  2.0355706847086316e-10  4.0370733102480558e-10  2.9628113459011758e-11  1.0564885814613248e-10  1.2813092791057396e-10  3.7685194809932687e-11  2.7104080775894450e-10  4.4003562641568280e-11  3.3366976242140634e-10  1.3621175413149639e-10  1.1048930343550146e-10  1.9187295643018281e-10  5.0259343094455164e-10  7.3257387162627080e-11  2.7087260210752516e-11  1.4479043357677666e-10  8.2316710190657487e-11  5.9563064667249542e-11  7.6447939737059929e-11  1.7891805860010060e-10  4.9559344770289939e-11  2.6392070170581348e-10  2.5422367991398338e-10  1.2930494256597944e-10  1.2882385343033396e-10  1.3816320269766816e-11  7.1520934882568870e-11  1.4680421171180053e-10  1.6867105544666222e-10  4.9845570353264244e-10  3.6939448923675414e-11  8.2239013881415663e-11  3.3617447503230967e-11  2.3920248160582206e-10  1.2586094936043412e-10  1.8528548315673452e-10  7.5272238765047175e-11  8.8097513884638469e-11  1.2099198206274553e-10  2.0247068657836284e-10  2.2380524456235612e-10  2.6110624478100762e-10  4.3826382127676755e-10  2.1381082999234740e-10  2.1000364008794233e-10  1.4471916209626613e-10  8.0064099329163743e-11  1.7168023953101109e-10  1.6610864138325260e-10  6.2695438749257724e-10  1.2978869629324726e-10  6.2459614375374375e-11  4.0714789309541573e-10  1.9046091141989494e-10  2.0903076688780467e-10  1.2509122685146832e-10  3.2856393827696872e-11  4.4942594857888058e-11  9.9012080781333637e-11  6.8353535677920551e-10  2.9366841355083101e-10  1.8077184534901884e-10  1.3651097849251296e-10  3.3436819877560012e-10  6.7641033530220944e-11  1.0988287523833767e-10  3.5074833870295531e-10  1.4698227153969660e-09  9.9279963722387366e-11  2.8267880329361656e-10  6.1571322618271394e-10  1.2351804219068704e-09  1.9859414787141599e-10  1.5341446684551217e-09  4.1844960790835291e-10  2.2593390758796050e-10  1.1666633849424958e-10  4.1965814726311293e-11  6.5961241741019913e-11  1.2675833766149189e-10  1.5720821370672992e-10  6.3881661848042469e-11  9.8935312540457509e-11  1.0731661088195109e-10  1.2787327836993511e-10  1.9306280021253441e-10  4.9890646952495636e-10  3.1910941933175485e-10  1.6607182039595429e-10  9.5876328490132840e-11  6.1779325425378751e-11  5.9276164223605437e-11  7.0936885386816920e-11  1.8189513563742003e-10  2.2807345242996827e-10  1.0590453690212979e-10  1.0547212274560357e-10  2.3853763891249533e-10  1.3661295892301853e-10  6.9831143091066472e-11  5.9523137513328319e-11  1.0566003406214647e-10  3.4378732694451050e-11  1.8677149560156137e-10  3.3007559926092897e-11  1.6087205710534807e-10  1.7941364388385832e-10  1.5222909823776625e-10  4.0037704338404134e-10  7.9630296479266783e-11  8.3263333815027426e-11  1.4496208333929455e-10  3.0909704386578614e-10  1.4462517958179848e-10  2.6331577403271208e-10  1.1105451845907775e-10  1.3558480316402813e-10  1.5737329052010252e-10  2.7950275105469443e-10  1.2769266797424435e-10  3.3855007655444831e-11  1.1769399727832418e-10  1.1219332510715307e-10  1.4763313804456885e-10  2.5309485974639319e-10  1.7105611359282977e-10  3.5028973031414280e-11  1.2939287122915003e-10  2.3063240034707387e-10  2.9396561174443139e-11  3.2966856068738249e-10  1.6363101343690746e-10  3.9135854881208560e-10  1.1268305118737719e-10  2.3810353711874266e-10  3.2554445915906959e-10  7.5774181460948054e-11  1.0572222312452955e-10  2.1802775567489537e-10  7.3964282705310063e-11  4.8186905816756743e-10  1.6008180421640059e-10  9.8241069709245057e-11  1.0855847833888911e-10  2.0963430538269421e-10  5.4106875173278466e-10  4.7859454424222830e-10  1.8065932855145433e-10  1.7218331668149192e-10  2.0855038341721210e-10  4.0113753971299420e-10  4.5641469470894250e-11  2.2606929908853259e-10  8.2111502357429359e-11  1.2404945438273480e-09  1.1830095141482297e-10  4.6110843778826443e-11  5.5066359691873438e-10  3.3302528147051827e-10  2.4755000827095836e-10  2.1065616738414225e-10  6.4302534600027229e-11  1.5360440766624899e-10  3.3502594062562144e-11  4.3886473069683013e-10  8.2388608496792356e-11  1.3755509150322882e-10  1.2721658902669911e-10  6.6102179170496226e-11  3.4768032850341604e-10  4.3297212433469300e-11  1.1791440529474954e-10  2.4602124051772132e-10  1.7906150916380555e-10  7.1275445653344555e-10  9.2673637934326817e-11  5.7567132447664484e-10  1.4802111855947134e-10  3.5563749698948738e-10  5.5249317057113996e-10  2.4395187811489180e-10  1.5500884490708008e-10  2.7256427044456210e-10  4.8231727499822963e-10  3.4227568342369148e-10  7.5851349487771397e-11  4.9755783931781136e-11  1.6372497281527979e-10  3.5760273955787552e-10  1.8616090656480975e-10  1.2737477326140653e-10  1.7111286901783204e-10  8.1657656235556258e-11  7.1550162414123196e-11  1.9911762641073379e-10  5.8070154036595463e-11  2.0698580182255760e-10  9.0597972844210925e-11  4.8006024870708783e-10  4.9461871524846030e-10  8.2145250620050135e-11  4.1942956056563890e-11  3.9825606108253546e-10  6.4920625515941698e-10  2.5876065712764106e-10  9.9000995881793058e-10  2.8789666619278957e-10  3.1703410877361928e-10  2.7429414066966756e-10  2.6662509427155441e-10  9.7785476279040958e-11  3.1525199902743569e-11  1.9406366957586690e-10  1.0547045455994906e-10  2.1460878421356197e-10  7.5578982636169984e-11  1.2376765066520120e-10  2.0631981031322719e-09  1.7689037283013120e-10  8.1139681137631513e-11  8.2676014010230717e-11  3.9952412983715489e-10  2.4273111883913780e-10  1.8975706564113433e-10  2.0774711210006013e-10  4.4777096875028775e-11  7.5762792596552156e-10  2.4183681783054019e-10  5.3401336196257045e-10  2.4828773714598756e-10  2.4188428730614404e-10  3.1185134180380519e-10  9.4550657676938722e-11  3.3215072760836095e-11  3.6346712014035172e-11  3.6956856735728712e-10  3.6119183501693404e-11  1.1690481361961025e-10  1.0170107116452151e-09  7.5221155007404896e-11  3.5088641583495215e-10  2.6276745634557150e-10  6.2016908696378214e-11  6.0137151582620569e-11  1.8035749161574339e-10  2.4567998666836959e-10  4.8582473419121658e-11  1.1344330301590919e-10  1.6087507312578538e-10  7.6109743487096299e-11  1.7020999632947984e-10  2.1282923513325535e-09  3.5676470327489750e-10  3.1957018784283961e-10  1.0702704915519508e-10  1.0783741558247608e-10  1.8788146753756315e-10  8.0676694514906998e-11  1.3458243333210073e-10  4.9793877437581464e-10  8.6957188940620131e-11  2.4148720351034555e-10  2.1493843759047903e-10  1.3900489888425699e-10  5.1690068115676438e-11  7.8098619187412080e-11  5.5735311344747470e-11  4.1159230502459374e-10  1.0622356029924474e-10  2.2152118231304111e-11  5.7085827056286154e-10  3.0823686309493864e-11  6.2080696142272827e-10  1.1711222278395922e-11  8.3253828269723755e-10  1.7577669043273512e-10  2.4918414714035958e-10  1.0512212280362790e-10  2.8860615600309661e-11  8.5563441393582231e-11  2.7982082255131074e-11  2.0797978801407951e-10  3.7234730157188701e-10  2.7153915953539820e-10  3.3056723239164679e-10  1.3512103737313279e-10  9.3915728600069813e-11  6.3624793815230131e-11  3.6261233551836996e-10  5.0252966215427554e-10  1.0635914540864055e-10  1.0102895805575163e-10  1.4690895516921221e-10  7.6703843688704419e-11  4.5575932082009197e-11  5.4943971553383505e-11  3.2236176848993100e-11  8.8937949997246598e-12  1.7924256937354849e-11  9.9269706253255001e-11  2.2651358318466424e-12  1.1126278402652708e-11  1.8554398659155840e-10  3.4964666798323426e-09  2.2384217068114560e-10  4.2785883975558135e-11  2.2009325129984202e-10  9.2947210432999432e-11  1.1277679715208773e-10  4.4088219537664386e-11  1.7161589187659020e-11  8.8217102410455784e-11  7.3497982471589275e-10  8.0179944685234889e-11  1.8365877347004280e-10  3.2374971261644915e-10  4.8424412971464054e-10  9.6490163272303636e-11  1.0186980525614178e-10  5.8430522657621980e-11  7.7082503313431669e-11  1.1244963879380643e-10  5.7610349812920759e-11  6.0439414320603424e-10  5.9334428923014373e-11  2.7806328748322796e-10  8.8292547944256619e-11  1.2792726545217090e-10  3.1120061618201036e-10  4.1650638637023796e-11  6.3218731074543837e-11  2.8598059810411043e-10  1.1987127705965825e-11  1.1360641919206117e-10  8.8224118741422461e-11  7.7013919583714263e-11  5.6156574233950583e-10  1.6157042519214076e-09  2.8961254235494220e-10  2.8910302398462116e-10  9.0682918212081582e-11  6.9305307199661744e-11  2.5424874698174868e-10  1.1783326272182415e-10  9.9715102595359868e-11  1.0475664456496788e-10  1.9872763339316568e-10  7.4105509022436449e-11  5.2987467669240434e-11  7.0971572229913227e-11  3.9921624939495697e-11  8.6846577392267656e-11  1.9152740287763943e-10  1.6227988680257843e-10  1.1183879322766201e-10  2.7274783344065953e-10  4.7355297062994920e-11  1.3605376357893251e-10  5.2290522613236821e-10  6.6897019137817868e-11  1.1782033518781695e-10  1.3183761784710353e-09  5.8188211908429119e-11  3.3785682017096465e-10  5.1162016037213804e-10  1.5794573381733506e-10  1.2882950830253941e-10  1.2564731224682770e-10  9.0466743224487925e-11  2.4969589353016725e-10  2.8574675132800008e-10  1.7742819314686435e-10  4.6871476335139932e-10  4.2294731248780611e-10  1.2173632926220509e-10  2.1094711101873735e-10  6.6675343504384548e-11  8.4944382672858026e-11  6.2789459729669836e-11  2.3935340060493264e-10  4.0039420255945558e-10  3.0770212399211675e-10  3.2469201915529256e-10  8.5972465574901275e-11  2.2818689719334372e-10  4.8056788239424005e-10  1.7246617908968323e-10  4.7890869311837042e-10  1.8280909012645347e-10  1.3846054912773559e-10  1.1179404349419880e-10  5.1298580362715016e-11  5.4478932403453621e-11  3.2954561682406717e-10  6.2922329609423321e-11  6.4835040644493211e-11  1.2963804432842396e-10  3.2053243258509451e-10  3.1844742061708558e-10  1.5747286247354783e-10  1.1764866784302039e-10  5.9255764132931399e-10  6.2743236067431944e-10  1.6106061709743093e-09  2.6893113233027112e-10  1.9949412836136807e-10  4.4421603426249519e-10  4.5628356289250289e-10  1.1749191047070595e-09  2.9713049569219784e-10  2.4655668342015285e-10  3.3137416388126723e-11  1.2917177890277625e-10  3.1887681563449242e-10  4.8547745175124794e-10  2.1099250689802548e-10  6.6654705142654910e-10  3.0447995950675137e-10  2.1612883108740285e-11  4.8496644739574472e-10  3.3136769783152137e-10  3.8821631420840783e-11  3.3358513570281093e-10  4.1388129804835670e-10  5.4326568906734823e-10  1.4564254985108157e-10  6.7001720089220452e-10  1.9516885300675854e-10  4.7363786935012103e-11  1.2740510419685497e-10  1.3254740791928581e-10  3.1361710112844130e-10  7.8908175852324398e-11  2.6456411062390436e-10  1.9553671139999699e-10  8.1974712959283962e-12  2.3665236874811267e-10  5.8086994296971869e-11  9.0140474016621949e-11  1.2406431535766625e-10  6.3317926990452923e-10  4.1212998698539770e-10  3.0500843689984100e-10  1.1693089730225141e-10  1.3237423853691413e-10  9.0349665684059621e-10  5.4278170196380358e-10  1.3433379657006626e-10  1.4279551630391077e-10  9.3927199081806196e-11  4.8870682752118228e-10  1.3830528003310483e-10  1.7437973329820207e-10  9.5194194033585614e-11  7.0654073786546543e-11  6.3446041209885894e-11  1.4930770745197526e-10  9.7883973691600839e-11  1.2953289632960827e-10  4.3409470886207295e-10  7.6606322325141399e-11  5.9637425384325772e-10  1.2742540328292894e-10  2.2409450753945971e-10  2.8117761395069868e-10  5.5210473368385668e-10  1.1629772031954417e-10  4.1129571802087244e-11  6.3001130244733865e-11  1.4178765335390229e-10  1.5862824934421988e-10  5.1529129252364372e-10  8.4385241444743626e-11  1.6145696087680592e-10  2.5171776821169665e-10  1.3837427732421123e-10  2.3617206483445543e-10  3.3228836795662537e-10  3.1140364200645708e-10  1.0462207193275722e-10  1.7456966786321109e-10  1.4917358530155061e-10  2.2779433145082379e-10  4.9981932510476793e-10  3.7338929363827956e-10  2.0172529522523083e-10  2.0555531594651969e-10  1.2482654940956663e-10  1.7255371928473570e-10  3.0013878156654908e-10  3.8078076376771693e-10  3.6155528222686550e-10  1.6588129165413130e-10  2.2010475082034829e-10  1.9472934222959903e-10  1.5416527518977554e-10  3.9852160294589589e-10  3.1753536787780571e-11  1.0561346304774449e-10  1.2727189062864913e-10  9.3872353707846090e-08  4.0750902557980111e-10  1.7636271372088582e-10  6.1018236355707182e-11  2.5667803123311898e-10  1.3786974151521437e-10  6.4480122291111960e-11  1.0556460356385847e-10  2.0257801794858966e-10  2.0582683115623016e-10  1.9399852022999630e-10  1.8894849972506480e-10  3.0877567838627395e-10  6.5138826168097978e-11  8.0182959797146185e-11  1.9111159573749112e-10  1.2273162269639539e-10  3.5588534368422604e-11  4.0133810490679238e-10  6.4780617265731483e-11  6.1937781209103814e-11  1.9423782734548342e-10  9.9047413755763877e-11  2.3708923449679130e-10  2.9211735738314402e-10  1.6180584717921702e-10  7.8203944396194944e-11  1.8751573669238810e-10  9.6605849957292289e-11  3.2851232362018124e-11  9.1061809784417621e-11  5.8333029232840206e-11  7.8707441340606579e-11  2.2651416209658788e-10  4.7439768377972072e-11  6.6642898754882398e-11  9.4907187129127866e-11  9.3713818786968816e-11  9.3914037467375670e-11  2.5126249603162995e-10  8.7725092663394626e-11  1.8439495144066095e-10  2.0304814029936434e-10  1.0004885720504170e-10  1.6086322566102324e-10  3.1487382038755591e-10  1.2429242647846126e-10  6.1608731982517501e-10  1.7086362274026223e-10  1.4923552460232640e-10  1.3897817623398425e-10  2.2847431324911952e-10  4.4243604664589313e-11  4.0050479158086369e-11  7.7049004386372848e-11  4.3332848815434352e-10  2.0052110167057255e-10  6.3640423809920271e-10  4.4235211026811697e-10  1.2114925904335107e-10  5.4684572841490195e-10  3.6458431799082953e-10  1.8858650508359178e-10  7.0720442973256792e-11  9.3714538511556125e-11  1.7446684070188346e-10  1.8796841977865688e-10  4.1750918026803118e-11  4.8083549576917970e-10  2.7829431432360311e-10  2.9986601379625901e-10  5.3768503380991255e-11  3.5081360303241958e-10  2.6694838915121969e-10  5.8345185652037004e-10  7.3371784947324445e-11  6.1668594848743474e-11  2.3889075922084328e-10  7.2781993674774898e-11  4.2666178798277614e-11  1.4787879299712894e-10  2.4368270283735466e-11  6