<?xml version="1.0"?>
<VTKFile type="UnstructuredGrid"  version="0.1"  >
<UnstructuredGrid>
<Piece  NumberOfPoints="4852" NumberOfCells="9430">
<Points>
<DataArray  type="Float64"  NumberOfComponents="3"  format="ascii">-1 0 0  -1 -1 0  0 -1 0  0 0 0  1 0 0  1 1 0  -1 1 0  0 1 0  -0.5 1 0  -1 0.5 0  -1 -0.5 0  -0.5 -1 0  0 -0.1608775713298009 0  1 0.5 0  0.5 1 0  0.1967448868031411 0 0  -0.3406011744266698 -0.1755123597955835 0  -0.3376289637788633 0.2248542782962824 0  0.1742041642406203 0.3461510136116934 0  -0.1855726053947477 0.555759308175334 0  -0.5056466958602138 -0.5385672290043779 0  0.4901187068077071 0.2572842506944156 0  -0.06463165073047121 0.2010728228677698 0  0 -0.5061325913258391 0  -0.25 -1 0  -0.5658319770951609 0.5783046294061424 0  0.6630535453432168 0.6367382199742032 0  -0.1765516363361427 -0.5376804910807674 0  -0.5387612860154058 0.02490662492662913 0  -1 0.25 0  -0.2062577626617581 0.02360313192020245 0  -0.6554903636726266 0.3132644252347944 0  -1 -0.25 0  0.03935138265394467 0.5920323589011565 0  0.1950161686510608 0.1290827840996561 0  -0.1362119675917852 -0.2197916236925715 0  0.3712413433590786 0.6149339877966253 0  1 0.25 0  0.5355652144809806 0 0  -0.75 -1 0  -0.9999999999999999 -0.75 0  -0.6455864716632137 -0.3231153993213673 0  0.25 1 0  -1 0.75 0  0.02757118475249542 0 0  -0.25 1 0  -0.75 1 0  1 0.75 0  0.75 1 0  0 -0.02898318711980711 0  0.05409105718688895 0.1420644674660317 0  -0.07751516130576568 -0.02803132286830338 0  -0.7017051659118282 -0.1328098310854783 0  -0.3224389576696531 -0.3473907149163566 0  -0.3411713992542683 0.4377118608086685 0  -0.09964769415182612 0.7640375084407282 0  -0.3854214954597855 0.7040250248141535 0  -0.05406556776467368 0.3990095752470545 0  -0.0789912562779562 0.0715340785391741 0  0.3587167949589424 0.3707008842498992 0  -0.7205279251581628 -0.7333417104225357 0  0.4116695735419806 0.09033927647604441 0  0.6896792717934357 0.1931731277940574 0  -0.749743882914539 -0.5305523808157498 0  -0.390321499191704 -0.7114802902617613 0  0.7209486323961932 0.4215463871361548 0  -0.777570005949439 0.09845740820729933 0  0.1989315662887693 0.6997381048486119 0  -0.198566716554733 0.2888596727172842 0  -0.800459614639159 0.5816484308150653 0  -0.7223916348692229 0.7681884272604443 0  -0.03503634815937737 -0.373942476232266 0  0.5875722266757448 0.8201011758216346 0  0.823050603359159 0.8112038104968647 0  -0.09496906596336774 -0.6966242884341631 0  -0.5140568030505965 0.165034831702369 0  -0.2019506160172976 0.1259730165203623 0  -0.3591151995262178 0.07525964053552937 0  -0.3653087871096446 -0.05171556310212495 0  -0.4991103314840536 0.3964759903034022 0  0.375 1 0  1 0.125 0  -0.01165629557612278 0.07107868789183153 0  0.06232990676973377 0.3920970505186814 0  -0.1719820267308301 -0.1220607003433886 0  -0.2461313186291515 0.773791655630452 0  -0.625 1 0  0.5346204172195875 0.4559076079297925 0  -0.5802945852336867 -0.8313052193877751 0  -0.2590943209823938 -0.7837094088362178 0  -0.3216438254944795 -0.5084092421378806 0  0.8344910386420691 0.5986444863465517 0  -0.5526642999297218 0.7921909965008475 0  0.125 1 0  -0.06728804285356446 -0.09334511380547218 0  -0.4960516944277608 -0.1429940428993788 0  -0.875 -1 0  0.02954505748378265 0.04150785653535986 0  1 0.375 0  -0.875 1 0  0.05818589424187168 0.7950499429820705 0  -0.1958021311817246 -0.373236945442469 0  -0.07291575767714273 0.5714580686183918 0  0.2368052927251662 0.5182560735539414 0  -0.7917787585506548 0.2327595506744921 0  -0.4963503101125591 -0.3890438596496604 0  0.0004858067946245539 0.2709349658958546 0  0.5118327232058005 0.6419395569307953 0  0.4008116310583129 0.8085017483211445 0  -0.8055616480148495 0.4293879106445149 0  -0.06208516626964065 -0.2222720585604514 0  -0.7102046823949957 -0.01459180412034449 0  0.09056189323311523 0.05233196280863377 0  -0.4794203836296414 -0.2514083689267492 0  0.7242618537052337 0.08372171541070826 0  -0.8098953075825328 -0.4129988644029928 0  0.3374132151097609 0.1547222127041063 0  -0.7946007548945052 -0.2521604173677666 0  0.2365237167713167 0.25385873279764 0  -1 -0.875 0  -1 0.875 0  0.1845237383083626 0.0484773830268389 0  -0.2480580106991332 -0.2281228843380656 0  -1 0.375 0  -0.1712728550939668 -0.04209288975947804 0  -0.6514266821564824 0.4698181302406195 0  0 -0.07736776745332727 0  0.08099207568726244 0.2600141039889176 0  -0.375 1 0  -0.2190617978769279 0.4247397187327985 0  -0.1200657129166105 0.1503006784691595 0  0.1346488365308367 0.5539573667408401 0  0.1322085747267198 0.1939532237827392 0  -0.4756923937876032 0.2705045800448158 0  -0.04623547114954139 0.01388121222824039 0  0.8497454014538065 0.3736968103336299 0  -1 -0.125 0  0.2864113326513282 0.838326356405383 0  -0.1110638541015602 0.3129753018957768 0  -0.125 -1 0  0 -0.7575037395175259 0  0.07821397079968176 0 0  -1 -0.375 0  -0.375 -1 0  -0.625 -1 0  0.7474787146812756 0 0  0.625 1 0  0 -0.2918843213980812 0  -1 0.625 0  -1 0.125 0  -1 -0.625 0  0.3284075310660084 0 0  0.004929205892015135 0 0  -0.125 1 0  0 -0.006571003003944568 0  1 0.625 0  1 0.875 0  0.875 1 0  -0.5658251790481615 -0.6785283871762414 0  -0.004244499028847976 0.1601497799426881 0  0.3627666137531204 0.2621988166111223 0  0.6530615202358183 0.2942753546032573 0  -0.8553298041039215 -0.6514096028427845 0  -0.8682271068674112 0.7916827088531692 0  0.4300926450538943 0.5026751384444493 0  -0.3989752197760464 0.8569233544510254 0  -0.7831861249424608 -0.8755176288729164 0  -0.8717371906671671 -0.7880874170906826 0  0.1572554382382026 0.8426712963695185 0  -0.6588806976047007 0.1550704713571036 0  -0.5779617664008307 -0.06561772463379818 0  -0.8552965920623163 -0.06215732967447592 0  -0.2983151483607236 0.5626241473376181 0  -0.4263479736336557 0.5707381125039268 0  -0.3773146452533018 0.3325487056461908 0  -0.6186383910217168 -0.2165253985184989 0  -0.2726030943598713 -0.09013805005121719 0  -0.6431405046323044 -0.5917497784882745 0  0.8589892415021987 0.265879579538865 0  -0.03263061661706701 -0.0330992547590041 0  -0.05455425023518754 0.1144873398845164 0  -0.134079903105446 0.4321584139759483 0  -0.1193660699359576 0.03250328539172389 0  0.5381070002841223 0.06521926696649476 0  0.5801617262154198 0.3616623075274333 0  0.6943632850716036 0.7784905488549928 0  -0.8009425798071593 0.8830843127614953 0  -0.6453765141683463 -0.4298076286884016 0  -0.111681164384109 -0.3964080592724522 0  0.8709954499340289 0.492910427960659 0  0.07623857580281544 0.09389236976984454 0  -0.6692507397974602 0.8707671241083532 0  0.4545817079629741 0.351555941717054 0  -0.02625111362592206 0.03575194443434878 0  -0.4100038454998075 -0.4414003692464241 0  -0.3628925080644028 -0.2685883525113664 0  0.3239764171676836 0.4831728702361574 0  -0.1961232317004561 0.2012488146167384 0  0.7065589526498673 0.5331840877864831 0  0.2618141208215974 0.3570347516431679 0  -0.3814000144480086 -0.8511531393383494 0  0.1103025875108836 0.6821112210152585 0  -0.2866014258281218 -0.611428022604573 0  -0.4439902671634747 -0.6210451273975052 0  0.297579892370318 0.6939306833149999 0  -0.8741651750540339 -0.1754906184869958 0  -0.1818888837696583 0.8563296490886466 0  0.4545797173845518 0.1647384790315604 0  0.280273084349214 0.04721926504051722 0  -0.1431562359486631 0.657318511496814 0  -0.01170935709726807 0.7085024752982982 0  -0.05327964786461124 0.8766542234406393 0  0.005770183794956486 0.4698494719431316 0  -0.3882372443675343 0.1543124667126334 0  0.5497281961730784 0.1341288141008998 0  -0.4794382357400928 0.683882625207217 0  -0.8511131290790133 0.3372504770030399 0  -0.07871206197853318 -0.5364024958915192 0  -0.01346710136568774 -0.5522996109012278 0  -0.2136327743266204 -0.2874016990471864 0  0.8683861281021117 0.1530582299307594 0  -0.1692232853443165 -0.6602837073566334 0  -0.8887090552451299 -0.5318294100565893 0  -0.2823985610195283 0.3392760839182696 0  -0.6794946856227354 0.5771362561739206 0  -0.8972746542991579 0.5351536012677209 0  -0.9001861889230658 0.6651145534814571 0  -0.6445906269267739 0.07301047848017217 0  -0.8601489018711601 0.0296670598119243 0  -0.8886110408915712 0.1681908941592889 0  -0.1299677021798716 0.2291326615940443 0  0.161479565133523 0.4471197185431937 0  -0.04362138729659636 -0.125860269767299 0  -0.7574055591583425 0.6724156100781803 0  -0.6079418365129947 0.6991261385790567 0  -0.2544883739419005 0.07877477543764939 0  -0.2521398426020194 0.6498135368537733 0  -0.02732193699487729 -0.006466632063477461 0  -0.4989974782282194 0.8773515438155137 0  -0.4804399819765194 0.4923065825237631 0  -0.2902092617261614 0.1443545885225376 0  0.002363708822240933 0.02362461447107023 0  0.7811019793081102 0.6880899182332014 0  -0.4733549379552872 -0.8259220419127338 0  0.2717953494637532 0.1958111904560328 0  -0.1470716461625104 -0.863207717350175 0  -0.05638531771679102 -0.8268070507275393 0  0.4446765510511806 0.7081970248364839 0  -0.1150129146015487 -0.2885434252667794 0  -0.2650188484146028 -0.02597763709812667 0  -0.8962905358454689 -0.8981502867298039 0  -0.5730869710313419 0.240315982177074 0  -0.4756223310250378 0.08810180319984479 0  0.4943564563956314 0.8282430315497934 0  -0.02570391749413487 -0.2643968074511023 0  -0.3134242271252201 0.8769047583798717 0  -0.1428198584996609 0.08051057820031728 0  -0.469381437212486 -0.03463265577917055 0  -0.3883214056578534 0.01231911701245851 0  -0.2922955290201814 0.02771682014714952 0  -0.385470478314877 -0.1203375635709372 0  0.8889269337224239 0.7020806958431371 0  0.7971947900264733 0.9134344295086531 0  0.5774722934394272 0.209069680702442 0  -0.5606035341632457 -0.4708036908167844 0  0.6013183848282808 0.7090035226692624 0  0.6808137990218713 0.8909432639663357 0  -0.05113902926790658 0.3034882804880798 0  -0.9057544214557539 0.9073656708066566 0  -0.1276144909476452 -0.06691822085051841 0  -0.1696415860129361 -0.1819991472821796 0  -0.2522652776897651 -0.1437612500546137 0  0.03728706792472512 0.2017127992913698 0  0.9044705280172396 0.8998136215068654 0  0.8542
[...]
<PointData  Scalars="w"> 
<DataArray  type="Float64"  Name="w"  format="ascii">1.6080370825768348e-10  9.3314333305159661e-12  4.4456252100292456e-10  2.5495611058538761e-09  6.3217267056441728e-10  1.4508386152997110e-12  8.1965228845712099e-12  6.9015158850679257e-11  3.7330568954594222e-11  2.2359070379330780e-11  1.1670738854899214e-10  9.8820904549630917e-11  4.2142492965237871e-10  2.5270470738382858e-10  8.2681787281948111e-12  5.4137455794377935e-10  9.1124304074151579e-11  7.1491893507386452e-11  1.3159408951483438e-10  3.7227613692510109e-10  6.5193674942569437e-11  9.1733293421076391e-11  5.8870130443088895e-10  1.4678265939906284e-08  5.8975264234957047e-10  1.1013168313066570e-10  8.9558995844820233e-11  1.7276737655164504e-10  7.9201909720478093e-11  1.9059506990139105e-11  4.9474068640957598e-10  9.9285631155459722e-11  2.5483798339994793e-10  1.8716963383000505e-10  4.7543439989553974e-10  2.2757327401678309e-10  8.0381602449639166e-11  5.0293983807608774e-10  6.0135744203780250e-10  2.8221698545099857e-11  4.4272292356061741e-11  1.1343281028149486e-10  8.7284647355704500e-11  1.4772080670120453e-11  1.0533075338303158e-09  8.8125389800175910e-11  2.9098391785276674e-11  8.3383570334205673e-11  1.6472046657365416e-12  6.0010465564580894e-10  2.1763450877571663e-10  2.0713979238172853e-10  8.3511137470546068e-11  2.5933316571163791e-10  2.4270187210745898e-10  2.3694878708239985e-10  3.8471017661744163e-10  8.8241865686666441e-11  5.5847729849698831e-10  2.5493674408959967e-10  3.0785817117969358e-11  3.2320126730634502e-10  3.7057271045589084e-10  1.3633858407855398e-10  4.9882310856736431e-11  1.7706460459544697e-10  6.6066587895063925e-11  1.9909429009342577e-10  2.4880896878868023e-10  4.0055938671697550e-11  6.5401601556074185e-11  3.1499669909367586e-10  5.4398333222089601e-11  8.2474548290940517e-11  2.1244206737406123e-10  1.7501399426115365e-10  2.4814202247884889e-10  2.8778316991916690e-10  1.9185760694402481e-10  2.1367452330613733e-10  6.0256063899615542e-11  2.4123732041200123e-10  2.5970468866071523e-10  2.0289768853635769e-10  2.2624736519330970e-10  1.2831895914048867e-10  3.6298738034382093e-11  1.0797928918907389e-10  9.7122223367692840e-11  2.6610327802573631e-10  6.2685291502634640e-11  1.0036473464412260e-10  7.6727439641089407e-11  8.9482742112934895e-11  3.7098978705039209e-10  2.1558988939168414e-10  2.2313914130019641e-11  6.3355757379239239e-10  2.6775394267790408e-10  2.6062508360882091e-11  2.9073447875942976e-10  4.5363287505690780e-10  7.1116959835972785e-11  8.8878463584462691e-11  1.5196520434448044e-10  6.0067845504832330e-11  2.9065164324924402e-10  8.5800377403587103e-11  1.6134809484805753e-10  6.2694432370235319e-11  3.0772255030071979e-10  2.8013242815147324e-10  2.2399875802772347e-10  7.0001374066887402e-10  1.2963691313991229e-09  1.2967364649343710e-10  1.6192179136848255e-10  9.0456978044137353e-11  4.6840991164272140e-10  2.4168829816365538e-11  2.1844495891675920e-11  2.7381542043089007e-10  8.8453639051637347e-11  6.0253336217744387e-11  5.0411112351610217e-10  5.2864771974636116e-11  5.8569775328426774e-10  1.1081475199368272e-10  7.3464445655867292e-11  7.9347214555677366e-11  3.4264152693615854e-10  1.6383212720364244e-10  4.9175510543032001e-10  1.2332066913383223e-10  6.3096156296763347e-10  4.6850865753036832e-10  1.0374159832765639e-10  4.6931631721256856e-11  1.3289798999055258e-10  2.8102666910427834e-10  3.7358853862857803e-10  6.0485445358180817e-10  9.5414380842547875e-11  1.1066502284560600e-10  5.6367619803924982e-11  6.6170155323708114e-10  7.9397240820198447e-11  2.5288867000360001e-10  1.4028932700460628e-10  1.1810334274431272e-10  1.8149120749314876e-11  2.8619062880130723e-10  1.5654353609838486e-09  5.1462239844039461e-11  9.7381833550281929e-10  6.8045812077605968e-11  1.7589325253226296e-11  1.9331527261532650e-11  1.3229429844249164e-10  5.6125478194468890e-10  4.1901661391411222e-10  1.5991352793033034e-10  1.0831716040326714e-10  1.5131709295960305e-10  1.9572540463380444e-10  5.4125256739392580e-11  7.2695956239697513e-11  1.7072689576493780e-11  5.3463593273168050e-11  3.1936112616207892e-10  8.3513698851540661e-11  1.0626223434398758e-10  7.2859786800844681e-11  9.6291192705731526e-11  4.9394976638112270e-11  9.1121395133551711e-11  4.7068990969570927e-10  5.3863275133599116e-11  1.6238415616809009e-10  1.6358516062940441e-10  4.7681181601657194e-10  2.1144172180367056e-10  2.8732961825556180e-10  1.3969404115306128e-10  1.4827719553870082e-10  1.5847023243072830e-10  2.1176625669407735e-11  3.2352763255279084e-10  8.4192266177940434e-10  2.2433106509607454e-11  2.4105897676164224e-10  8.8764837460306591e-11  1.6300244866463515e-10  1.1102507987067937e-09  1.3750596864598577e-10  1.6031293846151740e-10  2.5197904247780242e-10  2.9324437306387320e-10  1.0497211732740750e-10  2.0559763455840527e-10  4.1062776932342850e-10  2.4674530540881440e-10  2.4860976942621784e-10  1.1849071585451095e-10  1.1147746799931420e-10  1.1114456925007964e-10  7.0323321363933730e-11  2.1575364738979289e-10  9.0356465805788684e-10  7.5874268921089704e-11  9.8748431059922231e-11  7.8538587828678481e-11  1.0018298210460389e-10  1.5852905974237209e-10  3.8342871088725391e-10  8.5293032736258744e-11  8.5010175103024625e-11  1.3426004065417527e-09  2.9532509207657292e-10  2.9529693622110470e-10  1.9526592792730472e-10  8.4026523604488724e-11  7.8415720265008464e-11  3.6770135144064040e-10  5.6175232973537291e-11  8.4259235759976420e-11  4.5542898579917895e-11  9.7271931257865181e-11  4.2077313753844550e-10  8.5986264624215067e-11  1.9081119494325340e-10  1.7229113249890955e-10  9.3261810468223605e-10  5.7270640836729050e-11  2.0895362206348789e-10  1.1601546404730329e-10  1.0994135733444760e-10  7.7457143576011211e-10  7.7383493004534283e-11  8.6467460913649092e-11  1.1331589148895603e-10  1.1080736592704855e-09  3.7977195370687366e-11  6.9834059813159077e-11  2.7603423034145359e-10  3.0422051478003668e-10  4.0802952213855576e-10  2.0084685282202061e-10  2.0631668883967752e-10  4.2520955743494221e-10  2.5637983610524213e-11  1.0472636628233007e-10  1.3475913166401826e-10  3.5075219014078513e-11  3.1752643199275534e-10  3.5786391426099504e-11  3.6850517126638456e-10  1.2983260649412482e-10  1.0871242070124633e-10  1.8192257747223554e-10  5.4424075318088252e-10  7.5690144566297055e-11  2.3591117082812280e-11  1.3675379432546442e-10  8.5366580901558394e-11  5.9208527911599258e-11  6.8563761145401989e-11  1.7482548068741910e-10  3.8413125086149311e-11  2.7342922525060850e-10  2.5452386803849724e-10  1.1995729428689619e-10  1.2843150032129329e-10  1.0772021886261439e-11  6.7901157804647071e-11  1.4691975447736451e-10  1.6956212975505330e-10  4.9998880105513699e-10  3.4700103721099903e-11  7.9775264327848242e-11  2.8573775822633367e-11  2.3194921160945112e-10  1.2156478375413024e-10  1.9189907464820675e-10  7.4448410697276252e-11  8.8969545379147714e-11  1.1846844026752139e-10  1.9983842383190467e-10  2.2822571219589473e-10  2.5000361524478145e-10  4.6022321769534718e-10  2.2926897937075583e-10  2.0363105433344597e-10  1.5079691548287578e-10  7.8417873736436423e-11  1.5999529192438617e-10  1.6602907505859606e-10  6.3246337976480047e-10  1.3656238592215099e-10  5.5170702981709073e-11  4.1531327235942178e-10  1.7834978420419888e-10  2.1126960067365197e-10  8.3082623605027049e-11  2.8789773472292180e-11  4.2909924249684253e-11  9.3413483090368879e-11  7.1093770291788511e-10  2.9090214349592849e-10  1.7583409031110751e-10  1.4233220977657796e-10  3.4975417343010275e-10  6.6134742396734555e-11  1.0381345727180295e-10  3.6933580575957753e-10  2.1378311512397219e-09  9.7465074600974206e-11  2.7516600722196778e-10  6.1080985224700174e-10  1.2387108891000012e-09  1.9533525397429860e-10  1.5212950115623149e-09  4.3535256590318031e-10  2.2730505463612618e-10  1.1511920014809772e-10  3.8099174096334454e-11  6.2024841720640725e-11  1.2840273643899457e-10  1.4578296866889624e-10  5.7541691707225733e-11  9.0662842782145940e-11  1.0668409219688369e-10  1.1763934413721774e-10  1.8163028731936036e-10  5.1610082099083017e-10  3.1575108944113462e-10  1.7138316331295316e-10  9.4249127673341825e-11  5.8221586773403783e-11  6.0024209914658061e-11  7.3548480028495928e-11  1.8468277729759570e-10  2.5885810270997127e-10  1.0591675148534203e-10  1.0731375691491838e-10  2.3607602499343296e-10  1.3649473880464893e-10  6.7946999155122629e-11  5.6878310941749310e-11  1.0195498479940018e-10  3.1459483521023457e-11  1.9907817684761384e-10  3.4388114548236163e-11  1.6109477679490061e-10  1.8278513853819004e-10  1.6592210973651689e-10  4.0302700652149958e-10  7.6659655206884603e-11  7.4775794126407377e-11  1.5643620685035472e-10  3.5298408212312544e-10  1.4985416421491848e-10  2.6140359748773947e-10  1.0806557935980747e-10  1.4380664162841889e-10  1.6963163371781929e-10  3.0001047918482436e-10  1.2349891372570380e-10  3.2540878467367219e-11  1.2289255807951082e-10  1.1423199560442502e-10  1.4721004051816904e-10  2.5845405544828018e-10  1.7511511280698526e-10  3.2917793821362722e-11  1.3050582609015949e-10  2.4155548481455861e-10  2.1457577432536597e-11  3.3824743645001090e-10  1.6240651280434258e-10  3.7029167401557922e-10  1.2166930913483436e-10  2.5250688591671802e-10  3.2209418052306609e-10  7.2197811945897564e-11  1.0610736633181474e-10  2.3839344303723067e-10  6.2079810018482253e-11  4.9097423488752966e-10  1.4290195020585007e-10  9.6824769369601592e-11  1.1556163038926085e-10  2.2097324889573251e-10  5.9189602744373676e-10  4.6279496136680903e-10  1.6871127082824395e-10  1.8916945790308697e-10  2.2683157971376104e-10  4.0917532118685789e-10  4.2568159921845545e-11  2.3874972777021840e-10  7.4835914233056719e-11  1.2777981348765341e-09  1.1199169700004315e-10  4.5417548392473215e-11  5.4847010100038365e-10  3.4457667252645058e-10  2.4579525888008446e-10  2.4104190064059184e-10  5.9321428258888473e-11  1.5214728055167996e-10  3.4735160028042029e-11  4.5272120884921736e-10  7.7808775871018895e-11  1.2403722706203570e-10  1.3395625755425159e-10  6.8389492150639037e-11  3.5237545643429178e-10  3.6696416524231800e-11  1.1369445495521129e-10  2.5850878382642477e-10  1.7592012923985510e-10  7.3740957888578899e-10  9.6032479806838632e-11  5.9828888603238314e-10  1.4834589112118405e-10  3.4156780760578068e-10  5.5382027571569604e-10  2.3498532198946560e-10  1.5358362123599172e-10  2.7193116159176289e-10  4.8704902489778373e-10  3.9179519858586567e-10  6.7454284424619676e-11  5.1314384367473649e-11  1.6299317799449101e-10  3.6847951044529246e-10  2.0033662127074496e-10  1.1863172940481660e-10  1.6256987022768591e-10  7.9879262832232515e-11  7.0887151833611958e-11  2.0934355000998972e-10  5.7830053739803896e-11  2.1859107484036370e-10  9.3548430622010185e-11  5.1222451575076129e-10  5.7098244742828398e-10  8.4052856740586749e-11  3.6388233206059626e-11  4.4938036884439316e-10  6.6876469769194495e-10  2.5350200919676855e-10  9.9867424633187909e-10  2.8818401746026906e-10  3.2295195472557568e-10  2.6372049625064061e-10  2.6021756037613349e-10  9.9797206036577704e-11  2.6132017253502859e-11  2.0174455887409995e-10  9.6161783092623610e-11  2.1189231619348344e-10  7.5401982561620338e-11  1.3221947732945705e-10  2.0574942463512035e-09  1.7418780533036031e-10  7.7260809427295418e-11  8.6344196203761948e-11  4.1757491157575714e-10  2.3326121339345345e-10  1.8903502499689046e-10  2.0607067717967026e-10  4.3418483928042286e-11  7.5977281209025848e-10  2.5512682391856511e-10  5.7624938021565796e-10  2.8264901978845381e-10  2.2797933256220718e-10  3.2147874270261359e-10  9.2209083126376387e-11  3.0340252751102167e-11  3.2295268208238295e-11  3.7397460483407537e-10  2.9223320719316417e-11  1.0217897979971572e-10  1.0985997604275660e-09  7.2556507548470842e-11  3.3510825277639141e-10  2.7036679913691642e-10  6.4162663676908269e-11  5.6880992055011174e-11  1.6229945669289471e-10  2.5096435023456027e-10  4.5464403219094055e-11  1.0618949532623160e-10  1.6632227012415865e-10  7.1529962075577038e-11  1.8181505445360987e-10  2.0860772952467430e-09  3.1937869748203387e-10  3.1664184619312671e-10  1.0618527802577934e-10  1.0731748839976974e-10  1.7856583295520719e-10  6.8022343158824820e-11  1.3228656883975445e-10  4.9345626878481398e-10  8.2713278290584630e-11  2.4079611857889484e-10  2.3772618483427160e-10  1.3952300754267511e-10  4.3244454028159790e-11  6.5333193536340830e-11  4.6140349382105198e-11  9.2033198457798356e-11  1.0810028790957908e-10  2.1352188801205024e-11  5.7694155624994825e-10  2.7349303284745122e-11  6.3803800405936733e-10  1.2207763804742088e-11  3.3316478610150413e-10  2.0038856576964602e-10  2.6002632913739281e-10  1.0309730372706642e-10  2.4367379431239447e-11  8.3599216761278410e-11  2.6641531269352926e-11  2.1802785636713589e-10  3.7887399474355128e-10  2.5732821763822777e-10  3.2344717113867441e-10  1.3340509847034369e-10  8.4400181600677799e-11  5.4456143291693806e-11  3.6949222319230525e-10  5.3003897107154034e-10  1.1187086140254156e-10  9.9553927421073014e-11  1.4187229598060319e-10  7.5602278797749435e-11  4.4863457780088296e-11  4.3656189703928548e-11  2.5864834179175767e-11  8.5737392040660024e-12  1.5555348073061786e-11  8.2956145057700599e-11  1.6522531903215278e-12  8.2276283431851574e-12  1.8672254550719990e-10  3.5630771935791615e-09  2.0697319878197660e-10  3.3875248790508840e-11  2.2644142702714197e-10  9.9087425415996352e-11  1.1727842148276225e-10  4.3081319903194194e-11  1.3882073017109675e-11  7.0905017750758678e-11  7.2218069675299660e-10  7.5100636158058250e-11  1.8849905701963950e-10  3.3624734690278446e-10  5.7081715232170037e-10  9.0717152297420475e-11  1.0066385490280438e-10  5.5332524214683782e-11  7.2800310099487140e-11  1.0314761656233989e-10  5.7100864470454311e-11  7.7535180726980438e-10  5.8934481209882248e-11  2.7622596212148344e-10  8.0718070435386881e-11  1.2214207317627018e-10  3.2161391033981219e-10  4.0816972689434036e-11  5.3264187215767464e-11  2.7795034078613469e-10  1.0625401220253670e-11  1.1952781658774083e-10  8.1432782681577515e-11  6.8755033503137182e-11  5.7417384712140659e-10  1.6879771398023959e-09  3.6470655132100497e-10  2.8279518749466253e-10  8.6309435572490462e-11  7.2399719065094309e-11  2.6536950681327079e-10  1.1980371410511969e-10  9.4531724548488015e-11  1.0023875446563935e-10  2.1792074343491459e-10  7.5714548262178764e-11  4.8116986833585475e-11  6.1414243651703679e-11  3.7095223758883768e-11  8.5388084072494931e-11  1.8641219765122557e-10  1.6817828889737314e-10  1.0915481458096934e-10  3.3901072593403712e-10  4.5038692410716618e-11  1.4084625878428363e-10  5.2430653369676184e-10  6.1183480188294026e-11  1.0265802943796089e-10  2.1162523150539376e-09  6.2112748105520086e-11  3.4771948712504012e-10  5.1919745291529699e-10  1.5457463586622202e-10  1.2221680975069136e-10  1.2536866845723154e-10  7.8922669705276091e-11  2.3791861664220661e-10  2.8702676760342122e-10  1.8030244354521652e-10  4.5934252733302344e-10  4.4137670906524528e-10  1.2860980248115678e-10  2.1992154493335401e-10  6.5456839337333162e-11  8.5975184189366802e-11  6.1339038642976672e-11  2.4470346200513792e-10  4.0173963401894593e-10  3.0978607886254237e-10  3.4302199071799819e-10  8.6735575759666739e-11  2.1311315564832513e-10  4.5730602618823908e-10  1.8205112714744452e-10  5.1557687702402579e-10  1.7699690152919869e-10  1.3452196975764756e-10  1.0915555435017692e-10  4.9210803123466182e-11  5.2320656672921326e-11  3.7100954918382043e-10  6.3694582509531971e-11  6.3443226450692204e-11  1.3239846543686294e-10  3.2529848558551822e-10  3.5924126431371104e-10  1.5704304585966723e-10  1.1124018235939206e-10  6.0622483120595614e-10  6.5280411648730661e-10  1.6410718524321306e-09  2.6897632036125235e-10  1.8905118427848123e-10  4.3907830303903838e-10  4.6883566282051560e-10  1.1808077430205704e-09  3.0338264672434400e-10  2.5329770684204376e-10  2.9621936078799781e-11  1.2826006372716325e-10  4.3766104302888890e-10  7.2068161768486314e-10  2.2274956886577096e-10  7.3675286943737235e-10  3.1210980121154271e-10  1.7624486037034871e-11  5.1149166929369990e-10  3.2073690889265182e-10  3.7221908966460145e-11  3.2903000878450223e-10  4.0428221197590111e-10  5.4475060500403655e-10  1.4507835302363703e-10  7.2028609199351557e-10  1.9543772423245688e-10  4.4538471138940369e-11  1.2415139291542086e-10  1.3198213675030876e-10  2.8205152781159377e-10  7.3204140361634461e-11  2.9651615706393294e-10  1.8425536115718510e-10  6.3399046533397772e-12  1.1648155275578563e-10  5.6037635523320396e-11  8.8653165269387998e-11  1.2393354305348513e-10  6.1072319066996189e-10  4.2170250809209594e-10  3.0143180970390833e-10  1.1308426026703160e-10  1.3901908059741317e-10  8.9100449287275388e-10  5.3762971858935930e-10  1.4286442837803228e-10  1.4135737268306688e-10  8.4684521334068217e-11  5.1302590816145421e-10  1.4887202842071518e-10  1.8570894411511783e-10  9.7797455174170916e-11  6.6777792501952589e-11  6.3051793750150942e-11  1.5788543358911522e-10  9.0384854026809285e-11  1.3843499624169703e-10  4.9045228581991687e-10  7.2749397162097559e-11  6.1956546488366969e-10  1.3430108832927765e-10  2.2437624309101785e-10  3.0403139259297612e-10  5.5225296627099135e-10  1.1025362591576276e-10  3.9633083789418473e-11  5.8397102570570879e-11  1.3791863743389083e-10  1.5065185316332797e-10  5.5593141802753673e-10  7.9532117547544215e-11  1.4896271170078751e-10  2.3594343825188833e-10  1.3212004793659876e-10  2.4714209919129745e-10  3.4071551430578884e-10  3.2266559172333897e-10  1.1478631482272565e-10  1.8809968093506414e-10  1.5558567905173554e-10  2.3088072907069376e-10  2.9924718202499193e-10  3.8763104288508223e-10  2.0384911830796071e-10  2.1484506221903677e-10  1.2434198111042554e-10  1.5785340165660307e-10  3.0147814868129037e-10  4.0164994849535985e-10  3.7292009352144681e-10  1.6186691516037180e-10  2.1359539165872202e-10  1.9681634271744447e-10  1.5004765978413042e-10  4.1060898373447588e-10  2.7566242922654959e-11  1.0955222334263377e-10  1.2966970737889406e-10  5.4259778027406353e-08  4.2298240581241309e-10  1.8273481558592118e-10  6.1688593561881771e-11  2.6588245660845264e-10  1.4651234288426092e-10  6.3161532217813519e-11  1.0445952161525783e-10  2.0656500451865362e-10  2.0931022790339381e-10  1.9226900296142035e-10  1.9954657093353714e-10  3.0165428620211165e-10  6.0140264569879642e-11  7.9182682411566805e-11  2.0701317354065782e-10  1.2367488307536004e-10  3.4086180975256522e-11  4.2737253522920003e-10  6.0676622949227059e-11  5.9882117086849497e-11  1.9224433049291187e-10  9.4375609645819059e-11  2.4438234366381498e-10  3.1074103099206732e-10  1.9897623258262230e-10  8.0267203157193325e-11  1.8227545686073119e-10  9.4361112735902570e-11  2.7426133120931928e-11  8.3763990647919116e-11  5.0831856925751299e-11  7.0624680417049160e-11  2.1634499739440089e-10  4.4613350274841554e-11  6.3548136260742037e-11  8.8166955431475551e-11  8.7827844481449145e-11  9.2667852684413093e-11  3.0158637409032257e-10  8.4447037574745929e-11  1.7712317852127321e-10  2.0277352540565808e-10  9.9666337010622681e-11  1.5665177428083242e-10  3.1770868366814845e-10  1.2217016045115128e-10  6.1867184865171242e-10  1.8280063838450069e-10  1.5194432226568022e-10  1.4092242590751478e-10  2.2561264195657051e-10  4.0734696499257435e-11  3.7124116127816848e-11  7.4592932342529039e-11  5.0905027282711047e-10  1.8794778830530481e-10  6.9732766909463859e-10  4.5465495265190320e-10  1.2182924839860879e-10  5.7778268628401025e-10  3.7111477754231459e-10  2.0046322757499711e-10  6.8985084658204614e-11  8.8718303601905871e-11  1.6683333196481775e-10  1.8814457568519893e-10  3.6199581710096989e-11  5.2795782448108668e-10  2.8348249643959560e-10  4.3460206199105197e-10  4.5411148206322062e-11  3.9444242662417852e-10  2.5854717398391536e-10  5.7105956393327235e-10  7.7226168070733002e-11  5.7702087390465905e-11  2.5001562651381226e-10  7.0623601587018443e-11  3.8621562550645547e-11  1.4046124367004688e-10  2.1878207996146688e-11  5