<?xml version="1.0"?>
<VTKFile type="UnstructuredGrid"  version="0.1"  >
<UnstructuredGrid>
<Piece  NumberOfPoints="4852" NumberOfCells="9430">
<Points>
<DataArray  type="Float64"  NumberOfComponents="3"  format="ascii">-1 0 0  -1 -1 0  0 -1 0  0 0 0  1 0 0  1 1 0  -1 1 0  0 1 0  -0.5 1 0  -1 0.5 0  -1 -0.5 0  -0.4999999999999999 -0.9999999999999999 0  0 -0.1608775713298009 0  1 0.5 0  0.5 1 0  0.1967448868031411 0 0  -0.3403133556870611 -0.1759006911891412 0  -0.336490959381658 0.2240872452432627 0  0.1740148876647887 0.3459132730825609 0  -0.1848162421806764 0.5547209773600582 0  -0.5032989026988177 -0.5376326694594906 0  0.4905453977915681 0.257078042652553 0  -0.06418305509449893 0.2008174974318374 0  0 -0.5061325913258391 0  -0.25 -1 0  -0.5610761897934934 0.57717666597442 0  0.6614819576562052 0.6338552517156161 0  -0.176612621111848 -0.5379217786052783 0  -0.5385937578072861 0.02536066996204972 0  -1 0.25 0  -0.2058870935308849 0.02373768615765357 0  -0.6542813785924118 0.3091993520866861 0  -1 -0.25 0  0.03922075226944758 0.5914523974601511 0  0.1951571014067239 0.1287268769098826 0  -0.1361475655191463 -0.2199198087565656 0  0.3710515908121918 0.6143060351214698 0  1 0.25 0  0.5355652144809806 0 0  -0.75 -1 0  -1 -0.75 0  -0.644685397594212 -0.3231842885372052 0  0.25 1 0  -1 0.75 0  0.02757118475249542 0 0  -0.25 1 0  -0.75 1 0  0.9999999999999999 0.75 0  0.75 1 0  0 -0.02898318711980711 0  0.05431540661606593 0.142079424090063 0  -0.07758192029828742 -0.02780535738597683 0  -0.7008438755581173 -0.1324847004008607 0  -0.3211528920793719 -0.3475092363300749 0  -0.339858577670014 0.4370858301593833 0  -0.09985520012491457 0.7640634880130041 0  -0.382878354386621 0.7024751320440727 0  -0.05467770206055561 0.3986229073202144 0  -0.07874184745627449 0.07186193833679258 0  0.3589971215816254 0.3694424461709842 0  -0.7157727630823567 -0.7299755571695283 0  0.4118865628797668 0.08988998044662218 0  0.6899750961227146 0.1917082599669338 0  -0.747130943492079 -0.527039914757488 0  -0.3872284599951419 -0.7107626865315689 0  0.721583429592807 0.4187014897919737 0  -0.7758573194615529 0.09691440042881024 0  0.1967411471608829 0.6984838772218023 0  -0.1984109888862486 0.2882414837382146 0  -0.798755050450396 0.5773155935649958 0  -0.7166497852515504 0.7662403907094459 0  -0.0524498713654788 -0.3732163172129268 0  0.5846643787329259 0.816572216499786 0  0.8203688395397332 0.8059769662896069 0  -0.1050554803065148 -0.6975498704013714 0  -0.5141746673928591 0.1625884264054298 0  -0.2015456706219266 0.1254977800433654 0  -0.3588555178730214 0.07524339216667308 0  -0.3648087253754366 -0.05240430598761958 0  -0.4963373037325159 0.3948160594396665 0  0.375 1 0  1 0.125 0  -0.0117641479692121 0.07112723830327515 0  0.06221593986036551 0.3915778717661045 0  -0.1711484657631957 -0.1224305850900516 0  -0.2427219847289181 0.7735311521295952 0  -0.625 1 0  0.5334341467039921 0.4542646349791816 0  -0.5757339766776018 -0.8301297849251281 0  -0.2575294609454215 -0.7837633182843928 0  -0.3193323002547014 -0.5086356959668781 0  0.8339875416640087 0.5952664243329104 0  -0.5484370286622733 0.7907151869351299 0  0.125 1 0  -0.0673512787715396 -0.09341691536957215 0  -0.4942086586825439 -0.1433484281625099 0  -0.875 -1 0  0.02960404899204166 0.04154146183264591 0  1 0.375 0  -0.875 0.9999999999999999 0  0.05731891045740752 0.7938365483572641 0  -0.1959236534925544 -0.3737480710005871 0  -0.0727021629001989 0.5708199888210229 0  0.2364909124402677 0.5177310560892003 0  -0.7921140024424825 0.2293001288041835 0  -0.4946500874700269 -0.3892869402577815 0  0.0002467559155852527 0.2708905299834649 0  0.5098994192868955 0.6401439037529363 0  0.3988196088432182 0.8072809674677187 0  -0.8059848456403458 0.4243071787331695 0  -0.06430011735166809 -0.2204898526757365 0  -0.7093620265577347 -0.01422603618942127 0  0.09055446681966466 0.05239643008208881 0  -0.4777405530279638 -0.2514653269085796 0  0.7238578018316879 0.08290283586795644 0  -0.8083765359804921 -0.4110991627273438 0  0.3375943905130344 0.1535334042696559 0  -0.7942495990455227 -0.250892974849513 0  0.2364009121713426 0.2541827858621566 0  -0.9999999999999999 -0.875 0  -0.9999999999999999 0.8749999999999999 0  0.184351456662098 0.04784612753646857 0  -0.2471232112052525 -0.2292414557437404 0  -1 0.375 0  -0.1708465986646321 -0.04178607184458299 0  -0.6486002987494857 0.4672669877967269 0  0 -0.07736776745332727 0  0.08052277428163082 0.259686362969054 0  -0.375 1 0  -0.216630445765024 0.4245351254302757 0  -0.1198297117413998 0.1500052149590496 0  0.1332765050118782 0.5539698524634866 0  0.1320218688569902 0.1936282377888317 0  -0.4744380781164647 0.2693508481223674 0  -0.04609094805542573 0.0138897010689236 0  0.851401515179938 0.3702922908835758 0  -0.9999999999999999 -0.125 0  0.2855335829797975 0.836841589765594 0  -0.11054857912423 0.3128217134300137 0  -0.125 -0.9999999999999999 0  0 -0.7575037395175259 0  0.07821397079968176 0 0  -1 -0.375 0  -0.375 -1 0  -0.625 -1 0  0.7474787146812756 0 0  0.625 1 0  0 -0.2918843213980812 0  -0.9999999999999999 0.625 0  -1 0.125 0  -1 -0.625 0  0.3284075310660084 0 0  0.004929205892015135 0 0  -0.125 1 0  0 -0.006571003003944568 0  0.9999999999999999 0.625 0  1 0.875 0  0.875 1 0  -0.5622261136990651 -0.6764952143460868 0  -0.004563171373112695 0.1600704294963614 0  0.3624464426833541 0.2630308625771142 0  0.6529994577023815 0.2940355910514357 0  -0.8545173915781196 -0.646607327336001 0  -0.8635019455905169 0.7871584153522222 0  0.4304960495385323 0.5013745780583441 0  -0.3983020517552586 0.8557822553167467 0  -0.7786777737708738 -0.8747651045874042 0  -0.8703677656271722 -0.7843610444399837 0  0.1541642603832805 0.8421530434730774 0  -0.6583085712158205 0.1526211298093712 0  -0.5773463022708671 -0.06424119650654109 0  -0.8544550180113111 -0.06259073166155613 0  -0.2956913825945548 0.5620247856505222 0  -0.4234053371714535 0.5697830676768846 0  -0.3757517685497642 0.3309131789092377 0  -0.6180328343402282 -0.2165061868927636 0  -0.2725656246268675 -0.09011110662563819 0  -0.6396545699051625 -0.5886458869077053 0  0.8597085764967092 0.266070783860118 0  -0.03276552789962325 -0.03294327580591268 0  -0.05459510762877189 0.1144592402296265 0  -0.1335291276482922 0.4318436377205253 0  -0.1196045676329873 0.03235890023122649 0  0.5377820123610877 0.06464906591604938 0  0.5792808324881192 0.3594914296564415 0  0.6913564017044825 0.7748717684090505 0  -0.793581435278192 0.8811596401034065 0  -0.6429010437209834 -0.4293371536367773 0  -0.117250047951361 -0.3969680184644044 0  0.8721834892881002 0.4887827535800552 0  0.0760227967632606 0.09377797541650318 0  -0.6645859179788486 0.8681827923644307 0  0.454697577108491 0.3507342382723692 0  -0.02621207489089476 0.03578179431050009 0  -0.4085915420178822 -0.4405337504751256 0  -0.3614419509430268 -0.2690260393130289 0  0.3235950518817074 0.4817951920418411 0  -0.1958145912985424 0.2013897532750541 0  0.7056706993799752 0.530988860669804 0  0.2618814979999349 0.356064264216798 0  -0.3764925821623159 -0.8519265621628288 0  0.1091986154091215 0.6819453137402071 0  -0.2846374834358388 -0.6121903876299128 0  -0.44082787280955 -0.6202850711469856 0  0.2962079937058594 0.6923338719981249 0  -0.8747814260264976 -0.1748315677223537 0  -0.179985656804442 0.8549223805222085 0  0.4547969255197699 0.1635027853923484 0  0.2803131279217276 0.04669017759284027 0  -0.1421987545137076 0.6573918756367627 0  -0.0113295236556453 0.7085768247799675 0  -0.05332838039757143 0.8750071772050206 0  0.005497498970128105 0.469727015938593 0  -0.3874462773220065 0.1534505393276945 0  0.5491975364543135 0.1333382801517453 0  -0.475671032613069 0.6823937178190641 0  -0.8514358553500979 0.3327728692335089 0  -0.09220930822808066 -0.5365829210205443 0  -0.02770563550352412 -0.5527486986732646 0  -0.2133522892453702 -0.2878192742443459 0  0.8684854848542225 0.1516021754995216 0  -0.1699065099781265 -0.6612309054472827 0  -0.8891301883690234 -0.5284865688629052 0  -0.2814763218818079 0.3382333825276228 0  -0.676162651855689 0.574085851278069 0  -0.8974141895459629 0.5314176882016058 0  -0.8983883979438047 0.6609824481005475 0  -0.6442072729337677 0.07232604751949336 0  -0.8590608142421362 0.02852914981797076 0  -0.8881055240114375 0.1678407050417054 0  -0.1299499799813378 0.2288660333304761 0  0.1604341617299715 0.4461782955140502 0  -0.04349873156918503 -0.1257870918026286 0  -0.7533961839200465 0.6700229010364417 0  -0.6023565398867694 0.6979283325258123 0  -0.2541956533739107 0.07851673749790239 0  -0.2491735552541119 0.6487669678000989 0  -0.0273810592045036 -0.006375078634808557 0  -0.4943151453914182 0.877008893821132 0  -0.4767027820356386 0.4904830099770228 0  -0.2902256491833599 0.1440233147990141 0  0.00232018105211652 0.02358784682248113 0  0.7795464667138663 0.6837412949152033 0  -0.4696303074042494 -0.8248651184021962 0  0.27201846219162 0.1950323922959327 0  -0.1486637362780243 -0.8633675824374996 0  -0.06418583943377261 -0.8294368803345497 0  0.4433602845355398 0.7060969442188473 0  -0.1174501259185472 -0.2882029245824196 0  -0.2647055927504904 -0.02620381540643335 0  -0.8938486682334352 -0.8965101385029068 0  -0.5727382805753665 0.2371685196773852 0  -0.4759409304777417 0.08755727043892833 0  0.4912132305563298 0.8259230103454603 0  -0.02846128232161791 -0.2602185757054062 0  -0.3099976855424424 0.8753955757940446 0  -0.1428454823810349 0.08048978785856387 0  -0.4690841841081643 -0.03494843079720428 0  -0.387778960387362 0.01209497399323143 0  -0.2915378497420824 0.02755128491990405 0  -0.3846718891678268 -0.120555812996659 0  0.8881985007647896 0.6981339318737989 0  0.7927908196981657 0.9108700599346125 0  0.5766814238491866 0.2081295153423199 0  -0.5596181379874301 -0.4695997712735803 0  0.5988891143856789 0.7061360613054584 0  0.6782454851394378 0.888465214853274 0  -0.05092273978301175 0.3030552587049394 0  -0.9022866583874961 0.9047459807830753 0  -0.1273706294486982 -0.06713838265899423 0  -0.1688167067403702 -0.1826
[...]
<PointData  Scalars="w"> 
<DataArray  type="Float64"  Name="w"  format="ascii">1.7453877675993206e-10  1.0300205693566312e-11  4.4376520926048117e-10  2.5834735915292444e-09  6.2425335404426492e-10  1.5566729271648516e-12  8.6578566403776350e-12  7.4854557341641147e-11  4.0470743043834646e-11  2.1130786071139472e-11  1.0804733895894498e-10  9.5897655591422735e-11  4.0325943378802864e-10  2.7597034022944439e-10  9.1093298698539703e-12  5.2498089668759118e-10  9.1069278619800008e-11  7.2390952942978598e-11  1.3086144857735812e-10  3.5615874131142063e-10  6.7054180628061243e-11  1.0428620768835486e-10  5.7544285811332174e-10  4.1471784780492831e-09  5.7537296697214894e-10  1.0861740110694135e-10  8.8849612238275881e-11  1.6921218194214617e-10  7.6792869839911474e-11  1.8828981718702487e-11  4.6948922626875243e-10  9.8135135809188606e-11  2.4379235148718287e-10  1.8119144136517084e-10  4.5532087656161443e-10  2.2536022046373985e-10  7.8136822674788368e-11  4.7757182929199659e-10  5.8740299861152532e-10  3.1128204024967940e-11  5.2351299937646356e-11  1.0839697743337627e-10  9.2480079098054934e-11  1.9525916072475795e-11  1.0487021083053183e-09  8.8134488501379091e-11  3.1956759167432693e-11  9.5917025196325371e-11  1.2482292213688736e-12  5.8855801477909876e-10  2.2096773739252196e-10  2.1371282631840257e-10  8.2726128425751848e-11  2.5233578094357226e-10  2.5988699873198283e-10  2.0532050630138635e-10  3.5812090579547757e-10  8.9345402474934268e-11  5.7939066773297514e-10  2.5182520458873830e-10  3.1473572052707751e-11  3.1505112091054422e-10  3.7845328587874858e-10  1.4414306795045012e-10  5.3912734999821917e-11  1.7791678270993444e-10  7.0720363576574160e-11  1.7882737634311447e-10  2.3360981537191471e-10  4.5941327349986918e-11  6.4937184420491656e-11  4.4056330294849346e-10  5.6731533039723204e-11  8.8133724133953164e-11  1.7880487928767692e-10  1.7066466105149598e-10  2.5725264447968164e-10  2.9082206301278531e-10  1.8321548328069443e-10  1.9586457937526964e-10  6.4909067168747581e-11  2.5214182421623394e-10  2.6269412693748222e-10  2.0139108419552365e-10  2.3427686940529675e-10  1.2503134370594891e-10  4.6333130968003014e-11  1.0976012544087081e-10  9.4779385292648728e-11  2.5195968165364602e-10  6.9070565060843642e-11  9.9251973260256600e-11  7.8405628621964173e-11  9.4407580588197651e-11  3.8914179295591986e-10  2.1017970678400358e-10  2.5451035559370174e-11  6.5255749467347849e-10  2.5662720369038349e-10  3.1430483128850469e-11  2.7743240695477007e-10  4.1178809777648423e-10  7.1202895173171161e-11  9.7126103582135294e-11  1.5710785395504062e-10  6.3821193161863222e-11  2.7452434062219476e-10  8.3343088360549746e-11  1.4717963697769799e-10  6.6101297002901209e-11  3.1136367875267099e-10  2.4799385871041118e-10  2.3179788357920760e-10  6.4593304561630713e-10  1.2116225556093917e-09  1.4948987398936593e-10  1.6544372237838541e-10  1.0252090432385380e-10  4.5930365899726201e-10  2.5916783782338754e-11  2.5543897834906793e-11  2.7796934006637833e-10  9.1510861501690679e-11  6.1306128098684657e-11  5.0264693836208213e-10  5.7479905151393822e-11  5.9623856756136292e-10  1.1867848673123554e-10  7.7031155151306345e-11  8.2671886142648551e-11  3.4282404702928755e-10  1.7285805441466475e-10  4.6607252344052808e-10  1.3511248060847356e-10  6.2031870911756933e-10  4.4345181110834287e-10  1.0919758505348378e-10  5.2012165227940706e-11  1.3024993027200507e-10  2.5939511118364654e-10  5.6437651038398422e-09  6.0358961878276614e-10  9.3144766512688507e-11  1.1895459604331428e-10  6.8620103577603723e-11  6.5654106049438575e-10  8.5727105198027375e-11  3.3403419710965736e-10  1.4757084757490031e-10  1.2415167817248135e-10  2.0032571985499429e-11  2.8332801380556209e-10  1.5717744772108028e-09  5.6953781175251563e-11  9.5928275172732317e-10  7.8790796974750837e-11  2.4206249438064257e-11  2.3977520973752785e-11  1.2213122530819971e-10  5.6119983438123341e-10  4.4490387054318806e-10  1.6105874915149118e-10  1.1541496593263418e-10  1.6677633470025630e-10  1.8728224126243648e-10  5.8577787933379839e-11  7.8069103684542946e-11  2.0369069127713774e-11  6.0020638925274885e-11  2.9592448255704745e-10  9.2392402955091539e-11  1.0633373415827197e-10  8.2660678312408791e-11  9.6518152552465426e-11  5.3334381559332280e-11  9.6048930917291907e-11  4.5663946832176278e-10  5.7038854719336955e-11  1.6408123863076810e-10  1.7140921862165837e-10  4.6463846277138311e-10  1.9871744789163230e-10  2.8306635728022270e-10  1.4296724279516869e-10  1.4492730772760700e-10  1.5066475106978973e-10  2.1155396099075741e-11  2.8861130408581681e-10  6.5455618847171252e-10  2.5490270485045042e-11  2.5149358360809509e-10  8.9519891241326958e-11  1.5782935228051711e-10  1.1078986070865968e-09  1.3722932016692662e-10  1.6413822220246329e-10  2.3421588585688861e-10  2.8821516843227825e-10  1.0595245866447835e-10  2.0482372830325794e-10  4.1899166119107610e-10  2.1944832142263380e-10  2.3886162935937944e-10  1.1012498690027640e-10  1.1268929004553380e-10  1.1336463547890057e-10  7.1375807799317893e-11  2.0855871410968169e-10  8.8532934093366051e-10  7.8155957764385769e-11  1.0844660372454220e-10  7.7830735776834002e-11  9.7132433234118151e-11  1.6255551245174101e-10  3.7737284236388201e-10  7.9624987319041916e-11  8.5340767634438479e-11  7.9932561427627391e-10  9.4199157111360362e-10  2.9214384894135112e-10  1.9986833384346133e-10  7.6773894085601118e-11  8.1203021098937749e-11  3.3764412296362790e-10  5.8837862258108288e-11  8.3784280962655177e-11  5.0242486064958312e-11  9.3656997406192011e-11  4.1569375685992958e-10  9.0692322350764189e-11  1.9762621839669615e-10  1.6654596194577029e-10  9.0059768621732107e-10  6.1960457788184485e-11  1.9959301239349042e-10  1.1556466911353227e-10  1.1250810044933655e-10  7.4588235999208686e-10  7.5457088963808906e-11  8.5506956878274536e-11  1.1821146438100380e-10  1.1080480664295932e-09  4.1013793048919741e-11  7.7688174053270701e-11  2.7935659198452950e-10  2.5646035682551517e-10  3.5722652210478720e-10  1.8310365383260307e-10  2.0466008223701023e-10  4.0512042179843505e-10  2.9454671889404370e-11  1.0569359717222756e-10  1.2853650527078486e-10  3.7630239108694459e-11  2.6876197766337885e-10  4.3795815621984892e-11  3.3461461573868659e-10  1.3627272159062474e-10  1.1062270888356800e-10  1.9182398568619118e-10  5.0410919697254986e-10  7.3340856463369071e-11  2.6962147314583400e-11  1.4467030411961797e-10  8.2439310201971182e-11  5.9550783478201730e-11  7.6200395748013516e-11  1.7937835562497496e-10  4.8981072008330562e-11  2.6403686679138591e-10  2.5449188859209327e-10  1.2904730206209716e-10  1.2876201290524351e-10  1.3658324155115096e-11  7.1509291850801807e-11  1.4664514615968376e-10  1.6908754058019331e-10  4.9768563030904247e-10  3.6987034648428737e-11  8.2111565764754410e-11  3.3430648851402568e-11  2.3889512045817368e-10  1.2595180110108629e-10  1.8579670183586869e-10  7.5310868505827969e-11  8.8192914027043969e-11  1.2075420589626866e-10  2.0313534623710778e-10  2.2412458470184588e-10  2.6157015304126932e-10  4.3811471896007813e-10  2.1473246175685629e-10  2.0994372083380936e-10  1.4509322075603968e-10  7.9658076240448157e-11  1.7027508129267072e-10  1.6529979176288798e-10  6.2452811157505556e-10  1.3014475952401994e-10  6.2254837328849361e-11  4.0729507132533875e-10  1.8972414694347088e-10  2.0885430787143050e-10  1.2717802069549267e-10  3.2693279324979997e-11  4.4919968548623734e-11  9.8931193045772296e-11  6.8014628389795272e-10  2.9306493569964051e-10  1.8104833533360555e-10  1.3692143960814498e-10  3.3406723596984244e-10  6.7398943502088588e-11  1.0934079093108584e-10  3.5227820988683666e-10  1.3659926255067988e-09  9.9438977835527904e-11  2.8272300142415625e-10  6.1302262018196723e-10  1.2296675655510077e-09  1.9724882216930190e-10  1.5274117005368532e-09  4.1895835587236042e-10  2.2598154282179177e-10  1.1549878096085820e-10  4.1826815585287148e-11  6.6078939820496510e-11  1.2696722672488638e-10  1.5705786939304503e-10  6.3764104892646658e-11  9.8836297507521014e-11  1.0732827851594867e-10  1.2798616894712180e-10  1.9245097424947638e-10  4.9772307282971771e-10  3.1914898477633668e-10  1.6652932453163029e-10  9.6130565801223496e-11  6.1819287454645847e-11  5.9284912898617087e-11  7.1021914401271736e-11  1.8253323600034418e-10  2.2783133268962575e-10  1.0622383416533976e-10  1.0585516393335466e-10  2.3922250850264225e-10  1.3657323543120645e-10  6.9779754691250375e-11  5.9646652735147569e-11  1.0562250637230901e-10  3.4292106568124492e-11  1.8730598929861440e-10  3.3028337299609733e-11  1.6125279777252170e-10  1.7954020189027577e-10  1.5183499392587204e-10  4.0030847007883537e-10  7.9665515548840770e-11  8.3211848434316399e-11  1.4541369069377658e-10  3.0954070926535790e-10  1.4352959593838512e-10  2.6342002473168599e-10  1.1105061244126504e-10  1.3611730346550697e-10  1.5763459600536136e-10  2.7873776566725556e-10  1.2764643924903279e-10  3.3811632921120390e-11  1.1806038187588778e-10  1.1246279131104882e-10  1.4838882875138751e-10  2.5355233846884242e-10  1.7129478479691134e-10  3.5029890580075800e-11  1.2987019899726178e-10  2.3045330645901684e-10  2.9064993441968515e-11  3.3088721713751378e-10  1.6393463572315613e-10  3.8899432182346468e-10  1.1231136498149874e-10  2.3800437797470015e-10  3.2596352066191886e-10  7.5879901690645963e-11  1.0567435352822876e-10  2.1855921857281479e-10  7.3370964165222466e-11  4.8208764131007994e-10  1.5990188240816356e-10  9.8496378368433417e-11  1.0895067470434076e-10  2.0977944428438143e-10  5.4272955347955438e-10  4.7741147241284474e-10  1.7992033424904522e-10  1.7267364916519401e-10  2.0914805222798166e-10  4.0236461359916454e-10  4.5664431432216836e-11  2.2664176699251231e-10  8.2293279389398886e-11  1.2402380912649823e-09  1.1848813476196460e-10  4.6203601240197744e-11  5.5019458838513180e-10  3.3141208352999787e-10  2.4754960404444808e-10  2.1145998947399682e-10  6.4197969579807151e-11  1.5380938235893262e-10  3.3636029500355124e-11  4.3912233579167563e-10  8.2273305453440526e-11  1.3772216720068617e-10  1.2779801753083434e-10  6.6388678032492006e-11  3.4879979573378333e-10  4.3227303181209697e-11  1.1809359977113325e-10  2.4499440981877600e-10  1.7910828497107481e-10  7.1354253571589424e-10  9.2752517538841751e-11  5.7693276377344563e-10  1.4792038190103701e-10  3.5456060158145120e-10  5.4851570756542817e-10  2.4405664405672203e-10  1.5511858272553294e-10  2.7230190026025249e-10  4.8077437123707085e-10  3.4578690608165644e-10  7.5568746192170255e-11  4.9705122994253018e-11  1.6381291826974028e-10  3.5708042201917500e-10  1.8681070084735657e-10  1.2696932218033777e-10  1.7142432944469199e-10  8.1641223971614235e-11  7.1581493145466124e-11  1.9966116676029386e-10  5.8243541266950822e-11  2.0766073810453659e-10  9.0835275432139249e-11  4.8106592407509029e-10  4.9731910906027946e-10  8.2153385585936739e-11  4.1826605018411952e-11  3.9659744203230256e-10  6.4922008031637829e-10  2.5924133177662509e-10  9.8524346574088337e-10  2.8841683272186760e-10  3.1754046149963348e-10  2.7250729009132761e-10  2.6620948640858207e-10  9.7823638134325160e-11  3.1314491386143860e-11  1.9473918175205881e-10  1.0602082788809898e-10  2.1535116185262394e-10  7.5679591338847630e-11  1.2424562020829371e-10  2.0396493072974629e-09  1.7705066940275245e-10  8.1011639221231002e-11  8.2890255557566568e-11  3.9967778296416408e-10  2.4319304871889431e-10  1.8997932450337194e-10  2.0829155704930816e-10  4.4794103282542852e-11  7.5746833675177322e-10  2.4253005362978470e-10  5.4447834082005395e-10  2.5285548194309489e-10  2.4227972470879565e-10  3.1203048845448671e-10  9.4442951794415836e-11  3.3045733964818300e-11  3.6019992830496383e-11  3.6822626844196588e-10  3.5811399256546594e-11  1.1666998541549678e-10  1.0198951113534037e-09  7.5202160544547359e-11  3.4995040326852880e-10  2.6283363736169166e-10  6.2049770103587613e-11  6.0221391258289300e-11  1.7996256138138154e-10  2.4568765639955796e-10  4.8542064385915845e-11  1.1350475090135746e-10  1.6129345718958144e-10  7.5982334163420021e-11  1.7052143481894937e-10  2.1216972077505282e-09  3.6196573553168633e-10  3.1969772719118561e-10  1.0701024014476277e-10  1.0786912107868769e-10  1.8772807071556121e-10  8.0163844346488775e-11  1.3460586401412926e-10  4.9898596111534929e-10  8.7076609969421142e-11  2.4234081485417853e-10  2.1579741029798624e-10  1.3920259757639699e-10  5.1348651430195950e-11  7.7594940668964958e-11  5.5233888844962354e-11  2.7752454916195552e-08  1.0651648514949802e-10  2.2098572045498740e-11  5.7113386848480700e-10  3.0580248670345553e-11  6.2148818139843801e-10  1.1661335155899333e-11  8.2685694218761540e-10  1.7484106034172388e-10  2.4806249405505324e-10  1.0498599789215736e-10  2.8635777308413111e-11  8.5557201396507676e-11  2.7977858015663661e-11  2.0725463979890577e-10  3.7267684282575080e-10  2.7139055463400171e-10  3.2733436718593473e-10  1.3418866334470817e-10  9.4204246876883237e-11  6.3296234013881423e-11  3.6090839463564512e-10  5.0286329046329480e-10  1.0625275765154052e-10  1.0092397295579503e-10  1.4691793557589428e-10  7.6607604100082567e-11  4.5682011777168202e-11  5.4471558146837511e-11  3.1825140831429245e-11  8.8606933315902863e-12  1.7776653405571788e-11  9.8270715363412360e-11  2.2011589699486044e-12  1.0813292832726823e-11  1.8586251933680208e-10  3.4930621367571356e-09  2.2455345211323644e-10  4.2390984757722426e-11  2.2058997516472909e-10  9.3432085263895226e-11  1.1291043630822186e-10  4.4109537493493596e-11  1.7001373630574028e-11  8.7493314091614492e-11  7.2701763542115120e-10  7.9985358167933338e-11  1.8363207473688106e-10  3.2389728418371898e-10  4.8648727218433200e-10  9.6423220375137742e-11  1.0176656011706731e-10  5.8383607097614722e-11  7.7052501072414154e-11  1.1206873379632113e-10  5.7637919989897975e-11  6.1169807423754903e-10  5.9331949953487561e-11  2.7816565329203614e-10  8.8258602208481976e-11  1.2786153010754643e-10  3.1217801521595349e-10  4.1578620348554257e-11  6.3044489229157228e-11  2.8662856212967091e-10  1.1909704390697919e-11  1.1383134066145656e-10  8.8269179084876415e-11  7.6759481080953523e-11  5.6214520446487102e-10  1.6158620706172198e-09  3.1822265819846165e-10  2.8919557341291072e-10  9.0798079253772493e-11  6.9452482751194769e-11  2.5520088554792911e-10  1.1796808446299004e-10  9.9452090156299623e-11  1.0485070688844470e-10  1.9920576161495797e-10  7.4270251740265387e-11  5.2786050061703764e-11  7.0603565239826314e-11  3.9799871268991669e-11  8.6793592559388008e-11  1.9152942530949157e-10  1.6258137613593029e-10  1.1194537817441967e-10  2.7421995316068989e-10  4.7292669871110322e-11  1.3619874034626804e-10  5.2230810649563019e-10  6.6751679662573657e-11  1.1790173622221902e-10  1.3597002784114856e-09  5.8411356716560808e-11  3.3689238156896048e-10  5.1196055514419738e-10  1.5818953318035304e-10  1.2873943122644762e-10  1.2596378596919204e-10  9.0049433867151923e-11  2.4759690947199391e-10  2.8620587866081479e-10  1.7770830575110517e-10  4.6837092275013376e-10  4.2346097459782019e-10  1.2196269277921325e-10  2.1140213159468626e-10  6.6720574285995873e-11  8.5061455960258962e-11  6.2719513820165631e-11  2.4013614046574196e-10  4.0069741661761418e-10  3.0792298179509235e-10  3.2451418090809383e-10  8.6191547347436882e-11  2.2768501064642213e-10  4.7961049380478036e-10  1.7228691403025617e-10  4.8179893217494674e-10  1.8335009829884359e-10  1.3811882189816237e-10  1.1142942891108423e-10  5.1309916284832605e-11  5.4437935462496596e-11  3.3092165000516046e-10  6.2954268378361273e-11  6.4774048615714717e-11  1.2976764719491738e-10  3.2180341268626781e-10  3.1962483204321225e-10  1.5786286324527062e-10  1.1756927739701408e-10  5.9126356967254335e-10  6.2902881600068686e-10  1.5976875971457758e-09  2.6779918625121158e-10  1.9869966307084186e-10  4.4281035694598548e-10  4.5566102633407180e-10  1.1663523451805535e-09  2.9692542967859090e-10  2.4637385026052750e-10  3.3025338246722281e-11  1.2954574726728076e-10  3.3111585910328587e-10  5.0706297905469732e-10  2.1247113231700813e-10  6.6203772611835762e-10  3.0551397785018402e-10  2.1424375431017623e-11  4.8201404202095204e-10  3.3308847698753553e-10  3.8823496461538952e-11  3.3439083440712524e-10  4.1386700716242800e-10  5.4471094074329925e-10  1.4585001209207365e-10  6.7339819248321850e-10  1.9575260108053329e-10  4.7423584029339745e-11  1.2754810469780057e-10  1.3290599257114135e-10  3.1494777298175230e-10  7.8842872542212031e-11  2.6533558566815236e-10  1.9589891127650767e-10  8.0933439530794636e-12  2.4606330166139494e-10  5.8026782791764244e-11  9.0281419140483336e-11  1.2409108245647096e-10  6.3210265180088163e-10  4.1183203705912994e-10  3.0422814023318736e-10  1.1710454997580527e-10  1.3268328078975507e-10  8.9937593522544129e-10  5.3965537148167045e-10  1.3468661465358735e-10  1.4259108539416818e-10  9.3278785926679315e-11  4.8814596497443601e-10  1.3911064894416294e-10  1.7493009186893081e-10  9.5263150436890651e-11  7.0513503993607526e-11  6.3415491079439053e-11  1.4954592766583366e-10  9.8085468342544179e-11  1.2947598705129026e-10  4.3492535234921071e-10  7.6903476008389296e-11  5.9559369637862959e-10  1.2753444695455370e-10  2.2456252382775319e-10  2.8199127073473351e-10  5.4939525055803550e-10  1.1635450964239779e-10  4.1126458047979211e-11  6.2986529018504948e-11  1.4203799767589658e-10  1.5895593206567986e-10  5.1752333376902389e-10  8.4134762515766041e-11  1.6227744713687765e-10  2.5230981185504197e-10  1.3734992347203593e-10  2.3583719718443759e-10  3.3081889056880487e-10  3.1226424182844840e-10  1.0528145233777499e-10  1.7487815637980351e-10  1.4902541389131183e-10  2.2857345974686117e-10  5.2375886247252645e-10  3.7431468447372072e-10  2.0201380641805248e-10  2.0556403970533864e-10  1.2545915891090004e-10  1.7206452161695482e-10  3.0039090544690887e-10  3.8113183047071151e-10  3.6160781630096769e-10  1.6610091632273650e-10  2.2032124230031749e-10  1.9378811650079671e-10  1.5410512724713935e-10  3.9883188333604356e-10  3.1633238325465870e-11  1.0568567396117614e-10  1.2676977361759224e-10  4.7896187382594351e-08  4.0772764670360039e-10  1.7663642815372850e-10  6.1155339133476839e-11  2.5746311978822698e-10  1.3816068971024692e-10  6.4611250230915670e-11  1.0565436139214451e-10  2.0287311849350078e-10  2.0634908615619493e-10  1.9516067312119209e-10  1.8950574577158957e-10  3.0936941347099926e-10  6.5294733674464240e-11  8.0247919288524774e-11  1.9188973816349779e-10  1.2255752234260334e-10  3.5473691867278289e-11  4.0312495406684597e-10  6.4728184595811065e-11  6.1851476001183719e-11  1.9404571703546872e-10  9.9220369913685126e-11  2.3702579233007589e-10  2.9283481785330359e-10  2.3956589862922945e-10  7.8128128868977388e-11  1.8788341182237036e-10  9.6522388096852460e-11  3.2613855876524521e-11  9.0683681512781943e-11  5.8110739474251041e-11  7.8692319762370381e-11  2.2513112866839381e-10  4.7368024579503328e-11  6.6475817110396166e-11  9.4832518135224737e-11  9.3762884572699019e-11  9.4103321700027043e-11  2.5306314384383213e-10  8.7693835376981134e-11  1.8340328686491554e-10  2.0109224674898461e-10  9.8638505811783891e-11  1.6080515080012859e-10  3.1523259523769664e-10  1.2435320987143863e-10  6.1527775910563290e-10  1.7132450910546622e-10  1.4966008115970631e-10  1.3908269650943826e-10  2.2834853321331359e-10  4.4095921193756272e-11  3.9939472041928963e-11  7.7069054224878984e-11  4.3532198199953298e-10  2.0017387908041673e-10  6.3659220678263457e-10  4.4354234987751195e-10  1.2137858807021211e-10  5.4848811412700249e-10  3.6465880694678489e-10  1.8914882999266490e-10  7.0976856071618685e-11  9.3631639247541101e-11  1.7450215916046867e-10  1.8812928215586051e-10  4.1499823699610098e-11  4.8560046752757161e-10  2.7711916930987442e-10  3.1318097460811114e-10  5.3434300228400145e-11  3.5281931149464842e-10  2.6728539412087397e-10  5.7765331707127240e-10  7.3506230871538233e-11  6.1671834393999184e-11  2.3977531293669845e-10  7.2734478276176262e-11  4.2634902426370814e-11  1.4774507396498014e-10  2.4299073500312872e-11  6