<?xml version="1.0"?>
<VTKFile type="UnstructuredGrid"  version="0.1"  >
<UnstructuredGrid>
<Piece  NumberOfPoints="4852" NumberOfCells="9430">
<Points>
<DataArray  type="Float64"  NumberOfComponents="3"  format="ascii">-1 0 0  -1 -1 0  0 -0.9999999999999999 0  0 0 0  1 0 0  1 1 0  -1 1 0  0 1 0  -0.4999999999999999 0.9999999999999999 0  -1 0.5 0  -1 -0.5 0  -0.5 -1 0  0 -0.1608775713298009 0  1 0.5 0  0.5 1 0  0.1967448868031411 0 0  -0.3408771061586929 -0.1758290717725385 0  -0.3386085073916513 0.2255378049009476 0  0.1743793239866368 0.3469687876398838 0  -0.1863381594488802 0.5566085755535696 0  -0.5065748214889477 -0.5394988827088179 0  0.490105269947824 0.258190895546602 0  -0.06512906398473936 0.2016683020170534 0  0 -0.5061325913258391 0  -0.25 -1 0  -0.5674333598139976 0.5788947757297056 0  0.6637043079346512 0.6381396458895252 0  -0.1766071924294209 -0.5380316803963344 0  -0.5392675161032821 0.02474291046096991 0  -1 0.25 0  -0.2068595501722968 0.02360140985312001 0  -0.6561787746541967 0.3147735432926738 0  -1 -0.25 0  0.03920781454097388 0.5927388805112527 0  0.1951112762071679 0.1297054807093711 0  -0.1358687005226632 -0.2202947478796464 0  0.3715501873854217 0.6158168468711911 0  1 0.25 0  0.5355652144809806 0 0  -0.75 -1 0  -1 -0.75 0  -0.6459549928212779 -0.3236531584866593 0  0.25 1 0  -1 0.75 0  0.02757118475249542 0 0  -0.25 1 0  -0.75 1 0  1 0.75 0  0.75 1 0  0 -0.02898318711980711 0  0.0539946458473041 0.142464269343799 0  -0.07763737284456562 -0.02820765143702404 0  -0.702223799683738 -0.1331318797317689 0  -0.3227193243038874 -0.3480915935042553 0  -0.3422397465280345 0.4384073911534933 0  -0.09985241338331043 0.7642768941549561 0  -0.3866941835007106 0.7045717366304269 0  -0.05413749006370136 0.3997180697001976 0  -0.07934489596689945 0.07152873723227711 0  0.3588305668263602 0.3720443938422479 0  -0.7217508008596899 -0.7344053547781249 0  0.4116980645712234 0.09102378615575375 0  0.6896264400572271 0.1944372258664264 0  -0.750563523480191 -0.5319802658557575 0  -0.3915867966958803 -0.7120571990612925 0  0.7207700341834797 0.4233810746332786 0  -0.7783432270402685 0.09902893094129087 0  0.199823687448109 0.7005942996601014 0  -0.1991014124821802 0.289581224852529 0  -0.8009855665081586 0.5827755651537815 0  -0.7237309146999883 0.7686454043265231 0  -0.03117227798016951 -0.3749295751704191 0  0.588540179423035 0.8211410121208349 0  0.8236637561286982 0.812328386527204 0  -0.09407959164832813 -0.6967159968626991 0  -0.5145949002890179 0.1661937187103059 0  -0.2025863270283217 0.1264927966588641 0  -0.3597115049636562 0.07540709575743461 0  -0.3659031969829692 -0.0515874340352287 0  -0.5004936824227988 0.3974331284866696 0  0.375 1 0  1 0.125 0  -0.01160711169434745 0.07124789247125531 0  0.06235162575598099 0.39294441035327 0  -0.1725460036981794 -0.1221953292209941 0  -0.2476425872168877 0.7739762279012579 0  -0.625 1 0  0.535225278219351 0.4573903573424943 0  -0.5817151896907838 -0.8317449517845206 0  -0.2598089109028947 -0.7840200028156292 0  -0.3222654920952971 -0.5090005110906222 0  0.8346302064903254 0.6000959140791161 0  -0.5540969575917639 0.7925764617645851 0  0.125 1 0  -0.06732188077335091 -0.09341684941217201 0  -0.4969936783418312 -0.1431520723062188 0  -0.875 -1 0  0.0295519972782235 0.04159781708211813 0  1 0.375 0  -0.875 1 0  0.05834110436444818 0.795841715777962 0  -0.1949636415275892 -0.3739694651414763 0  -0.07335917921943419 0.5721872512662309 0  0.2370254857932722 0.5190932689674499 0  -0.7918677093184393 0.2340090621471494 0  -0.4970915872576953 -0.3896739371396465 0  0.0004375462058678118 0.2715289020060715 0  0.5127439860427598 0.6430607477289522 0  0.4015137390799779 0.8091500338674903 0  -0.8056014504565666 0.4309133831428823 0  -0.06057540793364798 -0.2231154767206296 0  -0.7107837797195691 -0.01477325336682256 0  0.09067262012757939 0.05248467240913193 0  -0.4801949730046763 -0.251989238222828 0  0.7244930815194666 0.08439393136011315 0  -0.8103438783867384 -0.4140419462877936 0  0.3375285859170407 0.1559109341691379 0  -0.7948294931628631 -0.2527796172849613 0  0.2367873851834935 0.2543824447166462 0  -1 -0.875 0  -1 0.875 0  0.1847560914478885 0.04915619830625753 0  -0.2483995448021805 -0.2281990138918326 0  -1 0.375 0  -0.1717964209843741 -0.04233404916681038 0  -0.6524731710893035 0.4708237310281266 0  0 -0.07736776745332727 0  0.08121878633450243 0.2607540269359317 0  -0.375 1 0  -0.2205083712676612 0.4253353585311043 0  -0.1205307128332745 0.1508248189471662 0  0.1351566824390029 0.5545228803766492 0  0.1323966269974182 0.1946647997306805 0  -0.4766536561421884 0.2713075306069707 0  -0.04646107881742408 0.01392231907117297 0  0.8490197080829697 0.3755756662007648 0  -1 -0.125 0  0.2868042079154589 0.8389749745792678 0  -0.111680422495616 0.3135821252523715 0  -0.125 -1 0  0 -0.7575037395175259 0  0.07821397079968176 0 0  -1 -0.375 0  -0.375 -1 0  -0.625 -1 0  0.7474787146812756 0 0  0.625 1 0  0 -0.2918843213980812 0  -1 0.625 0  -1 0.125 0  -1 -0.625 0  0.3284075310660084 0 0  0.004929205892015135 0 0  -0.125 1 0  0 -0.006571003003944568 0  1 0.625 0  1 0.875 0  0.875 1 0  -0.5671165954653784 -0.6794963902607797 0  -0.004152857595174655 0.1606164769049141 0  0.3631121045410916 0.2625623386981132 0  0.653192400386754 0.2950914916080709 0  -0.8555948571847724 -0.6526790105134891 0  -0.8690908837699527 0.7924017420873052 0  0.4302603169120993 0.5038625082436526 0  -0.3995118988157072 0.8572784166117918 0  -0.7841035710542344 -0.8758509851667694 0  -0.8720898499625354 -0.7889104476602398 0  0.158252737695674 0.8431302373685271 0  -0.6594252445180923 0.156105014896776 0  -0.5785001233656296 -0.06627367795756593 0  -0.8557367924514224 -0.06210613373753036 0  -0.2998223054546185 0.5632400991173876 0  -0.4277816249134794 0.5713881597077451 0  -0.3784152096644512 0.3335264310425555 0  -0.6190462928432808 -0.2169704194863877 0  -0.2729250992177546 -0.09041052136923378 0  -0.6442630142181963 -0.593151390250087 0  0.8586489737113763 0.2661426311364096 0  -0.03260433483171014 -0.03323203343597219 0  -0.05471587461270557 0.1148285148134556 0  -0.1347865250282917 0.432846171077049 0  -0.1195051093751468 0.03269706175883027 0  0.5383700910597746 0.06588651949089513 0  0.5806010675160945 0.3633899677857561 0  0.6952859458888144 0.7796032539174542 0  -0.8022128691033983 0.8834465553378953 0  -0.6462601760555796 -0.4305633597415285 0  -0.1094341423592019 -0.3973143536404623 0  0.8705173793960361 0.4947859383232054 0  0.07647395499691492 0.09424779260733261 0  -0.6703899253034071 0.8712826660396971 0  0.4547669136342491 0.3527647395672694 0  -0.02635646254878193 0.03582796381651875 0  -0.4104814061795566 -0.4424662804975374 0  -0.3634880455570373 -0.2690419557066764 0  0.3243261937000756 0.4843373340822448 0  -0.1967248316652895 0.2015825918799282 0  0.7069009397817804 0.5346604886045477 0  0.2619371146889576 0.3581715544377745 0  -0.3832992503189258 -0.8510664710629408 0  0.1106951304443852 0.6826011387887024 0  -0.2872351514691902 -0.6115922077382352 0  -0.4452484418138526 -0.6218125342149542 0  0.2981909619594494 0.6948876110633827 0  -0.874068144133355 -0.1758086562238068 0  -0.1827229185036968 0.8569782896800801 0  0.4546521939227711 0.1660034270464293 0  0.2803540606187722 0.04775427228884382 0  -0.1439246399617835 0.6576498426306262 0  -0.01212771242847641 0.708856813313272 0  -0.05337425411769971 0.877417698887477 0  0.005664145009723138 0.4705575762417372 0  -0.3890302515112441 0.1549536222897636 0  0.5501063022729268 0.1350229484502133 0  -0.4809264818101605 0.6844474251429088 0  -0.8511130902816532 0.33869853790521 0  -0.07623383960670395 -0.5365872543927934 0  -0.01300627431694454 -0.5521832931244151 0  -0.2132200971583857 -0.2880223397096938 0  0.8683304684590819 0.1540412103430576 0  -0.169789022856211 -0.6601498764701199 0  -0.8884987817925116 -0.5329864709273328 0  -0.2833671650300115 0.3401522358193015 0  -0.6805846234578434 0.5780850281721968 0  -0.8973165461511129 0.5361445594916462 0  -0.900582082858935 0.6659525077528454 0  -0.6451096203538954 0.07337316520360078 0  -0.8606240789799455 0.03001989996271462 0  -0.8888966721078243 0.1683477853250602 0  -0.1303634733509027 0.2297282619225099 0  0.1619325821205302 0.4481184434412905 0  -0.04365739044647577 -0.1260153723580345 0  -0.7584326389290567 0.6730784623893148 0  -0.6096009001610018 0.6996068995558613 0  -0.2550784287349914 0.07910035127804363 0  -0.25369479584203 0.6504864621916872 0  -0.02733810158972052 -0.006550204993457305 0  -0.5005344520210654 0.8774641623770955 0  -0.4820516644173904 0.4932592935024395 0  -0.2907200876278375 0.1448014067113043 0  0.002419038859139556 0.02371234020160745 0  0.7816047088688934 0.6895664763390698 0  -0.4747598649623325 -0.8263312222368093 0  0.2719230042305679 0.1967834009746375 0  -0.1472229371479895 -0.8635584763884755 0  -0.05681231316157283 -0.8269972826973946 0  0.4453175649911502 0.7092426416261954 0  -0.1132156578376313 -0.2893403338049929 0  -0.2655701124069668 -0.02596998919148238 0  -0.8966749308454434 -0.8984963590628716 0  -0.5736859172455745 0.2416847653455122 0  -0.4760368341728523 0.08845816741806282 0  0.4953431666174563 0.8291111992317384 0  -0.023897698242618 -0.2650155805725917 0  -0.3146553923984755 0.8773628438391817 0  -0.1431606442307277 0.08075138261571717 0  -0.4699107013147443 -0.03463427876246818 0  -0.3889780906961538 0.01239142267508462 0  -0.2930857410411364 0.0278055637863285 0  -0.3861168559517333 -0.1205541941148324 0  0.8891275146182377 0.7032401097827135 0  0.7979624143715492 0.913879956990286 0  0.5779482416529574 0.2102187637113684 0  -0.5610367303605427 -0.4718689944711368 0  0.6022732894044599 0.7101755331773106 0  0.6815146336378203 0.8915336906976213 0  -0.05152646729900032 0.3042535150738048 0  -0.906305235901848 0.9077555527930768 0  -0.1279578447054316 -0.06693336224797618 0  -0.169958817089566 -0.1821548129051094 0  -0.2525027355945604 -0.1441375321190921 0  0.03730025378323919 0.2023014469861938 0  0.904843909818365
[...]
<PointData  Scalars="w"> 
<DataArray  type="Float64"  Name="w"  format="ascii">1.5615531995534093e-10  9.2310408002234340e-12  4.4879937485984815e-10  2.5402669539539066e-09  6.3706420820135139e-10  1.4429465750229119e-12  8.1387556818080457e-12  6.6854690302910736e-11  3.6461112627411239e-11  2.2652403075255330e-11  1.1996267057669716e-10  9.9705019322324184e-11  4.2693472121782920e-10  2.4394304145892805e-10  8.0748888590878819e-12  5.5850631756718242e-10  9.1417661862559961e-11  7.0777324613553652e-11  1.3157175291939062e-10  3.7572741957457169e-10  6.4082030967354583e-11  8.6741514437374564e-11  5.9707431714710587e-10  1.9427635446577971e-07  5.9084683280603158e-10  1.0902617010522083e-10  8.8368111881240552e-11  1.6821866422759696e-10  8.0201391431134135e-11  1.9034491960775958e-11  5.0810373375069715e-10  9.8195055195342969e-11  2.5831286356011518e-10  1.8721293872230264e-10  4.8952153840188128e-10  2.2944657300410599e-10  8.0275958556214506e-11  5.1350742747486217e-10  6.1288962498182666e-10  2.7596111614780184e-11  4.2914760323889572e-11  1.1426723561793488e-10  8.5222105042715333e-11  1.4213790484954304e-11  1.0664493171959225e-09  8.7322243362941699e-11  2.8546074874679384e-11  8.0301987313170722e-11  1.7451740698551984e-12  6.1093114782629708e-10  2.1670771380667236e-10  2.0449926314894949e-10  8.3631778615791135e-11  2.6208780530399706e-10  2.3630132816200895e-10  2.4771177228782931e-10  3.8754299044083569e-10  8.8339049955272493e-11  5.4955234277200260e-10  2.5565387990415950e-10  3.0167888551139262e-11  3.2910533608825206e-10  3.6650976756635339e-10  1.3245493377363684e-10  4.8072156967400346e-11  1.7507874516192024e-10  6.4119956429819572e-11  2.0494909436335548e-10  2.5502148564433059e-10  3.8606122389358600e-11  6.4740648662726173e-11  2.7145006221597161e-10  5.3092621267540352e-11  8.0396548624924276e-11  2.1672139573878038e-10  1.7589609462733369e-10  2.4326189801042542e-10  2.8539691862569886e-10  1.9542457804062685e-10  2.1652201665077271e-10  5.8898892281091267e-11  2.3569352649631801e-10  2.6016444860772726e-10  2.0269200153003762e-10  2.2174390071686210e-10  1.2791007447776084e-10  3.4310749739930243e-11  1.0617731315789814e-10  9.6339874037973192e-11  2.6980835043284300e-10  6.0419881262582552e-11  9.8820122089376484e-11  7.5468069419532813e-11  8.7201526657939028e-11  3.6151160421273627e-10  2.1676220293465601e-10  2.1772413761248582e-11  6.2468399431846001e-10  2.7205013956956184e-10  2.5296063505759243e-11  2.9405793100769784e-10  4.7278376472360072e-10  7.0885699085885277e-11  8.6047446479165684e-11  1.4958919257566301e-10  5.8557756041181238e-11  2.9891053457443042e-10  8.5106034575590685e-11  1.6350945040086544e-10  6.1241261992454243e-11  3.0405809335037725e-10  2.9144593454480819e-10  2.2100472743037422e-10  7.2691416882780193e-10  1.3485940069680179e-09  1.2380484295085158e-10  1.6056478892519509e-10  8.6660364119763892e-11  4.7359559286442803e-10  2.4064624744037761e-11  2.1291418306653724e-11  2.7148268479686693e-10  8.8151863733898573e-11  5.9722929419828727e-11  5.0772917819811032e-10  5.1288075464680501e-11  5.8196597417810421e-10  1.0784740786690895e-10  7.2160099284359154e-11  7.8157773306079075e-11  3.4221369837228737e-10  1.5913680747657448e-10  5.0442630178852014e-10  1.1934276100573224e-10  6.4218426123459850e-10  4.7469374725340199e-10  1.0175563541184304e-10  4.5259778587654215e-11  1.3395114569915365e-10  2.7784515468849707e-10  4.5102435886080153e-10  6.1213275203019744e-10  9.5825456843400430e-11  1.0695759191581419e-10  5.3598531357447192e-11  6.6576293984851733e-10  7.7848452090781139e-11  2.2631043605030474e-10  1.3968966672322421e-10  1.1599724839175796e-10  1.7844456712509288e-11  2.8924844728533016e-10  1.5721958206572012e-09  4.9544151169721826e-11  9.9117632267847020e-10  6.5194590404820185e-11  1.6684785852764880e-11  1.8787579627196858e-11  1.3370005919691521e-10  5.6480533884824732e-10  4.0810163761192526e-10  1.5871865502931342e-10  1.0517756178385385e-10  1.4801761204071958e-10  1.9644450728072441e-10  5.2986209378704518e-11  7.0699862303207794e-11  1.6455663379234621e-11  5.1116703110169908e-11  3.2522777443395507e-10  8.0791739342463878e-11  1.0576298820872473e-10  6.9574781261932815e-11  9.4870979614751772e-11  4.7943886166760282e-11  8.8994112649101865e-11  4.7779757187937521e-10  5.2613257270153711e-11  1.6080508742478092e-10  1.5966383603845838e-10  4.8667481086714218e-10  2.1621750615766988e-10  2.9228328389774673e-10  1.3799859186692947e-10  1.4864331550968421e-10  1.5711008293775630e-10  2.1023304078109440e-11  3.3362119738056928e-10  9.1054918009124256e-10  2.1394506505495682e-11  2.3625588969429856e-10  8.7594473822396299e-11  1.6407909005692476e-10  1.1257771353516969e-09  1.3838762003148572e-10  1.5945696718856686e-10  2.5686179047975823e-10  2.9548267895005540e-10  1.0350160169206179e-10  2.0501280293480175e-10  4.0442484286527655e-10  2.5725882870426144e-10  2.5051140296674172e-10  1.2066198346821353e-10  1.1005537317605601e-10  1.0969042533387281e-10  6.9368817642564095e-11  2.1933645119668431e-10  9.2018661630033663e-10  7.4420035106657793e-11  9.5651337268662127e-11  7.8552967330510731e-11  1.0154644550356278e-10  1.5668277720772339e-10  3.8491322050069278e-10  8.5639341928094969e-11  8.4410607547737731e-11  1.4403558580022645e-09  7.7563135228015503e-09  2.9963592902646206e-10  1.9286020649102452e-10  8.3914970708151439e-11  7.6861605912315653e-11  3.7704174691925454e-10  5.4923691124775388e-11  8.3528012820411300e-11  4.4322387410821006e-11  9.8265416165511555e-11  4.1992986097709729e-10  8.4188160353428122e-11  1.8791591301644921e-10  1.7311934706036680e-10  9.5369352586523664e-10  5.5706330645133755e-11  2.0886045878687519e-10  1.1657946106405632e-10  1.0775409660623586e-10  8.0125231655113847e-10  7.7483686054167323e-11  8.5428564205769948e-11  1.1120218836736432e-10  1.1211268007706536e-09  3.6810612266661824e-11  6.7237658561251530e-11  2.7484443250835902e-10  3.0502759536934263e-10  4.0327467092380427e-10  2.0302209281231295e-10  2.1197032120011644e-10  4.3429314674498549e-10  2.4914581344308294e-11  1.0343587840996921e-10  1.3761480887416821e-10  3.4178266693220017e-11  3.1400562068275815e-10  3.3873024847311871e-11  3.8983066143293255e-10  1.2714035886506000e-10  1.0802983886905167e-10  1.7792682758664519e-10  5.6350216054589544e-10  7.5375413558375849e-11  2.2786439175979223e-11  1.3311245120437383e-10  8.5761415816774053e-11  5.8297867611717910e-11  6.5992888681970125e-11  1.7206540727292268e-10  3.6859783374455642e-11  2.7967191790221170e-10  2.5474562738136605e-10  1.1672327750339062e-10  1.2873941296497948e-10  1.0325081357768325e-11  6.6396958079798876e-11  1.4787629566712793e-10  1.6805292685836010e-10  5.0396787323665847e-10  3.4043760444654071e-11  7.8330374018256263e-11  2.7469096158426967e-11  2.2962357167285358e-10  1.1946773056136889e-10  1.9142232405335604e-10  7.3902668437784267e-11  8.8025478266643537e-11  1.1666421968879966e-10  1.9691370524748058e-10  2.2920509793167173e-10  2.4480920412194331e-10  4.7696806838055773e-10  2.3519967414439671e-10  2.0035336471692743e-10  1.5074782174461896e-10  7.7465825048228823e-11  1.5497423210648218e-10  1.6333439151930047e-10  6.4126559392238769e-10  1.3581480710898579e-10  5.2768222848272125e-11  4.2205115153383528e-10  1.7299329726443982e-10  2.1066846806892061e-10  8.4721758416502434e-11  2.7850551860605961e-11  4.2080847286615746e-11  9.1614555555158100e-11  7.3471979494726428e-10  2.9037870538818289e-10  1.7291754950211813e-10  1.4291316870992866e-10  3.5142581260833192e-10  6.5799442789741264e-11  1.0204301115972752e-10  3.6941347128983433e-10  8.1794649044621427e-08  9.5459130286761638e-11  2.7257146671569153e-10  6.1221049309187530e-10  1.2560350664650868e-09  1.9514304532405078e-10  1.5297272062229786e-09  4.4688076765866660e-10  2.2790697133889536e-10  1.1941230040798922e-10  3.6969569095728209e-11  6.0311999889503534e-11  1.2908723440617873e-10  1.4134740684448954e-10  5.5643191528469533e-11  8.7577015517010642e-11  1.0675793238558329e-10  1.1350022614332859e-10  1.7613562680806764e-10  5.3310742205139263e-10  3.1516995018640178e-10  1.7255948059409449e-10  9.3416171519181765e-11  5.6834339376305957e-11  5.9834697319270758e-11  7.4482759213832503e-11  1.8340945927413150e-10  2.7020678611425472e-10  1.0473804261502374e-10  1.0663760284208711e-10  2.3521885814281236e-10  1.3498517230436643e-10  6.6734809000358559e-11  5.5788203824071097e-11  1.0038355543781558e-10  3.0653962950773162e-11  2.0111687614762985e-10  3.4478294085515810e-11  1.6106467578574114e-10  1.8388003317383909e-10  1.7287549048313611e-10  3.9852370830607330e-10  7.5622503300065735e-11  7.1906962217579059e-11  1.5943812206777903e-10  3.6413174555593659e-10  1.5229346191239479e-10  2.5955633196781250e-10  1.0691039485068988e-10  1.4494754985955615e-10  1.7280010698196085e-10  3.0426482536385114e-10  1.2157809891635718e-10  3.1980059435743293e-11  1.2221648129320285e-10  1.1486051943687300e-10  1.4551406527604592e-10  2.5699710880520842e-10  1.7410744302779672e-10  3.2126086495650506e-11  1.2972475021997070e-10  2.3644081000667406e-10  2.0149709353894801e-11  3.4087209922081492e-10  1.6191430648264001e-10  3.5990574605675872e-10  1.2481764228797395e-10  2.5719332975963725e-10  3.1985482518275881e-10  7.0322289523596557e-11  1.0500163402573168e-10  2.4294728353456629e-10  5.9343635639823684e-11  4.9372659943335456e-10  1.3598987436488113e-10  9.4830016924748640e-11  1.1610863930867270e-10  2.2383852464223347e-10  6.2333445541235900e-10  4.5463524549248696e-10  1.6424970028294810e-10  1.9386372236392329e-10  2.3260049156572579e-10  4.1080999666623548e-10  4.1406345623167700e-11  2.4203226633554291e-10  7.2066124745011309e-11  1.3065023344252445e-09  1.0889560407389952e-10  4.5469807285496985e-11  5.5140106629546014e-10  3.5286758061707789e-10  2.4575042981321580e-10  2.4793242019901326e-10  5.7503455705952724e-11  1.5050819131648646e-10  3.4665794964560588e-11  4.5847709027640376e-10  7.6227339446912851e-11  1.1957630850926846e-10  1.3537734553358998e-10  6.8752672501254119e-11  3.5265360710395338e-10  3.4857511309132013e-11  1.1135173294024811e-10  2.6738338791323716e-10  1.7478615588019856e-10  7.5592425329821180e-10  9.5560204981140463e-11  6.0846068300347462e-10  1.4615655464969074e-10  3.3415192714094880e-10  5.6306645263545110e-10  2.3080485944446044e-10  1.5347804303997729e-10  2.7251955898824014e-10  4.9405515697202151e-10  4.0103916652543819e-10  6.5075267884050454e-11  5.1926965166058086e-11  1.6281630831418044e-10  3.7765378487071574e-10  2.0363886357256421e-10  1.1504800939123809e-10  1.5800186665634068e-10  7.8342257210242353e-11  6.9858840585864583e-11  2.1423447792665406e-10  5.6831685309392693e-11  2.2141749319851600e-10  9.4108057399918621e-11  5.3179690729972085e-10  5.9566837252079605e-10  8.4176009584842443e-11  3.5082117031799340e-11  4.7474007515193962e-10  6.8688515521442498e-10  2.5031269905628103e-10  1.0187569293063920e-09  2.8776628156045555e-10  3.2590936938564877e-10  2.6005131608054842e-10  2.5777696819164619e-10  9.9831171125627697e-11  2.4943486038015954e-11  2.0327060049661401e-10  9.2320566274340216e-11  2.0855513319857564e-10  7.5180272311872211e-11  1.3173987763369053e-10  2.0958310726392494e-09  1.7248674261022865e-10  7.5652537188457311e-11  8.5641042974479063e-11  4.2835010155416458e-10  2.2855971766985587e-10  1.8819732730892360e-10  2.0434786904187512e-10  4.2764675370459022e-11  7.6751275053014741e-10  2.6007719770096179e-10  5.6975157694217201e-10  2.7743957430663689e-10  2.2166973188264372e-10  3.2346548872977880e-10  9.1136318904473108e-11  2.9903970596864255e-11  3.1805793718123032e-11  3.8104638301524233e-10  2.8155443849889201e-11  9.8560186907435237e-11  1.1545409653869570e-09  7.1034248316714566e-11  3.2805247184614042e-10  2.7221537905279477e-10  6.4622496918219476e-11  5.5244043326477230e-11  1.5458010474042013e-10  2.5441732427448662e-10  4.4076479204461038e-11  1.0343815455526723e-10  1.6613884032021041e-10  6.9515810235664074e-11  1.8321938282982995e-10  2.0754531590370310e-09  2.1661884590824219e-10  3.1535987180419783e-10  1.0572068119202230e-10  1.0578885108491175e-10  1.7496035949888709e-10  6.4407036208550943e-11  1.3116689762954034e-10  4.9213830008349819e-10  8.0888863413837285e-11  2.3864555532175066e-10  2.4279420949648139e-10  1.4031799297826344e-10  4.1109327809408715e-11  6.2174638920288481e-11  4.4011539187689641e-11  7.3334313291218107e-11  1.0792036170875825e-10  2.1268700464301128e-11  5.8182267918612263e-10  2.6710948389850309e-11  6.4856690294397386e-10  1.2343041793552878e-11  7.1817790141325932e-10  2.1211998881013206e-10  2.5964891350396994e-10  1.0195067542397831e-10  2.3806092925605453e-11  8.2175536357743274e-11  2.6320539522556450e-11  2.2289822862070538e-10  3.8216370970395044e-10  2.5052942414174085e-10  3.2110097736645197e-10  1.3257057095890382e-10  8.0850319154974285e-11  5.2944708557730946e-11  3.7741319760697500e-10  5.4199012830123930e-10  1.1378442990835199e-10  9.8950164881186688e-11  1.3965359195764436e-10  7.4793560935113072e-11  4.4510216324956448e-11  4.2026579866529354e-11  2.5140346786191367e-11  8.5139832357469126e-12  1.5191847404252375e-11  8.0087967831607089e-11  1.6075588763051254e-12  8.0142913333422115e-12  1.8647188961780913e-10  3.6428963454341280e-09  2.0029142662561171e-10  3.2006417058941395e-11  2.2743598583484839e-10  9.9188362973077869e-11  1.1769288722357687e-10  4.2382204672251712e-11  1.3438803010794560e-11  6.8215634503357625e-11  7.2665768326071625e-10  7.3653508608938179e-11  1.9019863608888297e-10  3.3961380621679982e-10  6.1482671317776845e-10  8.8209914606309069e-11  9.9656132383105416e-11  5.4443723990368257e-11  7.1773584512025978e-11  1.0134795772026670e-10  5.6292997444829886e-11  7.9063693459889378e-10  5.8230401557827658e-11  2.7650323812362255e-10  7.8310692842965426e-11  1.1910865388881323e-10  3.2277252263395687e-10  4.0833768529696033e-11  5.0703017136011589e-11  2.7376547298863810e-10  1.0359752135026610e-11  1.2087405320659890e-10  7.8837047550539185e-11  6.6239279628010345e-11  5.8337947221333796e-10  1.7505544005124397e-09  3.6072549515980012e-10  2.8043454466589018e-10  8.4280975662569789e-11  7.1819086542675867e-11  2.6720822675886738e-10  1.1847125078790054e-10  9.2294717341347674e-11  9.8719937397936228e-11  2.2274396113820591e-10  7.5023827920597191e-11  4.6903971559243964e-11  5.9264623057295115e-11  3.6332743041007032e-11  8.4214406662630126e-11  1.8446177975931652e-10  1.7106177378580507e-10  1.0825669331728209e-10  3.4868987078523687e-10  4.4174227528278599e-11  1.4132221430850340e-10  5.2931183669335525e-10  5.9380140037098853e-11  9.7767638857469739e-11  2.1840624203168623e-09  6.3073799167016927e-11  3.5721413080535772e-10  5.2618856966543135e-10  1.5314516529312650e-10  1.1940222622786924e-10  1.2469253854376958e-10  7.6461960748921488e-11  2.3289793076855478e-10  2.8751567714964919e-10  1.8023999070535712e-10  4.5750589384563096e-10  4.5252426815188862e-10  1.2970058322492577e-10  2.2127421050708052e-10  6.4077410383719681e-11  8.5585511231878034e-11  6.0867076040392920e-11  2.4559264816964699e-10  4.0109413282473597e-10  3.0995878748015243e-10  3.5455939651341674e-10  8.6431229513427941e-11  2.0572070425411488e-10  4.5051018342577017e-10  1.8429200380048808e-10  5.2346693199891258e-10  1.7425770012565126e-10  1.3191835934917487e-10  1.0795764703963280e-10  4.8260216491827232e-11  5.1082005147348959e-11  3.8347438670914164e-10  6.3701191524222876e-11  6.2606007927744197e-11  1.3142328099693046e-10  3.2625460592258103e-10  3.7429394247161415e-10  1.5655002341239277e-10  1.0827510859356684e-10  6.2500370920204481e-10  6.6884318799826994e-10  1.6962859642105713e-09  2.7114802331420336e-10  1.8386483675703823e-10  4.3812443285245611e-10  4.7694566900010246e-10  1.2051736210033232e-09  3.0880122036217831e-10  2.5478457337498366e-10  2.8742683979917193e-11  1.2635662659620208e-10  4.6776466724977642e-10  7.2663757353917705e-10  2.1951345140524417e-10  7.8345637875255570e-10  3.1140228817928453e-10  1.7071260264015707e-11  5.2020984953176383e-10  3.0971806101879760e-10  3.6573353360534495e-11  3.2745028709324265e-10  3.9991703342409006e-10  5.4587991218646531e-10  1.4443395687320111e-10  7.4133912812837461e-10  1.9576513199558158e-10  4.3356933215909255e-11  1.2287537537346759e-10  1.3061627383080563e-10  2.6538867945252251e-10  7.1254342045637156e-11  3.0692539247564687e-10  1.8011624026774419e-10  6.0815569410789302e-12  1.4738315072857891e-10  5.5040899385596343e-11  8.7814206684102267e-11  1.2267130625443586e-10  6.0376409931595602e-10  4.2837493918046742e-10  3.0135746114307643e-10  1.1079847652277092e-10  1.4014337470073945e-10  8.9476476819785197e-10  5.4188488045204647e-10  1.4551314900286499e-10  1.4065980857795422e-10  8.1894102596674589e-11  5.2635211389109569e-10  1.4938443790244622e-10  1.8841199838960367e-10  9.7912229813243629e-11  6.5060565805271315e-11  6.2246195140382953e-11  1.5753187659598603e-10  8.7429009423353033e-11  1.4119994097407859e-10  5.0928228283838802e-10  7.0848464604233360e-11  6.3651388851459741e-10  1.3445328368638237e-10  2.2407729124000939e-10  3.0957924066299468e-10  5.5903967031817010e-10  1.0837113067529164e-10  3.8786419320549855e-11  5.6856859347439032e-11  1.3715591537688388e-10  1.4740744118008454e-10  5.6517646070387151e-10  7.7976626579617542e-11  1.4312967798454158e-10  2.2949176300260781e-10  1.3030413493440315e-10  2.4979804863350456e-10  3.4146807478620459e-10  3.2704726020915796e-10  1.1572780746333977e-10  1.9186181062152955e-10  1.5782115082223770e-10  2.2998698114686680e-10  2.1356707674764589e-10  3.9350669155601809e-10  2.0366617696499407e-10  2.1639123043404482e-10  1.2254234358935211e-10  1.5259362583039990e-10  3.0260898971692644e-10  4.1115503860761617e-10  3.7846085032109752e-10  1.5990030937899684e-10  2.1117416733072169e-10  1.9635814887724505e-10  1.4746989030443755e-10  4.1324087446043979e-10  2.6684236775211215e-11  1.0944235036633942e-10  1.2999528678773624e-10  3.0865771994175676e-08  4.3119177141157659e-10  1.8139817856950939e-10  6.2048784572055161e-11  2.6959577283624795e-10  1.4843568311524911e-10  6.2483235071972636e-11  1.0301375269858343e-10  2.0839954088307865e-10  2.0863455158062033e-10  1.8990102277666153e-10  2.0250333004535379e-10  2.9970058712009196e-10  5.7913830412499279e-11  7.8430281915726518e-11  2.1139020538336230e-10  1.2447095691799294e-10  3.3667968518066250e-11  4.3544465631084134e-10  5.9087269452008820e-11  5.8595702830656901e-11  1.9033238796948635e-10  9.2216123919859192e-11  2.4496439161414806e-10  3.1603615301998098e-10  2.0221809715529440e-09  7.8746267609174186e-11  1.7961596493450881e-10  9.3587448864271634e-11  2.6419054261651142e-11  8.1849162433880337e-11  4.8378193964723483e-11  6.7568045964422214e-11  2.1132747428616363e-10  4.3554790021533366e-11  6.2457447972789762e-11  8.5788188730120373e-11  8.5434541123738038e-11  9.2259538782426062e-11  3.1741944119882667e-10  8.3199876644722315e-11  1.7326841513982119e-10  2.0492690882779705e-10  1.0188078180330047e-10  1.5476438490041819e-10  3.1739015061821274e-10  1.2079367621226833e-10  6.2205504694754689e-10  1.8583838491595904e-10  1.5225034871486901e-10  1.4243170288149273e-10  2.2323457782425644e-10  3.9785540829705539e-11  3.6156805920517493e-11  7.3064032858717137e-11  5.4767698212908763e-10  1.8319999503144114e-10  7.1806756172314323e-10  4.6098993916747024e-10  1.2098618782538671e-10  5.9708530481777369e-10  3.7195783512534505e-10  2.0278480961159165e-10  6.7782367450985901e-11  8.6455614742601414e-11  1.6361147308264737e-10  1.8850300288992517e-10  3.5324676013791607e-11  5.2142227733082720e-10  2.8173630705353210e-10  4.4671783624641168e-10  4.3752226228690905e-11  4.1127638838514342e-10  2.5432064055245223e-10  5.7033300781162049e-10  7.7589176864185923e-11  5.6660822852895432e-11  2.5555083283499982e-10  6.9266862966910593e-11  3.7370802221471056e-11  1.3723097934598337e-10  2.1391355336458380e-11  5