<?xml version="1.0"?>
<VTKFile type="UnstructuredGrid"  version="0.1"  >
<UnstructuredGrid>
<Piece  NumberOfPoints="4852" NumberOfCells="9430">
<Points>
<DataArray  type="Float64"  NumberOfComponents="3"  format="ascii">-1 0 0  -1 -1 0  0 -0.9999999999999999 0  0 0 0  0.9999999999999999 0 0  1 1 0  -0.9999999999999999 0.9999999999999999 0  0 1 0  -0.5 1 0  -1 0.5 0  -1 -0.5 0  -0.5 -1 0  0 -0.1608775713298009 0  1 0.5 0  0.5 1 0  0.1967448868031411 0 0  -0.3411360457699966 -0.1767608423252348 0  -0.3381671034425336 0.2254278626068168 0  0.1744105163640234 0.3476621272656858 0  -0.1863701729501794 0.5561231547298943 0  -0.5044022626107504 -0.5388710609823558 0  0.4909103674344658 0.2593847767217287 0  -0.06483382261494222 0.201897605930084 0  0 -0.5061325913258391 0  -0.25 -1 0  -0.5625947092235188 0.5785227405988927 0  0.6621905281923645 0.6360563692146621 0  -0.1754856678412703 -0.5390310001709103 0  -0.5400235704518427 0.02598261846606646 0  -1 0.25 0  -0.206983904455735 0.02398763002184371 0  -0.6555654293308215 0.3106741355510452 0  -1 -0.25 0  0.03893733277053425 0.5929412058251933 0  0.1954942601298012 0.1298356412089354 0  -0.1349935695964505 -0.2213109011305379 0  0.3720125056868386 0.6161254024241372 0  1 0.25 0  0.5355652144809806 0 0  -0.75 -1 0  -1 -0.75 0  -0.6455678957049961 -0.3242757448182829 0  0.25 1 0  -1 0.7500000000000001 0  0.02757118475249542 0 0  -0.25 1 0  -0.75 1 0  1 0.75 0  0.75 1 0  0 -0.02898318711980711 0  0.05441411510852772 0.1429373607048166 0  -0.07795264923027934 -0.02794425808162255 0  -0.7018800652444549 -0.1325822581126985 0  -0.3210053767898049 -0.348969937379356 0  -0.341708463734706 0.4385836182885851 0  -0.1006912073469884 0.7647799072630845 0  -0.3846041655884936 0.7032864884617324 0  -0.05550727285901198 0.4001571534437907 0  -0.07931222796231133 0.07225995958504892 0  0.3596799710021455 0.3716491511341812 0  -0.7168614178922653 -0.7309136993944669 0  0.4121903683551939 0.09097872471768695 0  0.690016315342981 0.1935030732402827 0  -0.7481562690402486 -0.5282352641570707 0  -0.3881324934467158 -0.7112423549914929 0  0.7216066642521909 0.4214171879552204 0  -0.7766766567170812 0.09767626981636204 0  0.1972864020581602 0.6997812416527875 0  -0.1998834134760373 0.2896192859822664 0  -0.7995550260858091 0.5782126198508899 0  -0.7174112092211581 0.7669117287235077 0  -0.05132248811563087 -0.374208787902746 0  0.5854114341367335 0.817595739476039 0  0.8207770772906293 0.8067375862503575 0  -0.1061900967503934 -0.6978559192584369 0  -0.5157667950087466 0.1638628804400903 0  -0.202782399556986 0.1262773830171496 0  -0.3604040672183213 0.07599191985099563 0  -0.3661477274640471 -0.05241216866967092 0  -0.4980867881520953 0.3964347428225737 0  0.375 1 0  1 0.125 0  -0.01185847360471374 0.0715224425550452 0  0.06213641843644335 0.393226029046376 0  -0.1715311806749631 -0.1231153329244237 0  -0.2440276407909228 0.7741599146675346 0  -0.625 0.9999999999999999 0  0.53403138139816 0.4569523176984422 0  -0.5767691436844101 -0.8305150566097828 0  -0.2576537137274122 -0.7838059388641403 0  -0.3192841075135137 -0.5098454711663172 0  0.8341126615749542 0.5969773981122172 0  -0.5496442791221814 0.7913351488404949 0  0.125 1 0  -0.06750264397920837 -0.09371950970271122 0  -0.4954358167797496 -0.1437316949722806 0  -0.875 -1 0  0.02972105282959841 0.04174667281215488 0  1 0.375 0  -0.875 1 0  0.05725888831194653 0.7946926811974545 0  -0.1940942316655046 -0.3754990669868713 0  -0.07373660490779629 0.5722982601833151 0  0.2371422298698576 0.5195781247265926 0  -0.7928803505351911 0.2302459983621898 0  -0.4955365394891452 -0.3906389747472714 0  -0.0001018364713239103 0.2722568775070205 0  0.5109094723903629 0.642139011419287 0  0.3995751693370051 0.8083185040196689 0  -0.8067689932386392 0.4252890478854504 0  -0.0629715793347401 -0.221300266045773 0  -0.7104008039058214 -0.0137713626712849 0  0.09073580726181456 0.05280187986131417 0  -0.4787367908835359 -0.2524536072979731 0  0.7238267219184512 0.08370398396359505 0  -0.8090104783658875 -0.4120605407804034 0  0.3379919410015166 0.1550353153687486 0  -0.7950393224801513 -0.2514449820938691 0  0.2368518521923307 0.2558929439339095 0  -1 -0.875 0  -1 0.875 0  0.1845428858711054 0.04841274025799248 0  -0.2470215244123884 -0.2306302166801752 0  -1 0.375 0  -0.1716429410476255 -0.04196120733943277 0  -0.6498659642850571 0.4686818453569248 0  0 -0.07736776745332727 0  0.08060250654482258 0.2610904518707263 0  -0.375 1 0  -0.2182716378058208 0.4260619350133335 0  -0.1207412752528067 0.1508433928783384 0  0.133565703816478 0.5556085186144427 0  0.1322866294884936 0.1948882175231139 0  -0.4760900910655338 0.2708967107400737 0  -0.04638820604029809 0.01389382187385762 0  0.8511157181726058 0.3721285906136931 0  -1 -0.125 0  0.2860836985103953 0.8376026472957759 0  -0.111622786778879 0.3142669312117268 0  -0.125 -1 0  0 -0.7575037395175259 0  0.07821397079968176 0 0  -1 -0.3750000000000001 0  -0.375 -1 0  -0.625 -1 0  0.7474787146812756 0 0  0.625 0.9999999999999999 0  0 -0.2918843213980811 0  -1 0.6250000000000001 0  -1 0.125 0  -1 -0.625 0  0.3284075310660083 0 0  0.004929205892015135 0 0  -0.125 1 0  0 -0.006571003003944568 0  1 0.625 0  1 0.875 0  0.875 1 0  -0.563597032099343 -0.6774306330324611 0  -0.004779708633286733 0.160977085988277 0  0.3628985760199593 0.2650907012256544 0  0.653087731210956 0.2965738742866411 0  -0.8550899629760345 -0.6473385926471629 0  -0.8637898379389007 0.7873879524346188 0  0.431383268069817 0.5036518642696947 0  -0.3993607148148787 0.856378937080464 0  -0.7792169799429084 -0.8752886249707861 0  -0.8708764767648746 -0.7848740742115926 0  0.1543824956838919 0.8428774806853462 0  -0.6595223622492751 0.1538448844634572 0  -0.5785228599992966 -0.06406460819151667 0  -0.8549263615322553 -0.0624669228543056 0  -0.2974820088580454 0.5633812179980269 0  -0.4252954619204234 0.5711948918847787 0  -0.3775310248419066 0.3324221082525306 0  -0.6189019190109079 -0.2171638132724387 0  -0.2735758471755801 -0.09050802016000457 0  -0.6408302309733256 -0.5899647147545489 0  0.8595343251407098 0.2674255513261016 0  -0.03287104819990248 -0.03305077424831333 0  -0.05506175347192487 0.1151004301738371 0  -0.1348666647581641 0.433371662433241 0  -0.120353573842337 0.0325332249422312 0  0.5378774777522021 0.06543377284104324 0  0.5795938391627546 0.3622482978703678 0  0.6920958868908822 0.7761808809161608 0  -0.7937189961531996 0.8814755119168479 0  -0.6438387318975738 -0.4306707145314332 0  -0.1145368598645616 -0.398679904244486 0  0.8719507832551689 0.4904001063048126 0  0.07619218933733077 0.09440130359533519 0  -0.6651855217348859 0.8686085911758398 0  0.4552574778769185 0.3532267234069738 0  -0.0263983721884877 0.03594412053840362 0  -0.409133396592639 -0.4418528662093379 0  -0.3618861847694371 -0.2702916128940819 0  0.3243848512715157 0.4838498408921262 0  -0.197138990942509 0.2025155063457051 0  0.7059765573775809 0.53357473168866 0  0.2624687700875254 0.3579939306602986 0  -0.3770992868666744 -0.8519367725481509 0  0.109306727712327 0.6832199171611912 0  -0.2845528218750307 -0.6130732693926059 0  -0.441917644980469 -0.6212073441143896 0  0.2970488887395691 0.693736735623825 0  -0.8751446451919325 -0.1750029672957417 0  -0.1807900926111926 0.8555820104250906 0  0.4551213675999755 0.1652812419587911 0  0.2805053086350301 0.04720301718840721 0  -0.1434542066154536 0.6584163900835104 0  -0.01186813721416858 0.7095734856639024 0  -0.05364739083901707 0.8756195699798391 0  0.00504047383397723 0.4713366976656811 0  -0.389083835286127 0.1546106793018525 0  0.5493758673425131 0.1348435542261691 0  -0.4773146459046482 0.6833391610269915 0  -0.8520372380269285 0.3335743499575606 0  -0.09186261055596379 -0.5373344406071566 0  -0.0317681947356253 -0.5527260090862927 0  -0.2122153467410957 -0.2895328222706624 0  0.8682864823073176 0.1524128741919188 0  -0.1694283574413314 -0.6618080253732321 0  -0.8893479494908759 -0.5291589018651134 0  -0.2832391393468212 0.339728966790437 0  -0.6773081638160022 0.5752674077879626 0  -0.8979229760078168 0.5319756988833164 0  -0.8987793050266406 0.6613786425668351 0  -0.6453983121739404 0.07322440205975794 0  -0.8595023956384857 0.02889227782279755 0  -0.8885056946148732 0.1683425377773894 0  -0.1310282046936899 0.2300472934947169 0  0.1608028222608185 0.4479903370181187 0  -0.04339275535544625 -0.1260456183537012 0  -0.7542394454052594 0.6709125197081789 0  -0.603581670319802 0.6988781846818194 0  -0.2555231698274828 0.07913275430136782 0  -0.2507674560755216 0.6497431834898575 0  -0.02750445863706499 -0.00647324826261419 0  -0.4951399348302035 0.8775619903680572 0  -0.4785438833566531 0.4920410542500835 0  -0.2917571800112966 0.1450179260575072 0  0.002369095975653661 0.02369482625846592 0  0.7800246755687469 0.6853972115117086 0  -0.4706166450192304 -0.8250190152195219 0  0.2724591459129653 0.1965982392659031 0  -0.1489067381141916 -0.8633373659701028 0  -0.06599900494898021 -0.8300170453649609 0  0.4443701221980026 0.7076614976831905 0  -0.114986931421912 -0.289865333476207 0  -0.2658903515936217 -0.02619266624282962 0  -0.8940285271653527 -0.8967668934786166 0  -0.5742594547761551 0.2386617182400921 0  -0.4775410086852213 0.08848665296464868 0  0.4919296079427363 0.8268986352573154 0  -0.02731670190574215 -0.2602698749739359 0  -0.3108546951547992 0.8759395254500513 0  -0.1437830595066777 0.08097365885381166 0  -0.4705311342865213 -0.03471523046413784 0  -0.3892695735237913 0.01250546617750722 0  -0.2928772253484526 0.02792387098581912 0  -0.3858414293034892 -0.1209520732688191 0  0.8884047941561455 0.6990748120336847 0  0.7929887619008542 0.9111405400442447 0  0.5768478572510383 0.2102217013756341 0  -0.5605893861399178 -0.4709562001107531 0  0.5998138610991696 0.7078936435289527 0  0.6787368515934734 0.8890178443862324 0  -0.05164526202924719 0.3044799582068735 0  -0.9023351648877013 0.9048049179296519 0  -0.1278828446996444 -0.06746206446814679 0  -0.1685393874511242 -0.1838036870082404 0  -0.2527691344710
[...]
<PointData  Scalars="w"> 
<DataArray  type="Float64"  Name="w"  format="ascii">1.7326162895841079e-10  1.0332523728749025e-11  4.4519936099086215e-10  2.5797650674177049e-09  6.2539116685679483e-10  1.5688610160280703e-12  8.6655491552305977e-12  7.3611933244913861e-11  3.9335713447789911e-11  2.0789035630617857e-11  1.0652637350952549e-10  9.4896218147367245e-11  4.0069711506894953e-10  2.6849311157865861e-10  9.0152189802297188e-12  5.3588801717237827e-10  9.2407950826207887e-11  7.2111923259276431e-11  1.3101015396122794e-10  3.5074674986465552e-10  6.6785996871300771e-11  1.0521890067691037e-10  5.8374155488373707e-10  6.1010572914037117e-08  5.7808426575878447e-10  1.0538931586351158e-10  8.6360436555055399e-11  1.6798196380172134e-10  7.6296909509591625e-11  1.8785649401065108e-11  4.7366966131550246e-10  9.5833659509592597e-11  2.4147904658175143e-10  1.7891482147896587e-10  4.6234167405739729e-10  2.2957553068240375e-10  7.6449771708317662e-11  4.6931756395176074e-10  5.9374043926235234e-10  3.0690211611251193e-11  5.1430531459874403e-11  1.0876252703358177e-10  9.0895500797240892e-11  1.9306230086139252e-11  1.0648526149228537e-09  8.5978801155369679e-11  3.1529690683116842e-11  9.3711253709621806e-11  1.2629212333495307e-12  5.9392432627984857e-10  2.2457151494758721e-10  2.1673369367415485e-10  8.3111518328456640e-11  2.5704487075193401e-10  2.5688286375633942e-10  2.0379858551374990e-10  3.4846889866069982e-10  8.9488739636090810e-11  5.9288565031494143e-10  2.5153888600293611e-10  3.0820747383336106e-11  3.1893311427503386e-10  3.7733366517153034e-10  1.4058113481589843e-10  5.3435739404434245e-11  1.7569080982434756e-10  6.9207893705297415e-11  1.7726158739208021e-10  2.3378185992461723e-10  4.5273813195070462e-11  6.3712639044844896e-11  4.2308319318766725e-10  5.4846453988476338e-11  8.5974241467715810e-11  1.6693230830354209e-10  1.6886248912876949e-10  2.6073715107740377e-10  2.8967961699318807e-10  1.8371035293529992e-10  1.9273404354301618e-10  6.3852018402754401e-11  2.5240478920327082e-10  2.6922472877376834e-10  2.0060257940680492e-10  2.3637797250587446e-10  1.2441163686578596e-10  4.5236892159631628e-11  1.0792190212150394e-10  9.3232069723768673e-11  2.5244200826457825e-10  6.9817668328292407e-11  9.5977449847389638e-11  7.6951559802067207e-11  9.2550980505985376e-11  3.9184575994638260e-10  2.0961039325943574e-10  2.5094943840017836e-11  6.6484661562609544e-10  2.5418869319688829e-10  3.1181467438116104e-11  2.7238178683492517e-10  4.2007169506980699e-10  7.1144932831617147e-11  9.6700165560369769e-11  1.5353374156435172e-10  6.3617186922027106e-11  2.7656316165128932e-10  8.1364216751237310e-11  1.4276223829734022e-10  6.4921258079515602e-11  3.0951815694433335e-10  2.4578570060411276e-10  2.3605430321185573e-10  6.4977986743996104e-10  1.2187354415142927e-09  1.4449171468282692e-10  1.6869476765597713e-10  1.0064314543853575e-10  4.6151875369604397e-10  2.5612829562100925e-11  2.5452691608867838e-11  2.8080303179561618e-10  9.3994599538402634e-11  5.9710644353163551e-11  5.0958893252241613e-10  5.6030956413672897e-11  6.0186038171935773e-10  1.1974271202373751e-10  7.5174508486454451e-11  8.2540778077033757e-11  3.4838835982745303e-10  1.6955078424115669e-10  4.6991985104279715e-10  1.3362337897347156e-10  6.3452003038708674e-10  4.2595935390844343e-10  1.0863254543812167e-10  5.1063336799944659e-11  1.3137855783683231e-10  2.5559014828637117e-10  4.3889130097429646e-10  6.1712253535728284e-10  9.1856629914879108e-11  1.1907203351773287e-10  6.7451848826558693e-11  6.6133004850408889e-10  8.3280412957398242e-11  3.1972317344143641e-10  1.4364206307312384e-10  1.2331958292918056e-10  1.9812459865505375e-11  2.8623557471908726e-10  1.5938816770165654e-09  5.5689071356856822e-11  9.7347080483882046e-10  7.6873344035953140e-11  2.3952033637969125e-11  2.3995737223999120e-11  1.2057581520168716e-10  5.7122937552202180e-10  4.4876477066279931e-10  1.6115021448416821e-10  1.1156304497150313e-10  1.6356361010432379e-10  1.8360164846275731e-10  5.7953565335858219e-11  7.5994990602660426e-11  2.0049492662580891e-11  5.9059106310366039e-11  2.9099660074209467e-10  9.2506349099722017e-11  1.0429811454618383e-10  8.2226799975687983e-11  9.4233867029714263e-11  5.2726713383963338e-11  9.6557807618589219e-11  4.6009146455244113e-10  5.6488545016855082e-11  1.6422617501584349e-10  1.7245260548074053e-10  4.7483228018953182e-10  1.9802674703821091e-10  2.8778804979987621e-10  1.4507892654641793e-10  1.4405098317495593e-10  1.4484772746685087e-10  2.0817762756558290e-11  2.8909671180086328e-10  6.4319672115722597e-10  2.4890725647384117e-11  2.5565546268717073e-10  8.7312311950353315e-11  1.5675517329369222e-10  1.1368629395892864e-09  1.4014808497131475e-10  1.6708103750182978e-10  2.3192586772867231e-10  2.9064742145481311e-10  1.0339070788222151e-10  2.0500675509580516e-10  4.1521732059521145e-10  2.1715930428871254e-10  2.3611683474830034e-10  1.0997910067597625e-10  1.1112177297189686e-10  1.1051575112326407e-10  7.1167296132355349e-11  2.0953040730805755e-10  8.9915613441553845e-10  7.6301066027122831e-11  1.0704182414200898e-10  7.8190441153289395e-11  9.7013716663406279e-11  1.6259289653484580e-10  3.7866701561722381e-10  7.7711299500901588e-11  8.3304492817690881e-11  7.6034354267215107e-10  7.8874317350352448e-10  2.9867623758532692e-10  2.0123955479595631e-10  7.5178371649996072e-11  7.9447657931091124e-11  3.3493610872550981e-10  5.7473755232822507e-11  8.1354330962050538e-11  4.9524379879967533e-11  9.3305966878050550e-11  4.0429564939105703e-10  8.9328614130163556e-11  1.9950840816227087e-10  1.6593114775295626e-10  9.1414540204921648e-10  6.0790234914824777e-11  1.9388784775244649e-10  1.1654275624863150e-10  1.0943109424910544e-10  7.5635459153255149e-10  7.4130703419890882e-11  8.3993681445029487e-11  1.1842250937187211e-10  1.1333475569332824e-09  3.9795747709268105e-11  7.7404073544853896e-11  2.8303338794877547e-10  2.4979935486931123e-10  3.4175376230659808e-10  1.7796333596322095e-10  2.0483559595205912e-10  4.0704227395220388e-10  2.8938184469290446e-11  1.0444030085623641e-10  1.2750456939290029e-10  3.6875714579242899e-11  2.6390181253394320e-10  4.3340363027346467e-11  3.4018032449267876e-10  1.3671696102588782e-10  1.1107879127727855e-10  1.9344012060998446e-10  5.0624442676969136e-10  7.1650792845085775e-11  2.6343836978574246e-11  1.4485533669246401e-10  8.1951483539326537e-11  5.7817456924551705e-11  7.3206799066220040e-11  1.8107205123306026e-10  4.8676658194398905e-11  2.6686797732270062e-10  2.5788123911744501e-10  1.3265032700742233e-10  1.3042285139407163e-10  1.3463324481526903e-11  7.2224604859589167e-11  1.4845506732191708e-10  1.6552623875399514e-10  5.0666386345130069e-10  3.6334532509853060e-11  8.0756297912393569e-11  3.3128684295749571e-11  2.4358128185433474e-10  1.2473313122594653e-10  1.8242828653015480e-10  7.5638212909578049e-11  8.6707557754243182e-11  1.2060714781850320e-10  2.0139463695022453e-10  2.2478678088151096e-10  2.6208545605845865e-10  4.4449806866125037e-10  2.1529306321869911e-10  2.1200317059108646e-10  1.4234774905044632e-10  7.9850305157154703e-11  1.7101880262770240e-10  1.6553058239854966e-10  6.3076346390250403e-10  1.2750118638298641e-10  6.1574339760753942e-11  4.1208384571095455e-10  1.9226258150585553e-10  2.0444496233607503e-10  1.2247750635050038e-10  3.1979658953579496e-11  4.4527295668689811e-11  9.6628451075811527e-11  7.0034606463362621e-10  2.9548644133628820e-10  1.8053753076703986e-10  1.3467914630038286e-10  3.3033999755071130e-10  6.8122518986233821e-11  1.1080615961061393e-10  3.4857797169576043e-10  1.1037477866386146e-09  9.7303363362948343e-11  2.8526178479059529e-10  6.2014608434137099e-10  1.2521426685253813e-09  1.9880515336160076e-10  1.5570483966612890e-09  4.2392578548728418e-10  2.2637799062414426e-10  1.1618421845625368e-10  4.1229404286265640e-11  6.4270886432287595e-11  1.2846740155106727e-10  1.5680945217838568e-10  6.2564014115310831e-11  9.9565955458948661e-11  1.0889979472843733e-10  1.2678795002193709e-10  1.9444662774788223e-10  5.0744322040660273e-10  3.2367460163421648e-10  1.6587864953925718e-10  9.4350005171363026e-11  6.1267013537558495e-11  5.8696151412226514e-11  7.1030355238722920e-11  1.8226078077066532e-10  2.2521735125886917e-10  1.0411612966632626e-10  1.0404138571118637e-10  2.3614521321531026e-10  1.3418805358581410e-10  6.7749249661269725e-11  5.8673589348556423e-11  1.0591900901529339e-10  3.3823011355043864e-11  1.8475925845709782e-10  3.2096776299844207e-11  1.6172961167581326e-10  1.7918748446396473e-10  1.5540222340183457e-10  3.9224262511615848e-10  7.9300252003918345e-11  8.1571347826902801e-11  1.4276425107802506e-10  3.0875808383501902e-10  1.4632924761010194e-10  2.6345367546642273e-10  1.0983623888881948e-10  1.3506872386238107e-10  1.5640508195216417e-10  2.7983926604351158e-10  1.2874581632697021e-10  3.3292289795843888e-11  1.1539369370019821e-10  1.1244771021778694e-10  1.4453901059271760e-10  2.4550084747221778e-10  1.6676981108996691e-10  3.4432465124498772e-11  1.2813223233928741e-10  2.2733400199183420e-10  2.8492639330191102e-11  3.3182686097379967e-10  1.6626387959284339e-10  3.9647051874821147e-10  1.1298327701885333e-10  2.3840565839487537e-10  3.2637874419085426e-10  7.4198694194134477e-11  1.0358500873269508e-10  2.1411922640797831e-10  7.1329933099608554e-11  4.8262753574463460e-10  1.6232559457910540e-10  9.6308063904864273e-11  1.0705150673791910e-10  2.0516833119001440e-10  5.5195066627189287e-10  4.8534946094406998e-10  1.7828427697193217e-10  1.7127122957762255e-10  2.0471684544840732e-10  3.9512683446898838e-10  4.4866235714624887e-11  2.2292701843274147e-10  7.9202447642770536e-11  1.2491843603903889e-09  1.1783888254852894e-10  4.6045715616433384e-11  5.6470472141571492e-10  3.3692896460700937e-10  2.5124594438968646e-10  2.0931656985599466e-10  6.3514767933646319e-11  1.5199622719329140e-10  3.2707346761704377e-11  4.4570261581995890e-10  8.0516994041319035e-11  1.3378911567908243e-10  1.2704483910255165e-10  6.4877595628388097e-11  3.4641982621379410e-10  4.2608309416408299e-11  1.1535083895703101e-10  2.5428212500762503e-10  1.8219233328279815e-10  7.2672774385602919e-10  9.0289327794151612e-11  5.8322167271658311e-10  1.4277560207420002e-10  3.6247159114431819e-10  5.6107000918410508e-10  2.4761343077697686e-10  1.5492267767747843e-10  2.7561991495931513e-10  4.8687669474275979e-10  3.3895389671138962e-10  7.4856560623228420e-11  5.0261680114440473e-11  1.6623077783225292e-10  3.6221327022562832e-10  1.8438399331801671e-10  1.2497924617405641e-10  1.6636533376986266e-10  7.9467162664481826e-11  7.0104625435874264e-11  1.9927144998512706e-10  5.6908662433530171e-11  2.0621149123108657e-10  9.0214627960663556e-11  4.8927680480291504e-10  4.8877878663866931e-10  8.1442375622164802e-11  4.1601168445203850e-11  4.0630565124144670e-10  6.5853127901659342e-10  2.6025969460674849e-10  1.0053692238416828e-09  2.9238685342452866e-10  3.2154304396040269e-10  2.7724995730078618e-10  2.7077748789532072e-10  9.7018965420992999e-11  3.0859693038615500e-11  1.9468926851118955e-10  1.0149304380649419e-10  2.1204530811655948e-10  7.6021147167794579e-11  1.2053328164211319e-10  2.0763819184780122e-09  1.7861500951477510e-10  7.9871589732007820e-11  8.1320553206756986e-11  4.0382975095534011e-10  2.4617191501187923e-10  1.9111422367244998e-10  2.0918083333497052e-10  4.3968573553559620e-11  7.7313251353124242e-10  2.4341288105141800e-10  5.3302001166412374e-10  2.4723811247364756e-10  2.3750569310036514e-10  3.0714595010955120e-10  9.4184781902793831e-11  3.2803859425239378e-11  3.5875156976360928e-11  3.7552943511418630e-10  3.5205699521270784e-11  1.1338202116512231e-10  1.0219555061698937e-09  7.5121288353629019e-11  3.3930940578024290e-10  2.5898410318048116e-10  6.1470718616836050e-11  5.8340549783567595e-11  1.8323863638291950e-10  2.4823819363533132e-10  4.6749424390235324e-11  1.1379395585718168e-10  1.5747294786925803e-10  7.5372882512443718e-11  1.6826580419409890e-10  2.1456691026285225e-09  3.3992709106134779e-10  3.2198867659813469e-10  1.0735782659534310e-10  1.0501491787504390e-10  1.8309877273082613e-10  7.7717723981123152e-11  1.3541875551361275e-10  4.9683756329880879e-10  8.6479045041866228e-11  2.3799804032129604e-10  2.1237059396308658e-10  1.3957593525810755e-10  5.0298280777311941e-11  7.5610628484730384e-11  5.3511567380941569e-11  3.8490246691796079e-10  1.0459359492668281e-10  2.2078402010930754e-11  5.7595347339038163e-10  2.9971356042734589e-11  6.2547887934896581e-10  1.1607450850057715e-11  7.3528913581839701e-10  1.7825692661102142e-10  2.4775054087631398e-10  1.0277060986033818e-10  2.8576151444675748e-11  8.3228237512103010e-11  2.7398304572856017e-11  2.0426729470640830e-10  3.7431041626213421e-10  2.7154965364519155e-10  3.2630474829345041e-10  1.3354469583174796e-10  9.1573179000301734e-11  6.2241055047749703e-11  3.6493062219336139e-10  4.9661095055755695e-10  1.0581804666254772e-10  1.0017485107863645e-10  1.4608900489548487e-10  7.4932309496793692e-11  4.4422194873716430e-11  5.3419610789680447e-11  3.1567956143737201e-11  8.7978160811905760e-12  1.7672825110967382e-11  9.6516029094650809e-11  2.2478256573607253e-12  1.1019855842265976e-11  1.8459379100537975e-10  3.5182685227631730e-09  2.1594075089157108e-10  4.1382007228864163e-11  2.2066434557648301e-10  9.1062553320991043e-11  1.1199350897260178e-10  4.3036361295735985e-11  1.6855249931751859e-11  8.6319989840277575e-11  7.4689239980467022e-10  7.8674097359908693e-11  1.8367206123276133e-10  3.2203029079362869e-10  4.8821211383457864e-10  9.6788356739418472e-11  1.0110288419550206e-10  5.7554935509345558e-11  7.7033513958338471e-11  1.0946416242167779e-10  5.6162117972827166e-11  5.9625727588948616e-10  5.8831415736137238e-11  2.8312095097475671e-10  8.7709600122021214e-11  1.2739047178184541e-10  3.0808522746274271e-10  4.1420628169791000e-11  6.1648964239479578e-11  2.7496667659529775e-10  1.1743371283098880e-11  1.1247082268070509e-10  8.7019797842908812e-11  7.6006522963795565e-11  5.6940351069513047e-10  1.6209396100067040e-09  2.8260389553276797e-10  2.9110992123300674e-10  9.0468341672008914e-11  6.7293568230919216e-11  2.5082305886255392e-10  1.1555731388632255e-10  9.6106386350944389e-11  1.0244373194246392e-10  1.9671510949542342e-10  7.2487496926047529e-11  5.1457332356399304e-11  6.9311503231429767e-11  3.9010055159706290e-11  8.4861536640896307e-11  1.9471918879827359e-10  1.6441103009460541e-10  1.1337475615048490e-10  2.6894755660377908e-10  4.6325484001641153e-11  1.3479225960987758e-10  5.3176622442716600e-10  6.5686629907361046e-11  1.1676869743351426e-10  1.2890602721190269e-09  5.7754976823158005e-11  3.4620586421024835e-10  5.2382638551940363e-10  1.6021415472888761e-10  1.2774317040455108e-10  1.2669127036934069e-10  8.8129122897451603e-11  2.5015367317831641e-10  2.8982206080835606e-10  1.7759137031040103e-10  4.7904247342120234e-10  4.2717004549905526e-10  1.1960667637446565e-10  2.0747905616779342e-10  6.4824183066603917e-11  8.3329633693298431e-11  6.1937241058870830e-11  2.3717430916119020e-10  4.0200221207327855e-10  3.0972007231931227e-10  3.3124252283518486e-10  8.5311022052518003e-11  2.3219816969764667e-10  4.8847810757383750e-10  1.7298494816408613e-10  4.7037272861680498e-10  1.8040911896191254e-10  1.3766122563423088e-10  1.1077817935469728e-10  5.0778485301235736e-11  5.2569601269738339e-11  3.2663769870031036e-10  6.1980720546008162e-11  6.4175755407409112e-11  1.2747874071691587e-10  3.2425402238774515e-10  3.1788808222800638e-10  1.5812192990388023e-10  1.1761157431760061e-10  6.0615473787398560e-10  6.4164591723464906e-10  1.6312360294299006e-09  2.7179336286572843e-10  1.9961180815390828e-10  4.4732728750401897e-10  4.6408106328045674e-10  1.1972078794129165e-09  3.0275223724816714e-10  2.3924055788710470e-10  3.2898186463758769e-11  1.2606284305148540e-10  3.1302161633211614e-10  4.7691230643007481e-10  2.0741091895577559e-10  6.7789234901727867e-10  2.9906302593239662e-10  2.1242840978578789e-11  4.8109881874793976e-10  3.2525380992857311e-10  3.8742419378688461e-11  3.3740081974642011e-10  4.1463435386569127e-10  5.5030414964459516e-10  1.4679134966919562e-10  6.7833585163331700e-10  1.9658549473987665e-10  4.6860832744772288e-11  1.2732131387561667e-10  1.3219215286349957e-10  3.0943481692395906e-10  7.7167785051282856e-11  2.6301128778228273e-10  1.9034785566647382e-10  8.0473137660337662e-12  2.3053270812240633e-10  5.6638399438091697e-11  8.9242345214231323e-11  1.2182337566328725e-10  6.4537165015812005e-10  4.1412390875910961e-10  3.1062729039620252e-10  1.1690659808527594e-10  1.3019541690339995e-10  9.2267951187792669e-10  5.5257615377198204e-10  1.3371667906232057e-10  1.4299256772402341e-10  9.5290584006640570e-11  4.9872127806797185e-10  1.3479717027071331e-10  1.7079717474479177e-10  9.3608394359384092e-11  6.9407097736879109e-11  6.2402700311915327e-11  1.4517060607974153e-10  9.6597791092997208e-11  1.3047482890671929e-10  4.3124644067991971e-10  7.4561170876259645e-11  5.9956924281032292e-10  1.2455760119638670e-10  2.2636199371852195e-10  2.7555177752309235e-10  5.6107123957205578e-10  1.1574893064603897e-10  4.0246696327128402e-11  6.1586104576179497e-11  1.4270954615857699e-10  1.5860555224028041e-10  5.1234072614896073e-10  8.2423720170137417e-11  1.5595409610886010e-10  2.4554071534039474e-10  1.3983330298696340e-10  2.3456263445635179e-10  3.3113801492033600e-10  3.1587613227423345e-10  1.0206006440835370e-10  1.7254512612169221e-10  1.4949308753825958e-10  2.2911605233924786e-10  4.6313399326605066e-10  3.7562079555019496e-10  2.0202342609115209e-10  2.0082063963118779e-10  1.2241336359761189e-10  1.6996015794741313e-10  3.0310730953999614e-10  3.8165167274538367e-10  3.6284932021080425e-10  1.6744679889429906e-10  2.2223225311438175e-10  1.9447989409479737e-10  1.5084848073959718e-10  3.9556948771758159e-10  3.1114523146622458e-11  1.0442068102344775e-10  1.2747636828118281e-10  4.4420518032347946e-08  4.1301817608289644e-10  1.7139085388245847e-10  6.1099428580020358e-11  2.6009712032653720e-10  1.3624497542427848e-10  6.3494566823991745e-11  1.0352096471561378e-10  2.0383208385771513e-10  2.0389565155452523e-10  1.9086606189792503e-10  1.8751227249517914e-10  3.0818717178317838e-10  6.3845173953895057e-11  7.9706145013551913e-11  1.8915706144859568e-10  1.2507483852577133e-10  3.4744443121293287e-11  4.0094041820546793e-10  6.4171738185247568e-11  6.0141631356891951e-11  1.9386017189782589e-10  9.7458591985128152e-11  2.3335051125233193e-10  2.9219647346583804e-10  2.1623257440361491e-10  7.8164614393570279e-11  1.8356452944591234e-10  9.5521000506400674e-11  3.2017445191518770e-11  8.8753187708939708e-11  5.7731512071994787e-11  7.9632136449843066e-11  2.2842015186956267e-10  4.6395867095253642e-11  6.5229771823189292e-11  9.3358935421303520e-11  9.1681535509136492e-11  9.3590292027558282e-11  2.4749839328145463e-10  8.8121474383348182e-11  1.8450272785694706e-10  2.0903935294501375e-10  1.0345675081495600e-10  1.6152104235047614e-10  3.1578021871778771e-10  1.2319663984426063e-10  6.2228959093046824e-10  1.6989730649031217e-10  1.4814355616886637e-10  1.4103561995853247e-10  2.2253513365490613e-10  4.3421875206957158e-11  3.9020271615888201e-11  7.5823341054655790e-11  4.3747524600481789e-10  2.0418187964248508e-10  6.3186728495046079e-10  4.5121640887654129e-10  1.2117691078208929e-10  5.5473359577855614e-10  3.6181111067955462e-10  1.8662250472954871e-10  6.9771608002749722e-11  9.3043197584776549e-11  1.7700740517757000e-10  1.8964102674476508e-10  4.0997303951977960e-11  4.7875487419398418e-10  2.7800288802145963e-10  2.9695329588843922e-10  5.2226709654267608e-11  3.5430989024590778e-10  2.6508289393195375e-10  5.8754420658233048e-10  7.2647723190816699e-11  6.0194879564968682e-11  2.4165566905815232e-10  7.1507431661137744e-11  4.1696859747784016e-11  1.4460274031459274e-10  2.3980252093692817e-11  6