<?xml version="1.0"?>
<VTKFile type="UnstructuredGrid"  version="0.1"  >
<UnstructuredGrid>
<Piece  NumberOfPoints="4852" NumberOfCells="9430">
<Points>
<DataArray  type="Float64"  NumberOfComponents="3"  format="ascii">-1 0 0  -1 -1 0  0 -1 0  0 0 0  1 0 0  1 1 0  -1 1 0  0 1 0  -0.5 1 0  -1 0.5 0  -1 -0.5 0  -0.4999999999999999 -0.9999999999999999 0  0 -0.1608775713298009 0  1 0.5 0  0.5 1 0  0.1967448868031411 0 0  -0.3417532387875032 -0.1760094374593972 0  -0.3378874578169457 0.2250456108476736 0  0.1739589513373086 0.3475218907561822 0  -0.185800651364009 0.5558438765162583 0  -0.5043200331186878 -0.5380439892558641 0  0.4907707680048967 0.2585034374901883 0  -0.06501182171398158 0.2019839014651635 0  0 -0.5061325913258391 0  -0.25 -0.9999999999999999 0  -0.5618662908773712 0.5779076298766647 0  0.6616803640719618 0.6346603290089917 0  -0.1772898804484848 -0.5382089831660354 0  -0.5399289572419654 0.02582240110747933 0  -1 0.25 0  -0.2071676795235782 0.02409339722742192 0  -0.6551978708491141 0.309886210337763 0  -1 -0.25 0  0.03870306453527861 0.5927218384052091 0  0.1954091602024551 0.1297809148813463 0  -0.1370187286880778 -0.2202956562470209 0  0.3711451261651248 0.6155649335461104 0  1 0.25 0  0.5355652144809806 0 0  -0.75 -1 0  -1 -0.7499999999999999 0  -0.6456900517569986 -0.3233903115083021 0  0.25 1 0  -1 0.7500000000000001 0  0.02757118475249542 0 0  -0.25 1 0  -0.75 1 0  1 0.75 0  0.75 0.9999999999999999 0  0 -0.02898318711980711 0  0.05417759114697257 0.1431373564350516 0  -0.07816078652786969 -0.02787118208065684 0  -0.7017821486122767 -0.1323674569770966 0  -0.32255587022097 -0.3478495009096754 0  -0.3410729705712476 0.4381533573033511 0  -0.1004391090519405 0.7647913821650792 0  -0.3837189818305204 0.7031092479115217 0  -0.05552814410115924 0.4000418916454759 0  -0.07951031238188026 0.07239713316346277 0  0.3592010979973147 0.3710441924788531 0  -0.7160626214574758 -0.7301800290412843 0  0.4121452077819298 0.09059505287184121 0  0.6900599554756141 0.1924921127701998 0  -0.7476845321944002 -0.5273087011633932 0  -0.3878486498452681 -0.7111177990369965 0  0.7216766609209827 0.419715070909586 0  -0.7765380638895257 0.09727388597784957 0  0.1966036265444381 0.6995188273111682 0  -0.1996467921447994 0.2894288234253621 0  -0.7991557030767633 0.5777177467743471 0  -0.7169397025241795 0.7665493385619504 0  -0.05232188794244857 -0.3737559006342058 0  0.584819085854017 0.8169754744585147 0  0.8204457361208448 0.8060471474690016 0  -0.107010293200292 -0.697660064101596 0  -0.5155132477320103 0.1633212162354404 0  -0.2028297193062837 0.1262741630667615 0  -0.3603399176357753 0.07585619487612164 0  -0.3662869545836172 -0.05217581723138616 0  -0.4974585748610985 0.3957250705535425 0  0.375 1 0  1 0.125 0  -0.01207825668412494 0.07170230674630576 0  0.06177895248605875 0.3931141003476641 0  -0.1722055432476896 -0.1226393643298656 0  -0.2433736558968882 0.7741192601559375 0  -0.625 1 0  0.5336135469126457 0.4556714181556565 0  -0.5760165038183558 -0.8303119233339148 0  -0.2577141425747889 -0.7840504304047455 0  -0.3204948665964833 -0.5090567528765365 0  0.8340728752033929 0.5957267869631201 0  -0.5489842766119216 0.7910687174367604 0  0.125 1 0  -0.06779705813648033 -0.09363937136027968 0  -0.4955479191028633 -0.1432615131066018 0  -0.875 -1 0  0.02963892078147541 0.04189459473187029 0  1 0.375 0  -0.875 1 0  0.05701660219689351 0.7945621892005119 0  -0.1969761893970405 -0.3741752882698385 0  -0.07350463479741812 0.572039434650395 0  0.236437438672685 0.5192080245044129 0  -0.7927430060784953 0.2297478199998317 0  -0.4959024212539532 -0.389619769853441 0  -0.0003624260520969004 0.2723010974543605 0  0.510084159006979 0.6411900690417953 0  0.3988878392748796 0.8079423615508081 0  -0.8064890986647463 0.4247555876740479 0  -0.06462680857127899 -0.2208090228480917 0  -0.7102777595600031 -0.013922099760337 0  0.09071303919318467 0.052890476550505 0  -0.4790816401615454 -0.2516153674273185 0  0.7238556701802442 0.08324272987535238 0  -0.8088733473027253 -0.4113000809289251 0  0.3379096773858421 0.1546785170451312 0  -0.7949042650213116 -0.2509464025319802 0  0.236590442376195 0.255706801194561 0  -1 -0.8749999999999999 0  -1 0.875 0  0.1845321076504887 0.04835635192102872 0  -0.2484340764763825 -0.2295408039204396 0  -1 0.375 0  -0.1719460345158653 -0.04176126649817297 0  -0.6493701166287574 0.4679757743277875 0  0 -0.07736776745332727 0  0.0802652789692964 0.2611470787713197 0  -0.375 1 0  -0.2177749215841999 0.4257504703432086 0  -0.1208654636838723 0.1509202591185356 0  0.1329997708681326 0.5553684212481167 0  0.1320502910594974 0.1949554222987218 0  -0.4757211045868135 0.270249136487061 0  -0.04653908372476249 0.01398649102041902 0  0.8514167772790124 0.3708443173927344 0  -1 -0.125 0  0.2855356096955476 0.8374085523236922 0  -0.1115728770776312 0.3141495876091086 0  -0.125 -1 0  0 -0.7575037395175259 0  0.07821397079968176 0 0  -1 -0.375 0  -0.375 -1 0  -0.625 -1 0  0.7474787146812756 0 0  0.625 1 0  0 -0.2918843213980812 0  -1 0.625 0  -1 0.125 0  -1 -0.625 0  0.3284075310660084 0 0  0.004929205892015135 0 0  -0.125 1 0  0 -0.006571003003944568 0  1 0.625 0  1 0.875 0  0.875 0.9999999999999999 0  -0.562864976874219 -0.676825007767426 0  -0.005046762528836715 0.1611586088230573 0  0.3627084277908009 0.2645641081068777 0  0.6531238113132253 0.2951941757976438 0  -0.8547537246924084 -0.6467345596592654 0  -0.8635532837504213 0.7871892258783134 0  0.4306805540776805 0.5028257056092015 0  -0.398822322863589 0.8561102397372381 0  -0.7787117278316671 -0.8748884059410426 0  -0.8704785450810357 -0.7844162143608882 0  0.1540104124664675 0.8427475067732489 0  -0.6593160545579866 0.1532071507685928 0  -0.5785752115212596 -0.06396494528854654 0  -0.8549366378113823 -0.0624703933932535 0  -0.2967341811217507 0.5630213672745783 0  -0.4244156175210439 0.5706573093963676 0  -0.3770503178844899 0.3319339804106778 0  -0.6191360090232564 -0.2165409311600681 0  -0.2739542340843331 -0.09009135722012052 0  -0.6403316607729909 -0.5889843639044032 0  0.8597334604005551 0.2664900934870195 0  -0.03297433459498971 -0.0330336501204854 0  -0.05528874065189407 0.115269809771217 0  -0.1345642186436189 0.4331613743761631 0  -0.1205583934080106 0.03265531712823724 0  0.5378541592345181 0.06507483765006064 0  0.5794275203799478 0.360876737118773 0  0.6915299643572556 0.7752527831775957 0  -0.7935292040974442 0.8812653398303252 0  -0.6438007722701263 -0.4296426864724065 0  -0.1176479140337117 -0.3975523452835049 0  0.8722045968166283 0.489221233501603 0  0.07607786897794401 0.09457074689627806 0  -0.6648200537115737 0.8683343643754079 0  0.4549213984474451 0.3522954409959942 0  -0.02655942254416538 0.03606732084213468 0  -0.409904988614946 -0.4409187284994767 0  -0.362864181253271 -0.269272002386228 0  0.3236748946005845 0.4833128456241943 0  -0.1970781508252899 0.2024229606368211 0  0.7058157072349728 0.5319227702387738 0  0.2619925807559921 0.3576818810739483 0  -0.3767144081234262 -0.8521583329491189 0  0.1088806740968462 0.6830299924660923 0  -0.2854458922127309 -0.6126077004990745 0  -0.4417126313191965 -0.6206948984841045 0  0.2962036536300674 0.6933629720091882 0  -0.8752130167030993 -0.17480703798811 0  -0.1804178289070934 0.8553477709271444 0  0.4550432171067404 0.1646431259103237 0  0.2804945284542225 0.04708962546022163 0  -0.1430015292449442 0.6583570778517921 0  -0.01186484663161695 0.7095166861844201 0  -0.05361050545959573 0.8754273510884437 0  0.004850357176338809 0.4711718977264596 0  -0.3888834085654733 0.1542558623650991 0  0.5493319357419925 0.1341724602057626 0  -0.4764676280404269 0.6830170094682569 0  -0.8518598271335518 0.3331496109224718 0  -0.09322315169336648 -0.5365503857028647 0  -0.03091137929898155 -0.5522156590332788 0  -0.2145630306555432 -0.2881958115796261 0  0.8684435341682197 0.1518596206660784 0  -0.1703941954734518 -0.6614959865912391 0  -0.8893528719787772 -0.5286481823084713 0  -0.2827733543515416 0.3393630860990722 0  -0.6767732645072191 0.5746638711006736 0  -0.897668858402135 0.5316689864352787 0  -0.8985377759498502 0.6611271578614567 0  -0.6452896706402098 0.07281423667080358 0  -0.8595140819439923 0.02872138498264195 0  -0.8884785830265489 0.1680910158705403 0  -0.1310383404769374 0.2300272886923893 0  0.1602529777174851 0.4477302648748444 0  -0.043765397621481 -0.1259925333792966 0  -0.7537688563466333 0.6704402413208342 0  -0.6029229727998949 0.698454207394151 0  -0.2555893778251136 0.07912361905107805 0  -0.2500546769000374 0.6496240571474791 0  -0.02760273140013092 -0.00643060876720543 0  -0.4946873812332355 0.8772705984884145 0  -0.4777364212010419 0.4913704718967866 0  -0.2916629211192109 0.144844739262212 0  0.002265870574860872 0.02378972887530362 0  0.7796948448261047 0.6841610282879115 0  -0.4699731742126479 -0.8250776967447887 0  0.2723106865211457 0.1963588891782726 0  -0.1488827186718013 -0.8635222275765341 0  -0.06606932259547078 -0.8300037727701508 0  0.4434927799443066 0.7070126436334958 0  -0.118060370033848 -0.2886867078282742 0  -0.2661008548764738 -0.02599098364872569 0  -0.8938103480122414 -0.8965363311553693 0  -0.5739086302542341 0.2379204410783546 0  -0.4773693479828978 0.08818172404361695 0  0.4913136641604183 0.8264373533525913 0  -0.02821629440304383 -0.2604177738584739 0  -0.3103984501460912 0.8756862452331725 0  -0.1439479392370699 0.08107450782943551 0  -0.4705044395334236 -0.03462205582231877 0  -0.3892619990173275 0.01251951519605896 0  -0.2929732427712126 0.02798063668843623 0  -0.3861276445431151 -0.1204831731282647 0  0.8882664930426349 0.6983186621784805 0  0.7927555566699699 0.9108424810102363 0  0.5768208227622104 0.2092397720483109 0  -0.5606705233013523 -0.4699585856761191 0  0.5990960335639698 0.7068567332322178 0  0.6783640350963306 0.888597520214589 0  -0.05175665343585489 0.3044415108676977 0  -0.9022490172206755 0.904725233965872 0  -0.128227124308092 -0.06728056006596835 0  -0.169861870747814 -0.1829666296361934 0  -0.2534527647844566 -0.14394195693
[...]
<PointData  Scalars="w"> 
<DataArray  type="Float64"  Name="w"  format="ascii">1.7220214331155258e-10  1.0354891574242255e-11  4.4527944254246351e-10  2.7008091750363178e-09  6.2456902219611781e-10  1.5666517184922076e-12  8.6713396347444375e-12  7.4098195963920114e-11  4.0022235552805306e-11  2.0953190336024309e-11  1.0676968060675383e-10  9.4963386012587935e-11  4.0690807648499315e-10  2.7334039486013943e-10  9.0890192232626731e-12  5.3374750463256006e-10  9.0664501182008629e-11  7.1894334345300295e-11  1.3045534676303410e-10  3.5054671519069795e-10  6.6460823567678841e-11  1.0431814272491080e-10  5.7724365776931592e-10  1.1056142418578506e-05  5.7229336056304248e-10  1.0681796196740510e-10  8.7940165788543517e-11  1.6999905595052429e-10  7.5947159114832859e-11  1.8722461936000028e-11  4.7023099927297085e-10  9.6546908949393385e-11  2.4010694274041734e-10  1.7838710007080454e-10  4.6041406688836584e-10  2.2661135734797033e-10  7.6810322191920671e-11  4.7418945139863919e-10  5.9059832734829958e-10  3.1092906769381965e-11  5.2295857132753502e-11  1.0709092969238892e-10  9.1483037115287605e-11  1.9516226792204983e-11  1.0716706147954691e-09  8.7333349933108494e-11  3.1837064917640498e-11  9.5508631118147829e-11  1.2485030297741536e-12  5.9795706132810124e-10  2.2418310919439711e-10  2.1698133148424056e-10  8.1881942849661549e-11  2.5155706978929289e-10  2.5699352229842506e-10  2.0128930458234799e-10  3.5173682105408025e-10  8.8725196628473275e-11  5.8990263042056533e-10  2.4997066418155977e-10  3.1113816914186160e-11  3.1654249902376014e-10  3.7725229470398432e-10  1.4219203267993583e-10  5.3642226916937413e-11  1.7690620814330451e-10  6.9656605876578191e-11  1.7636534916639884e-10  2.3220987393188631e-10  4.5610062791893729e-11  6.4226843959162166e-11  4.3112009890040398e-10  5.5915421934455668e-11  8.7500148907988885e-11  1.6953442399891187e-10  1.6860122091963296e-10  2.5786289477045066e-10  2.8784826959358274e-10  1.8185616756320396e-10  1.9274269811381808e-10  6.4319081737139466e-11  2.5225077432497354e-10  2.6910951640821153e-10  1.9918720429587085e-10  2.3516505753902104e-10  1.2331021495809796e-10  4.5964090381371290e-11  1.0869926461872550e-10  9.3762084168675849e-11  2.5019743444821896e-10  6.8899836619045348e-11  9.7915317740860865e-11  7.7400631486577397e-11  9.3018725730331786e-11  3.9375453864944802e-10  2.0769090700633033e-10  2.5451838827910213e-11  6.6859013842788159e-10  2.5500112925394514e-10  3.1422939989004363e-11  2.7206524915966149e-10  4.1365488498501310e-10  7.0842663738810636e-11  9.6375980502856498e-11  1.5488687847166959e-10  6.3186777333815907e-11  2.7399547732384600e-10  8.1915398141553821e-11  1.4452641456311610e-10  6.5324526065447812e-11  3.1586613330153476e-10  2.4365363067380181e-10  2.3651330047991149e-10  6.3732406119056469e-10  1.2128748419583656e-09  1.4737734899747609e-10  1.6750804741813462e-10  1.0152772616942363e-10  4.5915283837931345e-10  2.5914299867724765e-11  2.5571577553103888e-11  2.8072613432315721e-10  9.1607787793341846e-11  6.0419252785967364e-11  5.0633578885015907e-10  5.6673986377024474e-11  6.1011581436499860e-10  1.1898114450189708e-10  7.6221541084572252e-11  8.2084490902118584e-11  3.4444180967018510e-10  1.7019374787566850e-10  4.6653405241352969e-10  1.3366555457783696e-10  6.3539093302133635e-10  4.3582824864495051e-10  1.0800942097312999e-10  5.1458726589264880e-11  1.2998580295018524e-10  2.5574059633885102e-10  4.3768744898278444e-10  6.1779629154116134e-10  9.1953392858831434e-11  1.1818410006898794e-10  6.8324293290467037e-11  6.5852896688472766e-10  8.4926790929290029e-11  2.5354406059152319e-10  1.4585908600345183e-10  1.2270656375651162e-10  1.9961358701814983e-11  2.8524681901723728e-10  1.6146790557597187e-09  5.6435084408394074e-11  9.8681497992477214e-10  7.8294155334007411e-11  2.4373227916840083e-11  2.4204845770237234e-11  1.2062622694921548e-10  5.6668908725940155e-10  4.4640940616349969e-10  1.6096616475241025e-10  1.1405799804453570e-10  1.6551626545455319e-10  1.8549027256994104e-10  5.8003888452543187e-11  7.7450692824647644e-11  2.0345173224497686e-11  5.9260260832789988e-11  2.9050254209178904e-10  9.1718672148622387e-11  1.0484588803054121e-10  8.2193949212681888e-11  9.5119008974813572e-11  5.2963141093350687e-11  9.5060916195104627e-11  4.5514186687133440e-10  5.6665754886929924e-11  1.6397655631989599e-10  1.7353579008109349e-10  4.7042903907576428e-10  1.9653118724788425e-10  2.8617013503646330e-10  1.4395881024733249e-10  1.4398562053731876e-10  1.4815343243812962e-10  2.0982673512425407e-11  2.8377288143500585e-10  6.5412285392712442e-10  2.5285408966875598e-11  2.5473832903637119e-10  8.8370181309287841e-11  1.5678127403566539e-10  1.1421799753424469e-09  1.3619357770528522e-10  1.6386789201382446e-10  2.3172310648677932e-10  2.8712594128418423e-10  1.0515929732165306e-10  2.0387054584406692e-10  4.1500202502792168e-10  2.1650935373009669e-10  2.3772240772276771e-10  1.0877188162500790e-10  1.1138719438396811e-10  1.1151322888926865e-10  7.0356066077384614e-11  2.0836250740383138e-10  8.9478516043181363e-10  7.7098905312589568e-11  1.0705344662026772e-10  7.7403702952475563e-11  9.6280296023671058e-11  1.6163528972078713e-10  3.7746185675977898e-10  7.8606747261674816e-11  8.3791753875063358e-11  7.9601326024671848e-10  2.2125761793145847e-09  2.9237428941704775e-10  2.0033904446201614e-10  7.6187047054611322e-11  8.0180780511296892e-11  3.3346099568644471e-10  5.8075592010410129e-11  8.2501053796130869e-11  4.9923241400250905e-11  9.2471491518908874e-11  4.0739685865616706e-10  8.9486129642073903e-11  1.9773039230659487e-10  1.6484332457632158e-10  9.1007221156341888e-10  6.1371507551274159e-11  1.9615983581406795e-10  1.1552276674233118e-10  1.1075679573159544e-10  7.6076138964289657e-10  7.4385205100552998e-11  8.4396373967737980e-11  1.1791917156575639e-10  1.1475074728565996e-09  4.0640414398674296e-11  7.7300763927846543e-11  2.8138557528996830e-10  2.4938183628904350e-10  3.4379303229884940e-10  1.7947836703718932e-10  2.0514373731965188e-10  4.0379305961177518e-10  2.9411786843210457e-11  1.0457480126647509e-10  1.2710170029636445e-10  3.7258464348398639e-11  2.7164984319612388e-10  4.3475619934647704e-11  3.3679571607888646e-10  1.3537870768028343e-10  1.0997557810995995e-10  1.9177938823106853e-10  5.0009873398397706e-10  7.2686135128123874e-11  2.6824606588805268e-11  1.4460901016125779e-10  8.1387194776664794e-11  5.8826938851924553e-11  7.5143628213944901e-11  1.7896573642955714e-10  4.9044922650591488e-11  2.6583233974076065e-10  2.5509135370139037e-10  1.2947010392657120e-10  1.2985259918818894e-10  1.3672479875188213e-11  7.1801435588258987e-11  1.4820138729982869e-10  1.6629520601857379e-10  5.0644860407185014e-10  3.6591846761858288e-11  8.1571346979761040e-11  3.3397647197278635e-11  2.4239368507276362e-10  1.2467646616490840e-10  1.8305382474158682e-10  7.5443671666168374e-11  8.6606167576042688e-11  1.2020506796412641e-10  2.0064510868098659e-10  2.2373588024564909e-10  2.6030224005380921e-10  4.4082130567424139e-10  2.1317970980226504e-10  2.1118054300109694e-10  1.4272908378490282e-10  7.9420355287462052e-11  1.6950914971190933e-10  1.6420844738358982e-10  6.3686067738757766e-10  1.2852013447438808e-10  6.1866174474843125e-11  4.0982803894521855e-10  1.9266921683825972e-10  2.0540129956689054e-10  1.3200096217399412e-10  3.2545481775226467e-11  4.4671015064835396e-11  9.7746497927456189e-11  6.8620464388848213e-10  2.9726677513697579e-10  1.7980703145665123e-10  1.3462791848970982e-10  3.3577697182444129e-10  6.6987989858665745e-11  1.0960775793881330e-10  3.5558933257851281e-10  5.9325184637311569e-08  9.8065528834365420e-11  2.8416280425086276e-10  6.2232851278296215e-10  1.2548808879409241e-09  2.0066884103188695e-10  1.5585567730744698e-09  4.2210653609584823e-10  2.2611245145114157e-10  1.1766432151365253e-10  4.1359220098358271e-11  6.5195344778165785e-11  1.2617743983473223e-10  1.5523756088469785e-10  6.3054009657331532e-11  9.9227886317894231e-11  1.0684816151755633e-10  1.2630087709422624e-10  1.9480573109350276e-10  5.0685364749048052e-10  3.2147212626819178e-10  1.6515084822298956e-10  9.4844428920884682e-11  6.1268373380447476e-11  5.8861759583839811e-11  7.0227818227337751e-11  1.8028689054234415e-10  2.2469132979605335e-10  1.0442877374730731e-10  1.0359926301845240e-10  2.3594148478195629e-10  1.3543089628504811e-10  6.8804562418629071e-11  5.8918246315706791e-11  1.0537964872798362e-10  3.3991793828058883e-11  1.8395230717914844e-10  3.2589142256885201e-11  1.6081684790289009e-10  1.7914074231190483e-10  1.5187051299348158e-10  3.9572770564305393e-10  7.9048241802722756e-11  8.2277262148746547e-11  1.4336878394415596e-10  3.0409329308621273e-10  1.4332995403742219e-10  2.6322691495462541e-10  1.0991497120876249e-10  1.3404343474099714e-10  1.5452657446546687e-10  2.7686902752809649e-10  1.2809865461428398e-10  3.3502351947240612e-11  1.1637557537417996e-10  1.1149885866896393e-10  1.4603365622178628e-10  2.4863244245440428e-10  1.6905233374673923e-10  3.4561294017752632e-11  1.2832315888882514e-10  2.3403664431192397e-10  2.9053336115538467e-11  3.2899028687032676e-10  1.6471944996929460e-10  3.9846379947174882e-10  1.1185412082947452e-10  2.3419663887593367e-10  3.2264038005032011e-10  7.4888437741406256e-11  1.0494284614647293e-10  2.1581822814988355e-10  7.2951573989772346e-11  4.8494049955073519e-10  1.6082994871286546e-10  9.7082006119788287e-11  1.0764404790688570e-10  2.0700840299400202e-10  5.4637122458511983e-10  4.8468374718728997e-10  1.7827146319410359e-10  1.7017964792060429e-10  2.0492483649574912e-10  3.9586906149343039e-10  4.5228703605792025e-11  2.2279494917605815e-10  8.0970378438254717e-11  1.2469819949772646e-09  1.1725373170870477e-10  4.5700514739987117e-11  5.6117798857378704e-10  3.3303538032373473e-10  2.4577873325293344e-10  2.0818279357344580e-10  6.3565838541064740e-11  1.5194080461241275e-10  3.3106660953457747e-11  4.3549613817045290e-10  8.1316794412529351e-11  1.3556818077850412e-10  1.2625309360249913e-10  6.5347650831190435e-11  3.4541182509129428e-10  4.2632465066822830e-11  1.1608484262539411e-10  2.4422811396746257e-10  1.7861687992788247e-10  7.2039801817635304e-10  9.1686079491813688e-11  5.7840842129473046e-10  1.4613077460235205e-10  3.6131703142287675e-10  5.6273621289578276e-10  2.4464797765255792e-10  1.5431803635298725e-10  2.7475989068567443e-10  4.8550222776252777e-10  3.4153460894838561e-10  7.4669631608625768e-11  4.9115965612101547e-11  1.6474984617088600e-10  3.6167306929132871e-10  1.8351651212082891e-10  1.2566845946028844e-10  1.6815252531596101e-10  8.0731826415985430e-11  7.0653920023923340e-11  1.9810308205470326e-10  5.7466334508275422e-11  2.0516765395028927e-10  9.0099290588811996e-11  4.8426143823311506e-10  4.8761844084243837e-10  8.1363849596002549e-11  4.1559773231576956e-11  3.9710215245867171e-10  6.5500121406319691e-10  2.5803571014741619e-10  1.0069987564096037e-09  2.8957205294032877e-10  3.1851876203000830e-10  2.7869936754493644e-10  2.6978700619469805e-10  9.6701370622984760e-11  3.1236411234789662e-11  1.9268798693230175e-10  1.0406821307336471e-10  2.1222352322483091e-10  7.5404125401588448e-11  1.2211252518714996e-10  2.1040836358864698e-09  1.7744160863709452e-10  8.0579688027769948e-11  8.1665759881986009e-11  4.0275524747193835e-10  2.4315942658219565e-10  1.8954933120419661e-10  2.0754463905736057e-10  4.4376180238802989e-11  7.6756049819649226e-10  2.4127966707506004e-10  5.3375939862240311e-10  2.4757301825306172e-10  2.3914065877238576e-10  3.0846712801606500e-10  9.4334844559037199e-11  3.3069431485567941e-11  3.6140317980420112e-11  3.7627295402945050e-10  3.5698373416943517e-11  1.1535194956554005e-10  1.0291918032948196e-09  7.5028744181348916e-11  3.4608065350483819e-10  2.6093508655369640e-10  6.1645012255829533e-11  5.9516609247114527e-11  1.8198462411080783e-10  2.4634258647678921e-10  4.7943006386053685e-11  1.1274428328886451e-10  1.5899213707619644e-10  7.5626848729987981e-11  1.6851812015427255e-10  2.1694862125273908e-09  3.8586078701945593e-10  3.2085024075850241e-10  1.0735244538062706e-10  1.0687836083290551e-10  1.8486073155851479e-10  7.9443758683853901e-11  1.3341294784775718e-10  4.9397647034774795e-10  8.6250515018647966e-11  2.3784622201055474e-10  2.1195121135013191e-10  1.3920924151421114e-10  5.0928990450645430e-11  7.6986248925880258e-11  5.4695244787414496e-11  1.0367405046034994e-09  1.0511754026976740e-10  2.2106099173494066e-11  5.7336229020454619e-10  3.0446458063132466e-11  6.2285995382351669e-10  1.1681361933933785e-11  1.4950801860658883e-09  1.7624828881626672e-10  2.4678986549202559e-10  1.0328366973996281e-10  2.8691259318117650e-11  8.4309065212449476e-11  2.7720185545013172e-11  2.0490269203805989e-10  3.7313337481066319e-10  2.7134228603288917e-10  3.3286326866796093e-10  1.3526638530669281e-10  9.2877765834584773e-11  6.3006604803247953e-11  3.6805581632956983e-10  4.9985961723608562e-10  1.0460389938876177e-10  9.9572589115447931e-11  1.4521099861416457e-10  7.6189273495494458e-11  4.5190655426420935e-11  5.4176598717449671e-11  3.1868009549237616e-11  8.8516888111991995e-12  1.7784687225710712e-11  9.8193305109741044e-11  2.2445252175832757e-12  1.1022286126187256e-11  1.8684027456522447e-10  3.5182803905598729e-09  2.2057278038715932e-10  4.2190234927083691e-11  2.1850296501472215e-10  9.2013482375576466e-11  1.1140873479621386e-10  4.3710582054012351e-11  1.6993372537340115e-11  8.7262368592607159e-11  7.5445160527647429e-10  7.9407223702238942e-11  1.8343546114048582e-10  3.2251894527219691e-10  4.8354965290318355e-10  9.6553764908570888e-11  1.0126339666062114e-10  5.7849028042257369e-11  7.6675331974896368e-11  1.1097873760863256e-10  5.6854180422681182e-11  6.1825324488499469e-10  5.8900277804879109e-11  2.8080704582868707e-10  8.7267503224862354e-11  1.2738177682486140e-10  3.0665731491398509e-10  4.1355252466280554e-11  6.2278590096628968e-11  2.8088001907267951e-10  1.1840011116305650e-11  1.1217525919440855e-10  8.7497159840360188e-11  7.6386434318393738e-11  5.6521806930535287e-10  1.6215974624523929e-09  2.9198561318904273e-10  2.9009623847692450e-10  9.0102123080164912e-11  6.8486081102051088e-11  2.5137097941249627e-10  1.1665324478436511e-10  9.8125358766988137e-11  1.0338603567912884e-10  1.9574461831120492e-10  7.3234481817592863e-11  5.2483178199745295e-11  7.0339649416351691e-11  3.9629916818302101e-11  8.6178171312741277e-11  1.9241056266681941e-10  1.6200628863345121e-10  1.1172285981599926e-10  2.7384266708272481e-10  4.6760167677021742e-11  1.3497589953132507e-10  5.2925119087805929e-10  6.6049282273952351e-11  1.1683409754838443e-10  1.3708741511785294e-09  5.7588766182270046e-11  3.3851143719449216e-10  5.1909659512329326e-10  1.5842406748107093e-10  1.2740144617001114e-10  1.2548734086099321e-10  8.9722409132053080e-11  2.5309577562259236e-10  2.8744845170934997e-10  1.7672469427111883e-10  4.7522023141334564e-10  4.2503623230910831e-10  1.1985597671957415e-10  2.0756215267477019e-10  6.6027078022918858e-11  8.4075991859801877e-11  6.2290430772921728e-11  2.3695042340827638e-10  4.0042424264528634e-10  3.0849166495825267e-10  3.2365710174682756e-10  8.5186531084948954e-11  2.3149252546796771e-10  4.8597681819344582e-10  1.6972566094740567e-10  4.7252893442644468e-10  1.8116470617425492e-10  1.3737864509819596e-10  1.1064056209708838e-10  5.0809407560941162e-11  5.3703177262368609e-11  3.2828753360293743e-10  6.2101922465444419e-11  6.4433932141822778e-11  1.2864888538273188e-10  3.1963344210899715e-10  3.1658790984005164e-10  1.5673412080856929e-10  1.1751537136296525e-10  6.0392332122202279e-10  6.3378791864192037e-10  1.6444895670050420e-09  2.7318975986923286e-10  2.0092611148482574e-10  4.4903559179131492e-10  4.5127203786590237e-10  1.2017130747939102e-09  2.9896745906619127e-10  2.4332789725827344e-10  3.2791136500303340e-11  1.2743383511953170e-10  3.1418699348346700e-10  4.2171891414105482e-10  2.1431764156045402e-10  6.6201260008693738e-10  3.0020884702759221e-10  2.1413236235070875e-11  4.7724900805100088e-10  3.3774028653919100e-10  3.8495921038191091e-11  3.3440909580773906e-10  4.1388760373062015e-10  5.4413028531742621e-10  1.4543033272147297e-10  6.6930021499334449e-10  1.9402188959891241e-10  4.6949540398935027e-11  1.2673447345276170e-10  1.3159736526283453e-10  3.1745430362787541e-10  7.7737490115603550e-11  2.6094069482607382e-10  1.9288137475768417e-10  8.1053264140590300e-12  2.8492773728861303e-10  5.7561310003238787e-11  8.9302531862490625e-11  1.2279379502255437e-10  6.4189867183434817e-10  4.1750007329211696e-10  3.0960536089349919e-10  1.1621522583438607e-10  1.3063639287547593e-10  9.2181500903604510e-10  5.5397056533255239e-10  1.3324608368615131e-10  1.4145288952716233e-10  9.3155039616967966e-11  4.8515306495664295e-10  1.3650134317807754e-10  1.7217379539186618e-10  9.3866497125533235e-11  7.0061235347362876e-11  6.3045488880954058e-11  1.4704811955267331e-10  9.6949201538648612e-11  1.2818775994057715e-10  4.2522830254394524e-10  7.5734714337671101e-11  6.1072187385867658e-10  1.2556840869011658e-10  2.2425862795530885e-10  2.7608726694199999e-10  5.6198205628616877e-10  1.1535253218356388e-10  4.0639662840181533e-11  6.2298736510437182e-11  1.4153124282277531e-10  1.5779607826604800e-10  5.0955362481137147e-10  8.3410710157028952e-11  1.5889424423812426e-10  2.4840406931847765e-10  1.3656750080210510e-10  2.3381500226789828e-10  3.2952084202763944e-10  3.1260914014333687e-10  1.0320457743621343e-10  1.7306347621047252e-10  1.4776085854595705e-10  2.2706767259851015e-10  5.6112824311996296e-10  3.7359564607983680e-10  2.0133201966007563e-10  2.0169745148545304e-10  1.2332698228422244e-10  1.7133572346357145e-10  3.0208206370296209e-10  3.8090261973259726e-10  3.6209314798334474e-10  1.6611227706481244e-10  2.1970213464596755e-10  1.9290064992599295e-10  1.5182416733995896e-10  3.9693685062284302e-10  3.1448651447163818e-11  1.0421701618939832e-10  1.2622852256312018e-10  1.9978768138033748e-05  4.0366438709332113e-10  1.7444427669843034e-10  6.0689871545901912e-11  2.5784329184198904e-10  1.3642949637720613e-10  6.3670718327122156e-11  1.0439935056493379e-10  2.0282858073021472e-10  2.0426114297364568e-10  1.9210349527090121e-10  1.8707102938337260e-10  3.0609442304296092e-10  6.4156108540389769e-11  7.9596771472395990e-11  1.8934025573323754e-10  1.2189694234975592e-10  3.5267113701449940e-11  3.9831843226497573e-10  6.4029101225850605e-11  6.1237551009335407e-11  1.9237234262130570e-10  9.7893682509205874e-11  2.3528337405157480e-10  2.9084062048078919e-10  3.9216544099525374e-10  7.7443837461731460e-11  1.8481296504253371e-10  9.5326035475907497e-11  3.2539855111824071e-11  9.0107595766184418e-11  5.7814139718636632e-11  7.8990318717493186e-11  2.2987336633753753e-10  4.6859092215135072e-11  6.5733503634508949e-11  9.3806736967502149e-11  9.2778459295725532e-11  9.3212479711487329e-11  2.4853293389086486e-10  8.7644464671926746e-11  1.8245449278403219e-10  2.0289519250512780e-10  9.9580041947748143e-11  1.6114338739070697e-10  3.1456577951104170e-10  1.2271464379815604e-10  6.2174941875338469e-10  1.6905191989967522e-10  1.4792694618791301e-10  1.3917038602074657e-10  2.2469912028904288e-10  4.3922146783763524e-11  3.9684662624329594e-11  7.6235078067521760e-11  4.3286715367071111e-10  2.0126968788041351e-10  6.3189985911112521e-10  4.4572488261031071e-10  1.2022085094179937e-10  5.5175973963423877e-10  3.6338084630712547e-10  1.8686080802929480e-10  6.9984941961791309e-11  9.2702098207874918e-11  1.7444256056604750e-10  1.8805679934874885e-10  4.1352766592641400e-11  4.7777312448212896e-10  2.7553488346616222e-10  2.9596792677431970e-10  5.3213364999717873e-11  3.4924461265250403e-10  2.6413986091504449e-10  5.9452953773654199e-10  7.2820975571282468e-11  6.1061909557744394e-11  2.3925393005073162e-10  7.1978239850194216e-11  4.2185360092313035e-11  1.4580013002997838e-10  2.4190009737401371e-11  6