<?xml version="1.0"?>
<VTKFile type="UnstructuredGrid"  version="0.1"  >
<UnstructuredGrid>
<Piece  NumberOfPoints="4852" NumberOfCells="9430">
<Points>
<DataArray  type="Float64"  NumberOfComponents="3"  format="ascii">-0.9999999999999999 0 0  -1 -1 0  0 -1 0  0 0 0  1 0 0  1 1 0  -1 1 0  0 1 0  -0.5 1 0  -1 0.5 0  -1 -0.5 0  -0.5 -1 0  0 -0.1608775713298009 0  1 0.5 0  0.4999999999999999 0.9999999999999999 0  0.1967448868031411 0 0  -0.3405140242802585 -0.1761741898198036 0  -0.3369601781626666 0.2242415981334729 0  0.1739303613043331 0.3464592450400317 0  -0.1852565009733403 0.5550656245482573 0  -0.5034959868348134 -0.5377805036253879 0  0.4906151709223104 0.2574101262936206 0  -0.06448288847897157 0.201226460111984 0  0 -0.5061325913258391 0  -0.25 -1 0  -0.5613306905351947 0.5773310696057711 0  0.6615801450330793 0.6340996833905788 0  -0.1751226190453172 -0.5382790255104491 0  -0.5389249999567589 0.0252437817093286 0  -1 0.25 0  -0.2062557228855538 0.02372985989590317 0  -0.6545636154909331 0.3092587795941064 0  -1 -0.25 0  0.03898189652309036 0.591895362597373 0  0.1952318639703597 0.1290627174198325 0  -0.1358578525452704 -0.2203234667560368 0  0.3711067613920567 0.6146884465388417 0  1 0.25 0  0.5355652144809806 0 0  -0.7500000000000001 -0.9999999999999999 0  -1 -0.75 0  -0.6448835451804037 -0.3233652505116574 0  0.25 0.9999999999999999 0  -0.9999999999999999 0.75 0  0.02757118475249542 0 0  -0.25 1 0  -0.75 1 0  1 0.75 0  0.75 1 0  0 -0.02898318711980711 0  0.05425619501684749 0.1424756090615887 0  -0.0777631516238504 -0.02781830052915451 0  -0.7010511911730043 -0.1326234999302342 0  -0.3210264382594742 -0.3478431214796811 0  -0.3403386419847566 0.4373431880077034 0  -0.1001354284906421 0.7642705819827914 0  -0.3832950708148415 0.7025638571377832 0  -0.05503272160375881 0.3991034449586931 0  -0.07900123337464354 0.07206584536549301 0  0.3590143897500807 0.3699034147549031 0  -0.7159167344890767 -0.7300317275102354 0  0.4119620747990811 0.0900488017917227 0  0.69003071925313 0.1918134766961433 0  -0.7473343098971688 -0.5271459986092124 0  -0.3871000148712692 -0.7107797839993912 0  0.7216386872837016 0.4189329254681912 0  -0.7760141703839458 0.09687056463210411 0  0.1966635682795063 0.6988263624894493 0  -0.1988716018634771 0.2885697644651065 0  -0.7988770405927675 0.5773088570453598 0  -0.7166545621448858 0.7662617357412468 0  -0.05213802054000388 -0.3736108786095027 0  0.5847662678205284 0.8165939756275945 0  0.8203621065743266 0.8059034420088874 0  -0.1059176321437748 -0.6974179632918975 0  -0.5145874436777117 0.1625788435910362 0  -0.2019684326592088 0.1256596601220666 0  -0.3592814914426602 0.07521270555619959 0  -0.36513186480396 -0.05259888879837482 0  -0.4967296385079701 0.3949856826314447 0  0.375 0.9999999999999999 0  1 0.125 0  -0.01187884639962896 0.07136407942384443 0  0.06200917478766674 0.3921158024313998 0  -0.1712854260236208 -0.1226544962247449 0  -0.2430397708253073 0.7736652190706766 0  -0.625 1 0  0.5334781106696638 0.454629975436857 0  -0.5758902787883642 -0.8301073112873968 0  -0.2569501229599745 -0.7836058684030794 0  -0.3188796035221146 -0.5089127678499074 0  0.8339890263852144 0.5954468168332357 0  -0.5486471717850464 0.7907424981232819 0  0.125 1 0  -0.06743765184708167 -0.09351467714105734 0  -0.4944479220172752 -0.1435690246580399 0  -0.875 -1 0  0.02960637070087591 0.04168931062132545 0  1 0.375 0  -0.875 1 0  0.05719337049889543 0.7940718084083662 0  -0.1949168897494243 -0.3743792473426269 0  -0.0730669747474004 0.5712426304945125 0  0.2364210392444926 0.5182256481104097 0  -0.7922900872176134 0.2292890043850499 0  -0.4948540732662411 -0.389490637396233 0  1.979496301416535e-06 0.2713938478999094 0  0.5100078278759144 0.640423014247966 0  0.3988871525278328 0.8074525663980778 0  -0.8061563142837662 0.424311703618084 0  -0.06394887849467867 -0.2207240938413684 0  -0.7095789206759124 -0.01432698892983408 0  0.0906068690566938 0.05258062630425236 0  -0.4779555138257602 -0.2516853284242828 0  0.7238732061662149 0.08293159768803755 0  -0.8084966921104878 -0.4112217656514464 0  0.3376761329362375 0.1538319003158304 0  -0.7944164636500238 -0.2509964242264021 0  0.2364170038898319 0.2546769131066781 0  -1 -0.875 0  -1 0.8749999999999999 0  0.184407546890967 0.04800428601067078 0  -0.2471044194337228 -0.2296182815115107 0  -1 0.375 0  -0.1711169714828752 -0.04188288470650266 0  -0.6488185346484251 0.4673845600090516 0  0 -0.07736776745332727 0  0.08038991493793635 0.2602051610933453 0  -0.375 1 0  -0.2170720608887712 0.424893350899025 0  -0.1201944768416465 0.1502972077650798 0  0.1331170486129531 0.5544540330108763 0  0.132004232154647 0.1940862483249604 0  -0.4748551061064695 0.2694729874983869 0  -0.04623856354524702 0.01396557713940206 0  0.8514353559770748 0.3703928965479443 0  -1 -0.125 0  0.2855702026698426 0.8369957861200842 0  -0.1109364968413131 0.3132570034426127 0  -0.125 -1 0  0 -0.7575037395175258 0  0.07821397079968176 0 0  -0.9999999999999999 -0.375 0  -0.3749999999999999 -1 0  -0.625 -1 0  0.7474787146812756 0 0  0.625 1 0  0 -0.2918843213980812 0  -1 0.625 0  -1 0.125 0  -1 -0.625 0  0.3284075310660084 0 0  0.004929205892015135 0 0  -0.125 0.9999999999999999 0  0 -0.006571003003944568 0  1 0.625 0  1 0.875 0  0.875 1 0  -0.5624603248707959 -0.6765625393052608 0  -0.004747238525566418 0.160478797430499 0  0.3624904990654262 0.2634696567848301 0  0.6530587875407907 0.2942646495655162 0  -0.8546249072733314 -0.6466004124401008 0  -0.8634250536716652 0.7869976463397732 0  0.4305660414249771 0.5017863181995142 0  -0.3985966734216094 0.8558614326490904 0  -0.7786749832148767 -0.8748436690483909 0  -0.8704403323138227 -0.7843412125298496 0  0.1540809790207212 0.8423528179413741 0  -0.6585938636701034 0.1526089148568746 0  -0.5775894447215961 -0.0643835057791715 0  -0.8545403936786896 -0.06267745395642406 0  -0.2961347252450117 0.5622946998152198 0  -0.4238336262836586 0.5699975363973449 0  -0.3762176514084014 0.3311014365012761 0  -0.6182115587755811 -0.2166927141000093 0  -0.27283815178004 -0.09032027396767051 0  -0.6398753728427916 -0.5887705416429139 0  0.8597381380117878 0.2661620184013168 0  -0.03284295096787238 -0.03295007099085875 0  -0.0548399194136487 0.1147651297781276 0  -0.1339525278358915 0.4322681058688426 0  -0.1199110780021703 0.03243727507187782 0  0.537812244322876 0.06471963147546471 0  0.5793194084599733 0.3597854577483332 0  0.6914539074235593 0.7749330056279069 0  -0.7933425777008585 0.8811666169712591 0  -0.6431037286768969 -0.4295116006759235 0  -0.1155523326810018 -0.3977297208483981 0  0.8721845642807852 0.4889028360314324 0  0.07603346338869214 0.09407331324421842 0  -0.6646007300343967 0.8681874880030201 0  0.4547471515071214 0.351135804374792 0  -0.02632966705431941 0.03591837512058907 0  -0.4086362302200888 -0.4407434848287039 0  -0.3615396221485903 -0.2693142110594621 0  0.323574622712536 0.4822597205373185 0  -0.1962581916793498 0.2016616819483107 0  0.7057143353944675 0.5312753301873739 0  0.2618532830590956 0.3565735881922742 0  -0.3763449072150808 -0.851868768609008 0  0.1090429163322082 0.6823255413573709 0  -0.2838528049258305 -0.61239519073836 0  -0.4408897923653068 -0.6203906782802244 0  0.2962210992019099 0.692645366368384 0  -0.8748630600816595 -0.174899522280141 0  -0.1802001289633902 0.8550751447470549 0  0.4548699889481552 0.1637456039995613 0  0.280367369033335 0.04679496455936436 0  -0.1425660849865835 0.6576736365584902 0  -0.01156578471979933 0.7088798108929268 0  -0.05345786917325979 0.8751633343928299 0  0.005214964600854599 0.4702284366237398 0  -0.3878897980534458 0.1534991998341625 0  0.5492446329599704 0.1334828219546524 0  -0.4760144600992095 0.6824816347920787 0  -0.8515711849549538 0.3327642894042819 0  -0.09139785807801531 -0.5366644379551258 0  -0.03111950236244964 -0.552250938973736 0  -0.2129573988567116 -0.2883176148191937 0  0.8684982762064472 0.1516161713085909 0  -0.1687996055383293 -0.6612932058930303 0  -0.8891701634024771 -0.5285296597985266 0  -0.2819692127693977 0.338510345226729 0  -0.6763293624799601 0.5741525132168432 0  -0.8975318680365808 0.5313938399324876 0  -0.8984329132771873 0.6608928710788939 0  -0.644481555010619 0.07225924571559277 0  -0.8591408157340717 0.02846527338177023 0  -0.8881826232902603 0.1678489918382029 0  -0.1303508235809927 0.2292308150035539 0  0.1602912758706529 0.4467078500170797 0  -0.04350137582049274 -0.1258758344094205 0  -0.7534664321779603 0.6700604205227244 0  -0.6025069355201008 0.6980063002276539 0  -0.2546169985748005 0.07855863608762258 0  -0.2495697745557834 0.6489660715735313 0  -0.02746056090950748 -0.00635635229674954 0  -0.4944420791185322 0.8770934654825068 0  -0.4770939686612389 0.4906766979148701 0  -0.290692498496471 0.1441295159677456 0  0.002291665323662089 0.02367628560234613 0  0.7795899849640133 0.6838903093519114 0  -0.4697184095260016 -0.8247922821867758 0  0.27208689943692 0.1954273037831032 0  -0.1486285132654418 -0.8631960886684368 0  -0.06600676525792185 -0.8298672167038318 0  0.443466560266977 0.7063309320517878 0  -0.1165311807428947 -0.288783033192088 0  -0.2650457328814221 -0.02633669458640314 0  -0.8937813116187321 -0.8965078945594828 0  -0.5731179068300155 0.2372131770692365 0  -0.4763511273621639 0.08749637596651869 0  0.4912788753285158 0.8260129011321923 0  -0.028012913995494 -0.2600963066741885 0  -0.3101884567929376 0.8754750010576392 0  -0.1432106380066198 0.08064982522710611 0  -0.4694147239157834 -0.03512755095488401 0  -0.3881528411572083 0.0119664134030014 0  -0.2919198451883663 0.02748178374027003 0  -0.3849341924111716 -0.1207867020271441 0  0.8881971460512255 0.698199099214576 0  0.7926496269364067 0.9107693806716873 0  0.5767262980918163 0.2083323842980415 0  -0.5598502188259382 -0.4697553280311869 0  0.5990218925907825 0.7063010979214421 0  0.6782915321162585 0.8884226825904588 0  -0.05124555932064579 0.3035317114244881 0  -0.9021689719484689 0.9046447217774413 0  -0.1275683037275739 -0.06725460350308404 0  -0.168787198
[...]
<PointData  Scalars="w"> 
<DataArray  type="Float64"  Name="w"  format="ascii">1.7445479433191787e-10  1.0375817288232457e-11  4.4537053544886975e-10  2.6586573249293501e-09  6.2411446776554558e-10  1.5697477757968578e-12  8.6832371076751751e-12  7.4575295449166692e-11  4.0300142288075429e-11  2.1008292033678785e-11  1.0778487473886357e-10  9.5960814727503412e-11  4.0225823501559443e-10  2.7555693787493852e-10  9.1215743660185650e-12  5.2760250695870849e-10  9.1184139334170389e-11  7.2331182777519178e-11  1.3070549925838442e-10  3.5403925853952801e-10  6.7149734572393588e-11  1.0447130187825877e-10  5.7536307420838352e-10  3.0515428978235462e-07  5.8142453587272381e-10  1.0775927332575510e-10  8.8442946902757987e-11  1.6916881129230595e-10  7.6552855590162422e-11  1.8778805887843351e-11  4.6847550665178172e-10  9.7547660117518126e-11  2.4318147024844258e-10  1.8024008937240988e-10  4.5626881350937128e-10  2.2645227169060930e-10  7.7680989271822101e-11  4.7630982933708944e-10  5.8780422547199585e-10  3.1163329576396157e-11  5.2518007033878975e-11  1.0826783062678176e-10  9.2214554090698612e-11  1.9683804122524848e-11  1.0577412924277857e-09  8.7608831273671955e-11  3.1922262478945405e-11  9.5958942222089497e-11  1.2422678267485333e-12  5.9130620850363272e-10  2.2196012828102008e-10  2.1471771017752800e-10  8.2652022704273565e-11  2.5317718517524423e-10  2.5929354732410513e-10  2.0430464242242882e-10  3.5532537097439416e-10  8.9185029736734743e-11  5.8264485061044550e-10  2.5138015768646651e-10  3.1312501900671127e-11  3.1508739711362805e-10  3.7834486040816679e-10  1.4334444577082244e-10  5.4170229127925571e-11  1.7773839258611834e-10  7.0488556855411227e-11  1.7795366997912354e-10  2.3318081296847624e-10  4.5993912763781623e-11  6.4720385549059995e-11  4.2827265579924631e-10  5.6462375206677906e-11  8.7727662506386540e-11  1.6715754917386894e-10  1.7007934223942455e-10  2.5718073990144249e-10  2.8993022200608628e-10  1.8280261828429001e-10  1.9475625774240717e-10  6.4844957885984098e-11  2.5222369752281376e-10  2.6460664567747749e-10  2.0048847297046812e-10  2.3433980877654468e-10  1.2476584690331284e-10  4.6377002707520665e-11  1.0965147957804438e-10  9.4533773052723803e-11  2.5514463890050269e-10  6.9642769468766168e-11  9.8819795414544788e-11  7.8153225274639851e-11  9.3946836508950923e-11  3.9019391479668835e-10  2.0952816502776620e-10  2.5495195605039431e-11  6.5875358902427811e-10  2.5612715591679117e-10  3.1605863278588450e-11  2.7539694345671299e-10  4.1374462645571063e-10  7.1042191420023625e-11  9.7009046606273617e-11  1.5638842677254564e-10  6.3894417106841500e-11  2.7393540724714562e-10  8.2903347972703156e-11  1.4596836327739226e-10  6.5993095911013125e-11  3.1102704763980587e-10  2.4698419887897775e-10  2.3354936926855590e-10  6.4522072698662396e-10  1.2105720321251133e-09  1.4862353321700907e-10  1.6614553813044813e-10  1.0213661816507189e-10  4.5869711981761771e-10  2.5961601212717324e-11  2.5667644056770808e-11  2.7884093206172182e-10  9.2115875952803619e-11  6.1000628066764497e-11  5.0296901046433826e-10  5.7253476553608506e-11  5.9944512641745818e-10  1.1878875628056208e-10  7.6683797912378098e-11  8.2577550470154075e-11  3.4296047068707446e-10  1.7196917059015521e-10  4.6534083246169255e-10  1.3493929810930827e-10  6.2518412206476343e-10  4.4141814781709589e-10  1.0909697181353775e-10  5.1937776210495467e-11  1.3011456409268011e-10  2.5646901840526849e-10  4.4004038394979994e-10  6.0878852147621170e-10  9.2977191819972663e-11  1.2023162618611225e-10  6.8782701844177916e-11  6.5663749594351449e-10  8.5729719006202404e-11  3.2683916468782698e-10  1.4692679188922789e-10  1.2395017758919084e-10  2.0075875040020808e-11  2.8376308388399852e-10  1.5909932589112154e-09  5.6708511890368194e-11  9.6869846648259765e-10  7.8843450318281545e-11  2.4543469931682361e-11  2.4300685267253814e-11  1.2178375619408624e-10  5.6237030655478451e-10  4.4543278238337086e-10  1.6115604452861324e-10  1.1467076350465391e-10  1.6658381329268590e-10  1.8693371313550680e-10  5.8562667909464479e-11  7.7680275823642716e-11  2.0402571210296140e-11  5.9889224464900582e-11  2.9427309893722642e-10  9.2395946429626945e-11  1.0573418190082655e-10  8.2653714281933479e-11  9.5970665984774683e-11  5.3290632858523346e-11  9.6091643794557888e-11  4.5600990650086044e-10  5.7032303444370841e-11  1.6403019327973729e-10  1.7229066985856863e-10  4.6585809874205970e-10  1.9793586621890249e-10  2.8332328843410159e-10  1.4318916864669467e-10  1.4490322827908491e-10  1.4929349497698889e-10  2.1066641550625662e-11  2.8815867293868748e-10  6.4485295428650485e-10  2.5512510148461674e-11  2.5251482823837981e-10  8.8996590726394108e-11  1.5768454114325933e-10  1.1200102898091382e-09  1.3822052053735550e-10  1.6462618309546146e-10  2.3340816255920598e-10  2.8769385826806060e-10  1.0563842507671438e-10  2.0448965937837710e-10  4.2114688302500684e-10  2.1822481525624739e-10  2.3899745255150148e-10  1.1037849049471169e-10  1.1235700644817905e-10  1.1267985567577515e-10  7.1277873132890383e-11  2.0837419554594158e-10  8.8724424903483712e-10  7.7635034697816239e-11  1.0803061173223438e-10  7.7853683939470750e-11  9.6809943773037427e-11  1.6256687869949449e-10  3.7729175163628008e-10  7.8979241503968050e-11  8.5078199144998563e-11  7.6077264335522678e-10  7.4157687459441264e-10  2.9315467129495589e-10  1.9997132032199538e-10  7.5271058198523172e-11  8.0838236459831969e-11  3.3617352524844651e-10  5.8583609650774565e-11  8.3297553577858103e-11  5.0213146882443122e-11  9.3515825262019868e-11  4.1322643822179127e-10  9.0538291486517451e-11  1.9779437010048983e-10  1.6596541757891060e-10  9.0450332412164467e-10  6.1840728052464237e-11  1.9796732141232572e-10  1.1562198852398598e-10  1.1174884738042466e-10  7.5213333410021044e-10  7.5223565332431076e-11  8.5102420535351044e-11  1.1823264552288517e-10  1.1245986101262423e-09  4.0871613686748690e-11  7.8130372544857847e-11  2.7992458246080326e-10  2.5074255947373310e-10  3.4267319922634294e-10  1.8162922995591296e-10  2.0306193066797865e-10  4.0411061634307849e-10  2.9452254680959916e-11  1.0546643279189845e-10  1.2804315431904010e-10  3.7557387851161452e-11  2.6551672860304838e-10  4.3879408341021605e-11  3.3455106791366599e-10  1.3623714209821392e-10  1.1055634963324138e-10  1.9208044442247358e-10  5.0289597372404738e-10  7.2966631994580198e-11  2.6922020250497495e-11  1.4483296443422398e-10  8.2343203217312617e-11  5.9283540257235453e-11  7.5853479193079051e-11  1.7919685649185607e-10  4.9368265971506407e-11  2.6434048876884790e-10  2.5475875372733682e-10  1.2964002725309144e-10  1.2905364855671990e-10  1.3725181816109006e-11  7.1591995805803063e-11  1.4705398706071147e-10  1.6815073514532922e-10  4.9967445776012550e-10  3.6850419728222524e-11  8.2088215642220373e-11  3.3497124587881463e-11  2.3984580557116147e-10  1.2566716379147276e-10  1.8481350340706966e-10  7.5316428580013111e-11  8.7820691001253985e-11  1.2148109059271940e-10  2.0230992105905299e-10  2.2393363158820902e-10  2.6119071877326371e-10  4.3921587982495686e-10  2.1403942880306067e-10  2.1024790295764433e-10  1.4449601660228749e-10  8.0483743159040826e-11  1.7276134018223105e-10  1.6691436569875340e-10  6.2799865308970300e-10  1.2938719099876235e-10  6.2388561393788746e-11  4.0780120188385354e-10  1.9083719786750105e-10  2.0822237979908611e-10  1.2063103006313065e-10  3.2647509785035710e-11  4.4856632866483196e-11  9.8617602130693299e-11  6.8540742906611075e-10  2.9414054573942324e-10  1.8075227479165822e-10  1.3629009774939423e-10  3.3473459907694337e-10  6.8024966801929062e-11  1.1063027816160855e-10  3.5095104526323417e-10  1.8382328753674043e-09  9.8884918469117526e-11  2.8303270908299458e-10  6.1666316374068189e-10  1.2384460012508623e-09  1.9877931615203833e-10  1.5382301843134995e-09  4.1922038901120955e-10  2.2597274683694940e-10  1.1667947956405321e-10  4.1808889104752312e-11  6.5695248915535755e-11  1.2685115096978579e-10  1.5697295754069108e-10  6.3672504109030453e-11  9.9016639459472092e-11  1.0762334151138484e-10  1.2774565358472029e-10  1.9334403399230331e-10  5.0034185042050628e-10  3.1963959437400775e-10  1.6606537619041795e-10  9.5676215501964039e-11  6.1716085668813411e-11  5.9260321727284655e-11  7.0865921884989837e-11  1.8190342306878454e-10  2.2718519062418958e-10  1.0560130135516563e-10  1.0516621392026949e-10  2.3803748391688020e-10  1.3631375423764082e-10  6.9470673829030125e-11  5.9427705058146514e-11  1.0572957940110714e-10  3.4282671962700133e-11  1.8631155723830925e-10  3.2868094504600708e-11  1.6101700178613407e-10  1.7946422603383010e-10  1.5257077825607939e-10  3.9942754155205862e-10  7.9632298858682257e-11  8.3035480498391758e-11  1.4455516089512144e-10  3.0868971808055033e-10  1.4648516172074012e-10  2.6330696487929798e-10  1.1091059178076415e-10  1.3546521622883755e-10  1.5701461804120360e-10  2.8129142000762033e-10  1.2786992695267662e-10  3.3749713664018870e-11  1.1728030081341372e-10  1.1218707171417182e-10  1.4719988282948241e-10  2.5180237499636059e-10  1.7035410801404925e-10  3.4929455416226238e-11  1.2927251592366161e-10  2.3040745831270160e-10  2.9181913926009783e-11  3.2993809804183577e-10  1.6397227859864916e-10  3.9235129544621883e-10  1.1332567096857652e-10  2.3767511992537308e-10  3.2545117734003234e-10  7.5534302513119442e-11  1.0545900251724889e-10  2.1756772486542645e-10  7.3432730064314777e-11  4.8230698130638159e-10  1.6033943342833308e-10  9.7949279674641644e-11  1.0829934481890847e-10  2.0912731649487094e-10  5.4247586943878078e-10  4.7967716348210820e-10  1.8084195102224704e-10  1.7198832200373298e-10  2.0794129837587208e-10  4.0031791709685440e-10  4.5518520611681930e-11  2.2539441911169472e-10  8.1648313314680184e-11  1.2414716345651373e-09  1.1820716925530944e-10  4.6096418446268336e-11  5.5259822270668599e-10  3.3381503177737733e-10  2.4806979388375049e-10  2.1034217640280983e-10  6.4145081818320297e-11  1.5336783410890796e-10  3.3373441638146842e-11  4.3961627639045057e-10  8.2055162288994609e-11  1.3698587479211316e-10  1.2723380451578129e-10  6.5927264506721146e-11  3.4741061997420294e-10  4.3166143259277198e-11  1.1744302825767824e-10  2.4744215824423887e-10  1.7946811090923280e-10  7.1462296971448595e-10  9.2309586829032123e-11  5.7673703298245917e-10  1.4707231603949822e-10  3.5663898351401811e-10  5.5366108558394144e-10  2.4444052643085568e-10  1.5501581173872863e-10  2.7294701489895509e-10  4.8313837505749127e-10  3.4101026804186368e-10  7.5669424988031181e-11  4.9730344455091034e-11  1.6403713568345983e-10  3.5841941217561627e-10  1.8576989020284821e-10  1.2711602954901952e-10  1.7032397281076111e-10  8.1185491024812117e-11  7.1298530631905494e-11  1.9907741174639183e-10  5.7880227026110557e-11  2.0683877280975620e-10  9.0575769647497757e-11  4.8128578668912849e-10  4.9339199615390618e-10  8.2047716098265041e-11  4.1895909991849327e-11  3.9930938758089583e-10  6.5041514950924420e-10  2.5891536104011839e-10  9.9284690553424132e-10  2.8850162630701649e-10  3.1765063368061954e-10  2.7493477038487964e-10  2.6719443439846458e-10  9.7692842156189432e-11  3.1373828883420871e-11  1.9424989629364609e-10  1.0494597978669032e-10  2.1425137854028658e-10  7.5611664145226176e-11  1.2323129604444177e-10  2.0675293790003488e-09  1.7708046533523007e-10  8.0946825721122886e-11  8.2409890425125757e-11  4.0019440815029350e-10  2.4317880021997634e-10  1.8996440652023504e-10  2.0794598333964538e-10  4.4635162571821342e-11  7.5991125287807030e-10  2.4206930149974143e-10  5.3354027799703809e-10  2.4781007558873987e-10  2.4116641192038881e-10  3.1139900786259980e-10  9.4562077068771949e-11  3.3110132949533874e-11  3.6217170304891362e-11  3.7053957665206168e-10  3.5934658554754855e-11  1.1629037583580610e-10  1.0190764222324252e-09  7.5208665547826045e-11  3.4906490665369097e-10  2.6224022772794807e-10  6.1928086982833095e-11  5.9812457381331427e-11  1.8081915280145548e-10  2.4609209469598192e-10  4.8226965437009422e-11  1.1347004831580530e-10  1.6038460512401685e-10  7.6293046548053843e-11  1.6988863566453727e-10  2.1332432182488481e-09  3.3561983026010575e-10  3.1980727363410055e-10  1.0716198931468316e-10  1.0726605117621618e-10  1.8698133067881464e-10  8.0147099160306777e-11  1.3457348145387811e-10  4.9768161887471100e-10  8.6926905929603144e-11  2.4076031003947982e-10  2.1440029501260698e-10  1.3907591689850482e-10  5.1416220245160957e-11  7.7590255217550801e-11  5.5275032410644933e-11  4.4293982257977579e-10  1.0597447967914804e-10  2.2140196781698882e-11  5.7145898542913255e-10  3.0646001036760569e-11  6.2126486952635335e-10  1.1679522159797163e-11  9.6150908862139701e-10  1.7510431087104875e-10  2.5003584297710965e-10  1.0471215683277559e-10  2.8797879701908326e-11  8.5165990341174366e-11  2.7879984342171747e-11  2.0682949554579194e-10  3.7252424895429050e-10  2.7148191323722593e-10  3.3050826324424127e-10  1.3496668665462072e-10  9.3581530167453906e-11  6.3342292090495617e-11  3.6324162291302888e-10  5.0168796463215618e-10  1.0611619344723635e-10  1.0080369211440611e-10  1.4669284816306274e-10  7.6281074929224734e-11  4.5445635567530443e-11  5.4633895961199940e-11  3.2088466601476404e-11  8.8637578463117957e-12  1.7855746880930586e-11  9.8627157873370203e-11  2.2598827795018314e-12  1.1091297001435105e-11  1.8558710800635018e-10  3.5007830261195593e-09  2.2264263032853670e-10  4.2445187537316867e-11  2.2061549647624972e-10  9.2617653755503339e-11  1.1273167286714470e-10  4.3859222836048513e-11  1.7096349538081567e-11  8.7808875312613017e-11  7.3723222102600310e-10  7.9796303985007052e-11  1.8382228701270588e-10  3.2374027374960535e-10  4.8503313138445252e-10  9.6519338430138919e-11  1.0186740690572073e-10  5.8329696106710745e-11  7.7091768211847962e-11  1.1186031876738275e-10  5.7344906481403071e-11  5.9600696399588330e-10  5.9391391855295353e-11  2.7877188941305828e-10  8.8134420546808380e-11  1.2788616530870265e-10  3.1048769129035283e-10  4.1593007183489113e-11  6.2941672486181234e-11  2.8420351093792529e-10  1.1941539829539694e-11  1.1341219129918330e-10  8.8072398038422954e-11  7.6867328753412514e-11  5.6238675135132305e-10  1.6170468451303970e-09  2.8173999107303643e-10  2.8943316291078118e-10  9.0683036821673113e-11  6.8988869859997581e-11  2.5381846462663150e-10  1.1740041514691324e-10  9.9032390228271608e-11  1.0434804425285114e-10  1.9834618528857944e-10  7.3888281160360813e-11  5.2603579535861265e-11  7.0560350545643573e-11  3.9706775503128327e-11  8.6374322814023331e-11  1.9185284564049507e-10  1.6244549056506844e-10  1.1197680611928049e-10  2.7157359594671019e-10  4.7178943572127971e-11  1.3603715245583679e-10  5.2408350326773316e-10  6.6691420122399166e-11  1.1767514837675458e-10  1.2779568774723525e-09  5.8083999133965580e-11  3.3936477527830980e-10  5.1322657648927132e-10  1.5823959114084962e-10  1.2848737262048182e-10  1.2579174826565416e-10  8.9872845199347312e-11  2.5003719914934145e-10  2.8627215914961903e-10  1.7744089041084091e-10  4.7006303208232119e-10  4.2347959658648012e-10  1.2142666995337477e-10  2.1040643067684777e-10  6.6330263951474861e-11  8.4678092527766869e-11  6.2660727548820707e-11  2.3905896833742525e-10  4.0054298317334150e-10  3.0790720653395080e-10  3.2572296478188215e-10  8.5866982791462307e-11  2.2877722207538280e-10  4.8171771582619422e-10  1.7222407283812194e-10  4.7762122875067092e-10  1.8244638907764647e-10  1.3882051256050601e-10  1.1209176800120090e-10  5.1214348594949926e-11  5.4155157393259454e-11  3.2883653528127206e-10  6.2801327529313135e-11  6.4656472194582857e-11  1.2936054586815129e-10  3.2105627194572780e-10  3.1870550384509029e-10  1.5745701332136049e-10  1.1765279572546037e-10  5.9455587553625239e-10  6.2929044731108051e-10  1.6154674759958787e-09  2.6948337760277692e-10  1.9963241590443723e-10  4.4494089366969435e-10  4.5808721823404688e-10  1.1786875344460397e-09  2.9789127987365784e-10  2.4547825954479017e-10  3.3080853853655929e-11  1.2867709738369071e-10  3.1481728065029537e-10  4.9207416499841614e-10  2.1069769512222925e-10  6.6423042473125225e-10  3.0356546468602166e-10  2.1537180645643650e-11  4.8832126612729578e-10  3.3131861116374971e-10  3.8790318017673372e-11  3.3408790397114025e-10  4.1393967047194335e-10  5.4432003782201898e-10  1.4582482625945151e-10  6.7124418719353273e-10  1.9542548750757811e-10  4.7296219255323031e-11  1.2740660278568669e-10  1.3253071670382615e-10  3.1276644545461483e-10  7.8586678636386291e-11  2.6417775022387950e-10  1.9466425728524884e-10  8.1659102096274715e-12  2.3569970700915228e-10  5.7792548604891370e-11  9.0033129078480559e-11  1.2376099857761732e-10  6.3503802137383862e-10  4.1287641651893995e-10  3.0582019930701600e-10  1.1703174893550142e-10  1.3195623045004070e-10  9.0671019340921164e-10  5.4450416240917103e-10  1.3431486181589545e-10  1.4330180215227390e-10  9.4588588623796176e-11  4.9063594896054212e-10  1.3779191774279272e-10  1.7381213665710805e-10  9.4971954582277959e-11  7.0525540880084860e-11  6.3326112177601901e-11  1.4884534044058119e-10  9.7706106583931253e-11  1.2957116976945539e-10  4.3294766253982618e-10  7.6315790771068338e-11  5.9814711163395157e-10  1.2689739342126743e-10  2.2443513225231489e-10  2.8021864824314890e-10  5.5375824429324902e-10  1.1625471990775137e-10  4.0968122459857817e-11  6.2744397098758392e-11  1.4188414652846551e-10  1.5858290505210860e-10  5.1473492721592965e-10  8.4033679925131932e-11  1.6061838936622055e-10  2.5087716567507663e-10  1.3941594146462781e-10  2.3685919071457115e-10  3.3326266253215894e-10  3.1201560663236410e-10  1.0424458757648656e-10  1.7448924801215869e-10  1.4970665960233879e-10  2.2795534277517602e-10  4.5610447176378995e-10  3.7376656391884154e-10  2.0180621671987757e-10  2.0455749665050858e-10  1.2448958588823889e-10  1.7216651703010967e-10  3.0057829769885879e-10  3.8092417041544384e-10  3.6175189108759414e-10  1.6611021052390556e-10  2.2037768077366417e-10  1.9565254195242499e-10  1.5353667676137613e-10  3.9815010016668800e-10  3.1634380651612607e-11  1.0564704573303484e-10  1.2816801431692214e-10  3.9027506385187084e-07  4.0829862440966384e-10  1.7555459906140552e-10  6.1009112872024473e-11  2.5712903804851590e-10  1.3763031879631446e-10  6.4344267169807923e-11  1.0526394330190094e-10  2.0274099158285459e-10  2.0561940496853828e-10  1.9360271527401912e-10  1.8867142909581879e-10  3.0869985028640320e-10  6.4915915768263195e-11  8.0111896715329035e-11  1.9086148217007150e-10  1.2319991029088616e-10  3.5367145485338101e-11  4.0132884563738208e-10  6.4675922618384924e-11  6.1630221733006090e-11  1.9497556915503257e-10  9.8848147365367263e-11  2.3677839792362295e-10  2.9210126157240126e-10  2.1914347126806003e-10  7.8525343909916839e-11  1.8700800069945027e-10  9.6440994646731508e-11  3.2653167464230585e-11  9.0484084092748233e-11  5.8336484202914605e-11  7.8827273023586315e-11  2.2694981443007388e-10  4.7251817040434773e-11  6.6269641993301034e-11  9.4547104797868738e-11  9.3338241226739625e-11  9.3854708775214588e-11  2.5086921829067156e-10  8.7814486362713926e-11  1.8538490377763252e-10  2.0384291575699519e-10  1.0075933209827067e-10  1.6094795022058709e-10  3.1493177887463322e-10  1.2406727865867685e-10  6.1720158669673699e-10  1.7065137350886477e-10  1.4910907296496171e-10  1.3915496967951098e-10  2.2741151151694331e-10  4.4090345626074425e-11  3.9839017191362667e-11  7.6840915205948257e-11  4.3409696299117736e-10  2.0091460507468231e-10  6.3735003743942173e-10  4.4349808244792842e-10  1.2111106499354985e-10  5.4786206076539341e-10  3.6423127633153035e-10  1.8834369062089168e-10  7.0601128033612793e-11  9.3575796998338658e-11  1.7477119467223804e-10  1.8818117738434186e-10  4.1600977257933926e-11  4.8067457978339695e-10  2.7960952429009595e-10  2.9680000353607671e-10  5.3401210739835036e-11  3.5137706937606967e-10  2.6705234475157236e-10  5.8451308064644615e-10  7.3212201102722296e-11  6.1425705463589998e-11  2.3925119487390027e-10  7.2544528343432161e-11  4.2498769572035333e-11  1.4725946982742302e-10  2.4288850436280167e-11  6