<?xml version="1.0"?>
<VTKFile type="UnstructuredGrid"  version="0.1"  >
<UnstructuredGrid>
<Piece  NumberOfPoints="4852" NumberOfCells="9430">
<Points>
<DataArray  type="Float64"  NumberOfComponents="3"  format="ascii">-1 0 0  -1 -1 0  0 -1 0  0 0 0  1 0 0  1 1 0  -1 1 0  0 0.9999999999999999 0  -0.5 1 0  -1 0.5 0  -1 -0.5 0  -0.5 -1 0  0 -0.1608775713298009 0  0.9999999999999999 0.4999999999999999 0  0.5 1 0  0.1967448868031411 0 0  -0.3403508239425128 -0.1759234924712567 0  -0.33654880265069 0.2241563867257714 0  0.1740410541663566 0.3459652565346775 0  -0.1849057403371812 0.5547814216827172 0  -0.503302918996665 -0.5377308351698158 0  0.4905682817724102 0.2571822375653436 0  -0.06419346221908155 0.2008414336291584 0  0 -0.5061325913258391 0  -0.25 -1 0  -0.5610404794265687 0.5772533032208653 0  0.6615185296719218 0.6339683741471775 0  -0.1760511443841221 -0.5380034725330222 0  -0.5386554655620335 0.02543478417370424 0  -1 0.25 0  -0.2059135973401786 0.02375473592813384 0  -0.654316233369255 0.3092434288304319 0  -0.9999999999999999 -0.25 0  0.03921534096515733 0.5915066862033067 0  0.1951670846936957 0.1287500268410628 0  -0.1360524930117014 -0.2200045907090594 0  0.3711484318043964 0.6143848778579393 0  1 0.25 0  0.5355652144809806 0 0  -0.75 -1 0  -1 -0.75 0  -0.6447108341588079 -0.3232682464008306 0  0.25 1 0  -0.9999999999999999 0.75 0  0.02757118475249542 0 0  -0.25 1 0  -0.75 1 0  0.9999999999999999 0.75 0  0.75 1 0  0 -0.02898318711980711 0  0.05432497688174286 0.1420953168260597 0  -0.07758892315889712 -0.02780617937483018 0  -0.7009183373861329 -0.1324452206076047 0  -0.3210711852112221 -0.3475948259070386 0  -0.3399370721139381 0.437155244970748 0  -0.09989745995396535 0.7640424292088596 0  -0.3829826900706423 0.7024277875967186 0  -0.05472142081750898 0.3986680222156779 0  -0.07875015939372136 0.07187236804858872 0  0.3590472374485499 0.3695146637092551 0  -0.7157241640684555 -0.7299857259025829 0  0.4118955208993857 0.08992668818484451 0  0.6899798760165585 0.1917802608740262 0  -0.74718769071379 -0.5270831749132425 0  -0.3871280300528422 -0.7107892366626923 0  0.7215963295880188 0.4188398629946795 0  -0.7758676545647436 0.0969650721629379 0  0.1967622271543524 0.6985178098470752 0  -0.1984758153911819 0.2882868952309167 0  -0.798751714657558 0.5772518490647353 0  -0.7164947497194877 0.7662097592324212 0  -0.05301475627648758 -0.3734116773537197 0  0.5846755017647064 0.8165048455577947 0  0.82030372386918 0.8058283357175023 0  -0.1067203858872548 -0.6974728046224367 0  -0.5142542507003992 0.1626387661215075 0  -0.2015795533516667 0.1255196639896396 0  -0.3589144511318915 0.07529948685983545 0  -0.3648582045055135 -0.05239522687795135 0  -0.4963913227590137 0.3949070567916838 0  0.375 1 0  1 0.125 0  -0.01176444972127694 0.07113213303073382 0  0.06222686140118759 0.39162617321957 0  -0.1711481605197325 -0.122451854239736 0  -0.242761340916915 0.7735174095631252 0  -0.625 1 0  0.5334580839625686 0.4543984744350912 0  -0.5756892117226373 -0.8301257111919444 0  -0.2573577971810854 -0.7837438089594475 0  -0.3191317012389824 -0.5087466232362775 0  0.8339708931123102 0.5953563397109385 0  -0.5484353843842523 0.7906728669827444 0  0.125 1 0  -0.0673554973009735 -0.09342531904801045 0  -0.4942504664623042 -0.1433517270921141 0  -0.875 -1 0  0.02960744281368051 0.04154292018570618 0  1 0.375 0  -0.875 1 0  0.05733092137650322 0.7938383529471044 0  -0.1955684308496106 -0.373927937072501 0  -0.07276712723608698 0.5708942960040032 0  0.2365452400664405 0.5178053019910145 0  -0.7921367929940664 0.2293068891474626 0  -0.4946830239736018 -0.389391199557001 0  0.0002387282528136052 0.2709278751044373 0  0.5099682061959063 0.6402297969946645 0  0.3988537474428511 0.8072982821047595 0  -0.8060281181754801 0.4242633188807773 0  -0.06424730042569385 -0.2205123103965108 0  -0.7094206754248714 -0.01415566121883483 0  0.09055711215310509 0.05240443101345508 0  -0.4777889373756501 -0.2515046612497784 0  0.7238495615478249 0.08293175521605671 0  -0.808389930113867 -0.4111631510370837 0  0.3376057065903584 0.1535652407120595 0  -0.7943341938623565 -0.2508970051823208 0  0.2364178756889045 0.2542449978765888 0  -1 -0.875 0  -0.9999999999999999 0.8749999999999999 0  0.1843516966210144 0.04785335060375186 0  -0.2470885391095806 -0.2293175624075341 0  -1 0.375 0  -0.1708618280314873 -0.04177904505874944 0  -0.6485715672374532 0.4673208937946801 0  0 -0.07736776745332727 0  0.08052631037652418 0.259718777225162 0  -0.375 1 0  -0.2166780812787392 0.424607495111639 0  -0.1198532560471164 0.1500232627952809 0  0.133295319477153 0.5540302021173525 0  0.1320302357237746 0.1936538100573595 0  -0.4744841518025838 0.2694444794266507 0  -0.04609402338520884 0.01388709850232042 0  0.8514022312965993 0.3703678375381167 0  -1 -0.125 0  0.2855816289842485 0.8368267843031967 0  -0.110583551189492 0.3128722855504006 0  -0.125 -1 0  0 -0.7575037395175258 0  0.07821397079968176 0 0  -1 -0.375 0  -0.375 -1 0  -0.625 -1 0  0.7474787146812756 0 0  0.625 1 0  0 -0.2918843213980811 0  -0.9999999999999999 0.625 0  -1 0.125 0  -1 -0.625 0  0.3284075310660084 0 0  0.004929205892015135 0 0  -0.125 0.9999999999999999 0  0 -0.006571003003944568 0  0.9999999999999999 0.625 0  1 0.8749999999999999 0  0.875 1 0  -0.5622270348272227 -0.6765403464123105 0  -0.004569046904756735 0.160087273650733 0  0.3624561357001985 0.2631281181721677 0  0.6530008127391198 0.2941781944781096 0  -0.8545252825208964 -0.6465346742883209 0  -0.8633358528557236 0.7869442401571972 0  0.4305882248663696 0.5014711151509607 0  -0.3983953179850868 0.855822285349744 0  -0.7785640053702009 -0.8748136944395879 0  -0.8703611410906215 -0.7842812729979367 0  0.1541344971102207 0.8421716139309203 0  -0.6583589281098726 0.1526979031946912 0  -0.5773707594789255 -0.06416412699431177 0  -0.8544497866139894 -0.06258182430439445 0  -0.2957462963764142 0.5620930006741154 0  -0.423496004849983 0.5698752416488259 0  -0.3758124662493844 0.3309635658499428 0  -0.6180298146380863 -0.2165344913451399 0  -0.272607269262886 -0.09010691584380885 0  -0.6396405299176803 -0.5887306107536476 0  0.8597028137172333 0.2661690802712502 0  -0.03276792853425411 -0.0329444521382911 0  -0.05460504303958229 0.1144699810694803 0  -0.1335919436823028 0.4319005837586906 0  -0.1196247107051463 0.03235968602753513 0  0.5377808351735741 0.06467634664398636 0  0.5792830160185346 0.3596072701537255 0  0.6913570724888014 0.7748542200642193 0  -0.7932537543767147 0.8811254479708848 0  -0.6429024794897162 -0.4294495904823653 0  -0.1166841933698735 -0.3972688286733627 0  0.8721742543406323 0.4888401400585839 0  0.07602450318932145 0.09378591202640786 0  -0.6644786256199455 0.8681313312489409 0  0.4547361481932466 0.3508417124809681 0  -0.02621417648877411 0.03578229863622599 0  -0.4085702847217065 -0.4406203460780765 0  -0.3614345669158942 -0.2690833676596638 0  0.3236539070794238 0.4818634987265068 0  -0.1958599764776527 0.2014369126425533 0  0.7056719091179077 0.5311564259135581 0  0.2619192079460286 0.356114645355362 0  -0.3763568236375658 -0.8519406749877061 0  0.1092059136735588 0.681996785634862 0  -0.2843639071433297 -0.612283441087581 0  -0.4407849567864356 -0.6203569018843211 0  0.2962732147889355 0.6923650317587015 0  -0.8747920807606802 -0.1748185457900236 0  -0.180013213802542 0.8549815141638532 0  0.4548093617847158 0.1635543209060629 0  0.2803159275116598 0.04669955410726882 0  -0.1422563722982932 0.6573930013975938 0  -0.0113382308652159 0.7085847198125618 0  -0.05333261562219247 0.8750467005743231 0  0.005486732447336586 0.4697816733124413 0  -0.3875023405523617 0.1535167680983199 0  0.5491947740625084 0.1333918046037392 0  -0.475723717159048 0.6823733207953077 0  -0.851470466921132 0.3327406949377075 0  -0.09235236780271963 -0.5364649284805908 0  -0.0313719287246102 -0.5522238921247943 0  -0.2132089742321591 -0.2879374963702137 0  0.8684742786229872 0.1516290183579494 0  -0.1697318114624005 -0.6612290976968831 0  -0.8890802872007926 -0.5284745916667939 0  -0.2815611515292237 0.3382944368071928 0  -0.6761058745862764 0.5740803701095536 0  -0.8974791672185499 0.5313569758214725 0  -0.8983645860604645 0.6608475497995744 0  -0.644251351272754 0.07241006685243573 0  -0.8590397429689629 0.02854370202138719 0  -0.8880993408775756 0.1678840527278231 0  -0.1299902543760423 0.2288997408573898 0  0.1604489622131625 0.4462334005403505 0  -0.04349071030828956 -0.1257974624772548 0  -0.7533099275878208 0.6700108996270064 0  -0.602264012009608 0.6979364341185964 0  -0.2542332515142227 0.07854482862958014 0  -0.2492181116688447 0.6487511446161494 0  -0.02738281139278408 -0.006377696030603217 0  -0.4942670989674333 0.8770763479348227 0  -0.4767617014007878 0.4905729973500197 0  -0.2902862186816696 0.1440727713746523 0  0.002321760588494724 0.02358790342351716 0  0.779544415481347 0.6837823146793918 0  -0.469587530964009 -0.824835058161359 0  0.2720349002208086 0.195069511928632 0  -0.1488843832019461 -0.8633714040946712 0  -0.06605524450825156 -0.8299141192113053 0  0.4434470032197516 0.7061311866460185 0  -0.1172213898196713 -0.2883657114204962 0  -0.2647421101697588 -0.02619334748917614 0  -0.8937358526114902 -0.8964793499366157 0  -0.5728162306295517 0.237234682428072 0  -0.4760277114627204 0.0876250406299387 0  0.4912098935539929 0.8258994266545406 0  -0.02845572027842877 -0.260073941937991 0  -0.3099914683062602 0.8754396412505335 0  -0.1428704510313979 0.08050217208268116 0  -0.469161072957566 -0.0349158781553603 0  -0.3878341575662694 0.01213404447779122 0  -0.2915697433556445 0.02757584180090791 0  -0.3847195817059622 -0.1205514991226223 0  0.8881832353185217 0.6981192254679911 0  0.7926027003087297 0.9107164090826013 0  0.5766717694461521 0.2082154178023362 0  -0.5596263900481259 -0.4696985175479985 0  0.5989374715062016 0.7061815816726288 0  0.6782171134123975 0.8883718558909487 0  -0.05094321965481381 0.3030936998752916 0  -0.9021284911798807 0.9046223540887872 0  -0.1273801217592077 -0.06714652248515847 0  -0.1687792
[...]
<PointData  Scalars="w"> 
<DataArray  type="Float64"  Name="w"  format="ascii">1.7522824917493605e-10  1.0385240474785249e-11  4.4494211706009867e-10  2.5818973464785022e-09  6.2420611790814351e-10  1.5704273229484985e-12  8.6865952480333848e-12  7.4764971064135412e-11  4.0365577904613660e-11  2.1049916189370934e-11  1.0822990853727110e-10  9.5864151221509679e-11  4.0295774418339340e-10  2.7602830469660620e-10  9.1397310108093927e-12  5.2515004374887700e-10  9.1173824247766861e-11  7.2400253820076799e-11  1.3087456206961326e-10  3.5566996661146609e-10  6.7059875908604832e-11  1.0466784619799648e-10  5.7574415062785531e-10  4.1406381724201873e-08  5.7638390609142010e-10  1.0799199372951644e-10  8.8550497113316109e-11  1.6976287343814365e-10  7.6660688445808791e-11  1.8831637150371560e-11  4.6941864457794979e-10  9.7681604906849351e-11  2.4405543504592053e-10  1.8117467525242515e-10  4.5520477695422248e-10  2.2577711151624535e-10  7.7984441617206084e-11  4.7660044888224327e-10  5.8749484420269692e-10  3.1198921834512325e-11  5.2778197016897022e-11  1.0867630128423624e-10  9.2528850536796620e-11  1.9760825119106324e-11  1.0487661492676032e-09  8.7442058238125391e-11  3.1984868271826071e-11  9.6140730492437199e-11  1.2421718497786591e-12  5.8848789518794591e-10  2.2112402025019719e-10  2.1389729263234116e-10  8.2981900594031374e-11  2.5280699668565309e-10  2.6013732191960072e-10  2.0576662676916013e-10  3.5633247117084039e-10  8.9428410438228690e-11  5.8012889287213379e-10  2.5200807744699138e-10  3.1421879025931374e-11  3.1514841374048094e-10  3.7863616053116514e-10  1.4370266782208652e-10  5.4017755520268191e-11  1.7778052311286906e-10  7.0647827390672856e-11  1.7853232427349734e-10  2.3343406921272018e-10  4.6147651701834074e-11  6.4809406395394892e-11  4.3092710726972793e-10  5.6575877958403063e-11  8.7928100508162062e-11  1.6910547673282249e-10  1.7048762545057905e-10  2.5765847098234256e-10  2.9106496968026113e-10  1.8322463902203543e-10  1.9548980172376421e-10  6.5065223380815035e-11  2.5233276788988178e-10  2.6289323628791163e-10  2.0138703662791540e-10  2.3456949780175273e-10  1.2539495029116175e-10  4.6585252310856416e-11  1.0972959536899044e-10  9.4544166968873722e-11  2.5218518369289441e-10  6.9464566091101521e-11  9.8906342255677164e-11  7.8416421123486350e-11  9.4364569889579310e-11  3.8971046098841949e-10  2.0991940779059499e-10  2.5547910334134607e-11  6.5294302012613763e-10  2.5637886353417842e-10  3.1675867484677426e-11  2.7704223125809690e-10  4.1236129467712007e-10  7.1087845632621425e-11  9.7339618351021663e-11  1.5682851851272563e-10  6.3767379517368162e-11  2.7439687564686650e-10  8.3150988071781629e-11  1.4637046100070094e-10  6.6174139466517995e-11  3.1153466105081348e-10  2.4783706405611630e-10  2.3199033582166568e-10  6.4546921979783828e-10  1.2107505776489278e-09  1.4886887389420741e-10  1.6568914882999315e-10  1.0238879650128313e-10  4.5934307304803789e-10  2.6023070412165035e-11  2.5726695602887549e-11  2.7808434900009356e-10  9.1837580870850284e-11  6.1131329152228334e-11  5.0307932717667623e-10  5.7419957385264800e-11  5.9669797058709379e-10  1.1888980736460456e-10  7.6756901034041988e-11  8.2831097811791557e-11  3.4318118622578680e-10  1.7284415873853221e-10  4.6591980866806226e-10  1.3543475975132410e-10  6.2047225672157817e-10  4.4187347717031592e-10  1.0958145933987841e-10  5.2085800161795988e-11  1.3031093304415082e-10  2.5619462176455008e-10  4.1482353688986022e-10  6.0386655117963539e-10  9.3378971930664913e-11  1.1941959152088436e-10  6.8995499459796318e-11  6.5670683149766927e-10  8.5994963094464615e-11  3.3288705807486380e-10  1.4738900132878755e-10  1.2449558915500689e-10  2.0136438788799881e-11  2.8339824388814752e-10  1.5719347498429811e-09  5.6731396585569717e-11  9.5917650430372386e-10  7.8966014603131518e-11  2.4607412654076899e-11  2.4376881292095847e-11  1.2176579769788291e-10  5.6164745884250081e-10  4.4566899854437152e-10  1.6111677582193858e-10  1.1498989892408885e-10  1.6710460710504537e-10  1.8693101231456413e-10  5.8808285684891602e-11  7.7949553810099818e-11  2.0465110755360597e-11  6.0158777505777647e-11  2.9533697305118388e-10  9.2590245650654705e-11  1.0598316461162102e-10  8.2922559520730972e-11  9.6267078260445313e-11  5.3364337019636408e-11  9.6503164400321250e-11  4.5662733416829396e-10  5.7185808605503248e-11  1.6412562868594186e-10  1.7152749945525608e-10  4.6489658343371552e-10  1.9862112911181642e-10  2.8324003272001845e-10  1.4312432551555614e-10  1.4490265964655117e-10  1.4956735961881574e-10  2.1097079300715260e-11  2.8915713049550171e-10  6.4625938454803260e-10  2.5538040827462616e-11  2.5180990156806628e-10  8.9235675591394082e-11  1.5775475429861723e-10  1.1083591564924830e-09  1.3784135758936723e-10  1.6461616676663334e-10  2.3388261630526023e-10  2.8841177619070533e-10  1.0570003513619059e-10  2.0491185939823511e-10  4.1945579724678922e-10  2.1889079795334209e-10  2.3869975547837944e-10  1.1004478039838547e-10  1.1266858456382492e-10  1.1283999139761319e-10  7.1742507705761364e-11  2.0855474420674546e-10  8.8553225872038704e-10  7.7784664468519887e-11  1.0849855505469049e-10  7.8011874353878070e-11  9.7133004720330805e-11  1.6270765654124257e-10  3.7737499620180733e-10  7.9113752901766978e-11  8.5427538714150359e-11  7.7702033810192742e-10  8.8852670595385044e-10  2.9248706438898386e-10  2.0003423840009205e-10  7.5432221785397937e-11  8.1153657524473438e-11  3.3689449849197545e-10  5.8819708860931362e-11  8.3458666780574834e-11  5.0296170231550112e-11  9.3743921861088025e-11  4.1413418976346357e-10  9.0778108291516170e-11  1.9788496016570432e-10  1.6658053481932079e-10  9.0118981695698987e-10  6.2005327560132639e-11  1.9858081893123980e-10  1.1562772347592708e-10  1.1202758580794164e-10  7.4570308222560356e-10  7.5516575492423574e-11  8.5385432531681313e-11  1.1833632865625899e-10  1.1082234890980526e-09  4.0961526456071480e-11  7.7960567405875857e-11  2.7968552580688234e-10  2.5037198337042512e-10  3.4396475149242577e-10  1.8231018132683763e-10  2.0406290924946365e-10  4.0491643153283599e-10  2.9525473475113782e-11  1.0567916147901948e-10  1.2837645298731597e-10  3.7632573429632107e-11  2.6526372936937393e-10  4.4074994097082857e-11  3.3440640872178377e-10  1.3644323801719721e-10  1.1077519967974237e-10  1.9208839654813670e-10  5.0387558103172488e-10  7.3048802224657823e-11  2.6974202532043330e-11  1.4488255535588223e-10  8.2316135167584341e-11  5.9361456128489017e-11  7.6020437551922137e-11  1.7966037939010450e-10  4.9529744321671971e-11  2.6397513907580776e-10  2.5472709198546433e-10  1.2943674633428456e-10  1.2885569137702164e-10  1.3750495574917990e-11  7.1616903507690589e-11  1.4669228260527545e-10  1.6870796636036693e-10  4.9794322632654627e-10  3.6914545376277454e-11  8.2090566043802007e-11  3.3591120312347248e-11  2.3915059389304391e-10  1.2610353053903188e-10  1.8541605247113006e-10  7.5344375920097029e-11  8.8304940144795436e-11  1.2094265825467831e-10  2.0321870679936748e-10  2.2417547198311059e-10  2.6199088628758924e-10  4.3818407800054694e-10  2.1466187600209208e-10  2.1012609316590492e-10  1.4489593359473705e-10  7.9823709401301806e-11  1.7100648274476528e-10  1.6532531285463745e-10  6.2460027211976929e-10  1.2965347304385644e-10  6.2441466123862826e-11  4.0742222851499194e-10  1.8997395902937224e-10  2.0875376318993645e-10  1.2897676756334808e-10  3.2730321555600271e-11  4.4949333496131138e-11  9.8815024966041358e-11  6.8125092721422093e-10  2.9316677976423053e-10  1.8118428607284147e-10  1.3664085902945266e-10  3.3469709137411084e-10  6.7670996368565616e-11  1.0998206662339211e-10  3.5167199691858704e-10  1.1184007950439089e-09  9.9159060625797971e-11  2.8302154030886444e-10  6.1314721343530184e-10  1.2298740988639519e-09  1.9725941176852699e-10  1.5279958465870867e-09  4.1895324024046031e-10  2.2597717399628217e-10  1.1613800956978940e-10  4.2017587070329575e-11  6.5865912364769984e-11  1.2712421692417884e-10  1.5756585652941378e-10  6.3834698934647774e-11  9.9048894057002261e-11  1.0767262477165816e-10  1.2782232000647106e-10  1.9267788756019822e-10  4.9772918972206453e-10  3.1942526227972226e-10  1.6652604128565956e-10  9.6015749252057303e-11  6.1879544914706395e-11  5.9276042293109153e-11  7.1096307404186568e-11  1.8287042108442297e-10  2.2811299395161555e-10  1.0612483845886121e-10  1.0600033778647418e-10  2.3903233645215115e-10  1.3640627907537319e-10  6.9634881366893353e-11  5.9567599736380271e-11  1.0572328019817073e-10  3.4367567313021433e-11  1.8743175023522014e-10  3.2905135457050669e-11  1.6131821339055900e-10  1.7948269732179914e-10  1.5203945532830331e-10  3.9963147929500138e-10  7.9688439019872648e-11  8.3189629136282541e-11  1.4501339653254342e-10  3.0966235177514409e-10  1.4422111500938493e-10  2.6346367713769720e-10  1.1105172790552615e-10  1.3623037039760514e-10  1.5827654093254141e-10  2.7902649009751963e-10  1.2781626504554548e-10  3.3813666081033043e-11  1.1765998422420937e-10  1.1257642245251882e-10  1.4763899197867185e-10  2.5277178938567065e-10  1.7067351491373195e-10  3.5073609815867073e-11  1.2959285298876479e-10  2.3108646200683035e-10  2.9312062216954774e-11  3.3094563260251726e-10  1.6410342630125709e-10  3.8933746666577652e-10  1.1237466106173656e-10  2.3872756414998907e-10  3.2631413019113164e-10  7.5723275020381570e-11  1.0546874178951882e-10  2.1785033390401177e-10  7.3582086307998628e-11  4.8230821849237192e-10  1.6037720864714311e-10  9.8246741797156912e-11  1.0860442858141312e-10  2.0936996320704143e-10  5.4256321356823637e-10  4.7784111452665415e-10  1.8044010174180024e-10  1.7247137725743702e-10  2.0829288451024545e-10  4.0153897180738664e-10  4.5603659916015857e-11  2.2595203590053501e-10  8.1757395979000023e-11  1.2400557888003081e-09  1.1849974913915627e-10  4.6177966753299856e-11  5.5070886233885540e-10  3.3181735508252683e-10  2.4829426345747479e-10  2.1126344976184053e-10  6.4365936962766307e-11  1.5380818193726699e-10  3.3442748875405377e-11  4.3998848209659824e-10  8.2267935753676860e-11  1.3752280633848382e-10  1.2765999513339567e-10  6.6079053646151950e-11  3.4858900763868532e-10  4.3418577436066260e-11  1.1804378292653944e-10  2.4571146361249932e-10  1.7939373322407187e-10  7.1384724260394924e-10  9.2418625717799525e-11  5.7697851401964623e-10  1.4730934017177107e-10  3.5492282449661182e-10  5.4874694688579429e-10  2.4445582449381651e-10  1.5527580128691944e-10  2.7241705180770083e-10  4.8080772430838541e-10  3.4222268334553957e-10  7.5854631632596189e-11  4.9930484192620260e-11  1.6394963739763888e-10  3.5709881325628712e-10  1.8680846421721759e-10  1.2712890159381296e-10  1.7117421115863072e-10  8.1407382632979240e-11  7.1454269061740191e-11  1.9960010806040538e-10  5.8053073658250543e-11  2.0764972457208530e-10  9.0671868437529044e-11  4.8105018941922918e-10  4.9598479923921217e-10  8.2152998695719791e-11  4.1992570192689629e-11  3.9743779578084022e-10  6.4932039817933474e-10  2.5947592272408297e-10  9.8550605083943594e-10  2.8864868349637307e-10  3.1770882578085712e-10  2.7267698337717767e-10  2.6643751193078455e-10  9.7815812302409726e-11  3.1472680912228362e-11  1.9479727626388514e-10  1.0520246449659646e-10  2.1530266078854599e-10  7.5840625066866552e-11  1.2341835587972802e-10  2.0396148963752152e-09  1.7720416638773611e-10  8.1001993783126871e-11  8.2594259754883145e-11  3.9959703622909606e-10  2.4365665758330853e-10  1.9011632200924860e-10  2.0843292675145152e-10  4.4696068717712386e-11  7.5800632611501343e-10  2.4245206469567511e-10  5.3311159235827340e-10  2.4783228387062907e-10  2.4202466642091737e-10  3.1173199697374855e-10  9.4507314033203345e-11  3.3150579156568185e-11  3.6275668547138555e-11  3.6831401044826460e-10  3.6066380799289105e-11  1.1666003496777360e-10  1.0189008380842554e-09  7.5239438613777645e-11  3.4954867130721117e-10  2.6248547693382771e-10  6.1951036495440558e-11  5.9926884424547003e-11  1.8052965748422240e-10  2.4573334622340979e-10  4.8312197522970403e-11  1.1368219578703569e-10  1.6077339720593842e-10  7.6031355318346063e-11  1.7023655774630907e-10  2.1230780817801049e-09  3.3983583007739838e-10  3.1984241554083060e-10  1.0703060861300040e-10  1.0746213371006284e-10  1.8788020078381682e-10  8.0305374821229627e-11  1.3504926773434041e-10  4.9938850120496931e-10  8.7143183228770322e-11  2.4223862332546214e-10  2.1545832793665716e-10  1.3922221501791932e-10  5.1567068381992656e-11  7.7931345466876755e-11  5.5534349577962698e-11  2.8544887762687778e-09  1.0628032560348424e-10  2.2138100903051075e-11  5.7127812653666401e-10  3.0722811266471361e-11  6.2144612043353760e-10  1.1705454067455235e-11  7.2726021336267348e-10  1.7434540192160778e-10  2.4780829982775615e-10  1.0488806684465053e-10  2.8848832812709792e-11  8.5305076219340887e-11  2.7945512420214826e-11  2.0782539654802677e-10  3.7267037271546511e-10  2.7165917077762794e-10  3.2724993958887678e-10  1.3416746388779439e-10  9.3874312528055316e-11  6.3524283728773263e-11  3.6084011715276067e-10  5.0205713989853503e-10  1.0649597768177131e-10  1.0117320985596709e-10  1.4731246601464660e-10  7.6415628406772014e-11  4.5423384353980969e-11  5.4864111540661281e-11  3.2214974255489292e-11  8.8811402241153958e-12  1.7900051997144561e-11  9.8833511460445978e-11  2.2627822544773246e-12  1.1115185978297202e-11  1.8581420386903547e-10  3.4926927991882231e-09  2.2345069587482493e-10  4.2628184267486123e-11  2.2048767322243742e-10  9.2889759527884267e-11  1.1277248400062747e-10  4.3945464561166772e-11  1.7147604768473268e-11  8.8150883417129747e-11  7.2726279848142015e-10  8.0068308708971172e-11  1.8361371007549738e-10  3.2366640778199916e-10  4.8559118878236336e-10  9.6560128190656158e-11  1.0182268577122008e-10  5.8436269611524228e-11  7.7183650607517901e-11  1.1222825184735786e-10  5.7488815918509567e-11  6.0048940435608890e-10  5.9333256787400847e-11  2.7841678566040999e-10  8.8392643704366120e-11  1.2797855946143320e-10  3.1231029067237343e-10  4.1701020732801059e-11  6.3251616632494146e-11  2.8525289395044397e-10  1.1966246427176494e-11  1.1358991694455017e-10  8.8275426001204285e-11  7.6919373355900427e-11  5.6232994326517842e-10  1.6150812707754773e-09  2.9192792253029590e-10  2.8946138604357718e-10  9.0959215723288674e-11  6.9095643120534056e-11  2.5452008438589117e-10  1.1763895890322663e-10  9.9318517073343833e-11  1.0463044035831030e-10  1.9896668685118172e-10  7.3933262319813299e-11  5.2772409755449717e-11  7.0777644619693352e-11  3.9778215066415218e-11  8.6577279708458920e-11  1.9177614888307911e-10  1.6262781873068840e-10  1.1209175754898018e-10  2.7325780697544698e-10  4.7293851052127357e-11  1.3612815677927630e-10  5.2258606417143644e-10  6.6859715921480339e-11  1.1792973276606885e-10  1.2933454816179002e-09  5.8299069569342800e-11  3.3772308707692302e-10  5.1235009299723599e-10  1.5841604521484700e-10  1.2895188992317335e-10  1.2609514402787772e-10  9.0192070815633126e-11  2.4771595370808184e-10  2.8640876011190539e-10  1.7777879957374216e-10  4.6892333720003339e-10  4.2339163173995084e-10  1.2161618056692882e-10  2.1082391112070857e-10  6.6443979151907902e-11  8.4839386324540277e-11  6.2707844366585812e-11  2.3955484188168485e-10  4.0082919804415766e-10  3.0798095989059450e-10  3.2483198849627237e-10  8.6131836159960372e-11  2.2803748768050125e-10  4.8031079823329112e-10  1.7295019951658259e-10  4.7977214980715933e-10  1.8300335979369186e-10  1.3832849560164149e-10  1.1158267475127081e-10  5.1323295135810913e-11  5.4246153704195175e-11  3.2892216735993400e-10  6.2944873134429936e-11  6.4866671977865742e-11  1.2946323263973706e-10  3.2215613293821045e-10  3.1904377688358748e-10  1.5779555127938135e-10  1.1770737007294879e-10  5.9153421465086256e-10  6.2942265731885601e-10  1.5974320637264822e-09  2.6785785494054547e-10  1.9884191125394812e-10  4.4297541988309273e-10  4.5718445500622873e-10  1.1667527506137899e-09  2.9715427112155160e-10  2.4576969432181628e-10  3.3216649295758441e-11  1.2906872850741424e-10  3.1611006386668417e-10  4.9485772137004380e-10  2.1173903103560472e-10  6.6049430316992959e-10  3.0503271892249070e-10  2.1587711216216372e-11  4.8279169010747767e-10  3.3294495237292322e-10  3.8899780024894393e-11  3.3471440299692518e-10  4.1411554248105271e-10  5.4518666961278301e-10  1.4596088748006966e-10  6.7326819936272572e-10  1.9617303453091899e-10  4.7404552842997253e-11  1.2767077639232835e-10  1.3292242605223784e-10  3.1553909420914387e-10  7.8944977574716803e-11  2.6518721719205364e-10  1.9506673730245037e-10  8.1918290541254879e-12  2.4684570672013586e-10  5.7912158116085327e-11  9.0306570292476609e-11  1.2393463815415757e-10  6.3294437368114885e-10  4.1176870379865043e-10  3.0443198860438519e-10  1.1729449223568919e-10  1.3232449081076295e-10  8.9996095826369195e-10  5.3989271817479176e-10  1.3457361667169015e-10  1.4276481401599972e-10  9.3957328216175562e-11  4.8945362508642437e-10  1.3812413955814012e-10  1.7428550041654423e-10  9.5227044634225939e-11  7.0547592143288501e-11  6.3323212007225565e-11  1.4902760188978762e-10  9.8091409667054808e-11  1.3008785873067263e-10  4.3682757884537049e-10  7.6541774906079766e-11  5.9537982612747293e-10  1.2727029018593781e-10  2.2469923992996358e-10  2.8091233759695781e-10  5.4960791942459204e-10  1.1647771270768744e-10  4.1073028070592094e-11  6.2951626039756466e-11  1.4220057888489434e-10  1.5912288188646854e-10  5.1743797530117853e-10  8.4224424395393304e-11  1.6144028244123725e-10  2.5123180077425742e-10  1.3818767145379728e-10  2.3582648540589273e-10  3.3204031201445787e-10  3.1226537552678374e-10  1.0456518442684766e-10  1.7458420137663567e-10  1.4920195030262055e-10  2.2868382598055263e-10  4.5387994680561777e-10  3.7423251435927944e-10  2.0204368979581044e-10  2.0582058430580637e-10  1.2499800180408344e-10  1.7229391269011840e-10  3.0047296299654898e-10  3.8087927410365970e-10  3.6153375321137875e-10  1.6626994436205918e-10  2.2069347094068131e-10  1.9407002907856801e-10  1.5419062133384100e-10  3.9843595815606120e-10  3.1714401632838961e-11  1.0553247700408051e-10  1.2708790111924829e-10  1.9903934151599386e-08  4.0848132476735838e-10  1.7579344518830285e-10  6.1174822124715196e-11  2.5748844685092013e-10  1.3797964600779534e-10  6.4497789118300121e-11  1.0540502352970897e-10  2.0290612807772178e-10  2.0599818979589832e-10  1.9422021512725285e-10  1.8930883704377746e-10  3.0970634860595570e-10  6.5287923016883129e-11  8.0285172667830232e-11  1.9132498623205191e-10  1.2294122021725320e-10  3.5483638576436652e-11  4.0291267703349763e-10  6.4895957444195125e-11  6.1720471602840508e-11  1.9418448292932329e-10  9.9096383103320272e-11  2.3669009144157286e-10  2.9266688833968425e-10  2.8007251482225841e-10  7.8243386019852227e-11  1.8734250626646109e-10  9.6582388978125539e-11  3.2711897108838363e-11  9.0780835670984750e-11  5.8334463872622586e-11  7.8943791234511027e-11  2.2526580047083112e-10  4.7351755601463259e-11  6.6556124521287502e-11  9.4864362481133009e-11  9.3609987618557351e-11  9.4134877447443132e-11  2.5169162568782615e-10  8.7845164931178463e-11  1.8393558933010490e-10  2.0190873716047244e-10  9.9340475502794018e-11  1.6092334353307908e-10  3.1527956289642728e-10  1.2449487160752707e-10  6.1541952474601180e-10  1.7124761576852950e-10  1.4942667347332157e-10  1.3911390987294914e-10  2.2837250434127304e-10  4.4133756062144035e-11  3.9906792395734434e-11  7.7029347984239459e-11  4.3461635730477897e-10  2.0058759976355442e-10  6.3509373319158891e-10  4.4383676446732940e-10  1.2156441948861511e-10  5.4848443938778200e-10  3.6434410585354414e-10  1.8871610091649259e-10  7.0848361687726437e-11  9.3882790582663540e-11  1.7481656989225212e-10  1.8818881847092336e-10  4.1687452302349419e-11  4.7924942968405011e-10  2.7726398284107995e-10  2.9688786441375233e-10  5.3519755002733083e-11  3.5250468638302081e-10  2.6658016350264462e-10  5.7779159516335793e-10  7.3428125382786419e-11  6.1547158141584173e-11  2.3977704282955205e-10  7.2716325276573783e-11  4.2607529696632200e-11  1.4794282856759504e-10  2.4351028600602424e-11  6