<?xml version="1.0"?>
<VTKFile type="UnstructuredGrid"  version="0.1"  >
<UnstructuredGrid>
<Piece  NumberOfPoints="4852" NumberOfCells="9430">
<Points>
<DataArray  type="Float64"  NumberOfComponents="3"  format="ascii">-0.9999999999999999 0 0  -1 -1 0  0 -1 0  0 0 0  1 0 0  1 1 0  -1 1 0  0 1 0  -0.5 1 0  -1 0.5 0  -1 -0.5 0  -0.5 -1 0  0 -0.1608775713298009 0  1 0.5 0  0.5 1 0  0.1967448868031411 0 0  -0.3410594439828764 -0.1757913332119131 0  -0.3374940799918663 0.2245683914632748 0  0.1734761495105756 0.3466683670491319 0  -0.1854849554053262 0.5554079104210177 0  -0.5035235155323033 -0.5376512118413117 0  0.4904395886693718 0.2572133623889088 0  -0.06511932465783027 0.2015562150317416 0  0 -0.5061325913258391 0  -0.25 -1 0  -0.5614947176135303 0.577509087535545 0  0.6614735868111057 0.6336409750839723 0  -0.1756906987696161 -0.5379360297845055 0  -0.5394064456324913 0.02539783085509131 0  -1 0.25 0  -0.2067601430983345 0.02415401671671472 0  -0.6548544268184673 0.3093632026595257 0  -1 -0.25 0  0.03876982273677045 0.5921415868468445 0  0.19468428820896 0.1293405120514848 0  -0.1366744005763369 -0.2198190195913491 0  0.3709302098350242 0.6145695121168934 0  1 0.25 0  0.5355652144809806 0 0  -0.75 -1 0  -1 -0.75 0  -0.6450532863343224 -0.3232809846262107 0  0.25 1 0  -1 0.75 0  0.02757118475249542 0 0  -0.25 0.9999999999999999 0  -0.75 1 0  1 0.75 0  0.75 1 0  0 -0.02898318711980711 0  0.05344568401211433 0.1427535775358983 0  -0.07803516080365586 -0.02745463343950262 0  -0.7012973139633835 -0.1326077865240886 0  -0.3217213657103847 -0.3474182327388645 0  -0.3406988639465052 0.4376709448467306 0  -0.1002115382978053 0.7645051895003203 0  -0.3834006008674417 0.7027783201551325 0  -0.05547952393123914 0.3994955069702447 0  -0.07937217278115241 0.07230106957751883 0  0.3587233706352533 0.3698024759671499 0  -0.7156526343953573 -0.7299028677103138 0  0.4117809948502117 0.09008433632222212 0  0.690003714215487 0.1915438439226397 0  -0.7471859458215687 -0.5270420296191776 0  -0.3871729324283953 -0.7108158808105293 0  0.7216653201600792 0.4183850213597836 0  -0.7762420682821942 0.09687396468561103 0  0.1965442290905252 0.6988822578329439 0  -0.199397937571566 0.288975977243291 0  -0.7989649427248359 0.5774064225312074 0  -0.7166864381096976 0.7663287609237874 0  -0.05150334624953529 -0.3736693794463122 0  0.5846487065215781 0.8163606574631453 0  0.8202728738986164 0.8056888494062124 0  -0.1013484161090865 -0.6974123705410143 0  -0.5150797480634054 0.1627611270409973 0  -0.2025188126384624 0.1260340342873906 0  -0.3598452266462693 0.07552025212597838 0  -0.3656719361964213 -0.05227961254805653 0  -0.4970575159810758 0.3951997860013118 0  0.375 1 0  1 0.125 0  -0.01248771296800786 0.07136658263101513 0  0.0615659087261639 0.3924196849629045 0  -0.1718336607568105 -0.1221813632575214 0  -0.2430786447671533 0.7738700725108496 0  -0.625 0.9999999999999999 0  0.5333454611256458 0.4542031369054767 0  -0.575658170609454 -0.8301211107605914 0  -0.2569710902788401 -0.7838006858260019 0  -0.3195497237996536 -0.5086375685890069 0  0.8340038895986993 0.5950434604449965 0  -0.5487608657512274 0.79082553183462 0  0.125 1 0  -0.06779743410435191 -0.09325206040583615 0  -0.4948531440577036 -0.1433747592311879 0  -0.875 -1 0  0.02901038137328136 0.041837457537951 0  1 0.3750000000000001 0  -0.875 1 0  0.0571322339863392 0.7941969975545706 0  -0.1961124583503298 -0.3737407445337321 0  -0.07328232382160704 0.5715533498668285 0  0.2361692323975969 0.5182683835808065 0  -0.7925155511210932 0.2293646873730086 0  -0.4950816631421349 -0.3893024980349713 0  -0.0006341818374554701 0.2717515881780616 0  0.5098281204107733 0.6401283411520707 0  0.3987968619702155 0.8073534553884548 0  -0.8063030891183485 0.4244012288036264 0  -0.06441812886369722 -0.2205375163294587 0  -0.7098777108979889 -0.01430392384675258 0  0.09009499256099084 0.05292362326155283 0  -0.4783083328017038 -0.2514679232078945 0  0.723864545676096 0.08282378086363291 0  -0.8084774870966764 -0.4111758414338041 0  0.3373393236017301 0.1539116595426966 0  -0.7945145903035307 -0.25099368045519 0  0.235936685207388 0.2548543561203296 0  -1 -0.8749999999999999 0  -1 0.875 0  0.1840558401655651 0.04824157517335496 0  -0.2478032394022962 -0.2290944842751511 0  -1 0.375 0  -0.1715810525001465 -0.04141989411060277 0  -0.6490472822437015 0.4675306275570095 0  0 -0.07736776745332727 0  0.07975579438919315 0.2605205177243919 0  -0.3749999999999999 1 0  -0.2174464616886638 0.425268880637539 0  -0.1207524490134691 0.1506283645308308 0  0.1328726524346229 0.5546409360753516 0  0.1313338893061422 0.1943950556103553 0  -0.4753176064903376 0.2696965264348455 0  -0.04635369153448731 0.01415321121432971 0  0.8515167804065352 0.3700181891160074 0  -0.9999999999999999 -0.125 0  0.2855388075083951 0.836957973555075 0  -0.1114746650217498 0.3136591479942316 0  -0.125 -1 0  0 -0.7575037395175259 0  0.07821397079968176 0 0  -1 -0.3750000000000001 0  -0.375 -1 0  -0.625 -1 0  0.7474787146812756 0 0  0.625 1 0  0 -0.2918843213980812 0  -1 0.625 0  -1 0.125 0  -1 -0.625 0  0.3284075310660084 0 0  0.004929205892015135 0 0  -0.125 1 0  0 -0.006571003003944568 0  1 0.625 0  0.9999999999999999 0.875 0  0.8749999999999999 1 0  -0.5622508296212599 -0.6764888680551404 0  -0.005491523912271058 0.1607246078220194 0  0.3621855826461565 0.2634604473193939 0  0.6530294043843242 0.2938713562762022 0  -0.8545258248357956 -0.6465115648146973 0  -0.8633605255515127 0.7869785439104104 0  0.4303657515193467 0.5015378687116527 0  -0.3986699209161596 0.8559189183448347 0  -0.7785075129146755 -0.8747659895514914 0  -0.870332862302265 -0.784238472847353 0  0.1540489097538598 0.8424043249977083 0  -0.6589480434146996 0.1526779305172336 0  -0.5780170766331615 -0.06427053746116954 0  -0.8546880358232662 -0.06271151787885015 0  -0.2963580129977925 0.5626044357369648 0  -0.4240391926932299 0.5702288268912912 0  -0.376651621433055 0.3314051048532284 0  -0.6185285019843496 -0.2166126600139132 0  -0.2733943111513758 -0.08988994430513884 0  -0.6397124877542747 -0.5886245472415116 0  0.8597817840808804 0.2659122004226822 0  -0.03299731255835324 -0.03279629668406765 0  -0.05541371652779804 0.1149627130679962 0  -0.1343377397208763 0.4326628715468835 0  -0.1202593110177675 0.03280161699702801 0  0.5377432730755121 0.06467674453625329 0  0.5792301543666261 0.3593529397153303 0  0.6913162322645217 0.7746368756009425 0  -0.793319311832819 0.8811168750032394 0  -0.6431267423688244 -0.4294009557642774 0  -0.1165056523667507 -0.3973097410995654 0  0.8722768979855026 0.4885236101713356 0  0.07527732333879972 0.09438791910991204 0  -0.6646427424450742 0.8681201849285213 0  0.4545498769043924 0.3508865212970764 0  -0.02655373304322481 0.03591129805032026 0  -0.4090190152390584 -0.4405017941703835 0  -0.3620768141009669 -0.26894323451924 0  0.323317736825443 0.4821674395070272 0  -0.1968319393909847 0.2020556829591205 0  0.7056956353434898 0.5307353854267455 0  0.2614687731780178 0.3566480912042741 0  -0.376329134107986 -0.8520055491532261 0  0.108928353796089 0.682481653176915 0  -0.2844804128981822 -0.6122539860935721 0  -0.4409265871023189 -0.6203211207197132 0  0.2960721559855665 0.6926025228343297 0  -0.8749949523460377 -0.174938817079799 0  -0.1802152051359661 0.855141944772743 0  0.4546701926915489 0.1636586134872929 0  0.2801738474318254 0.04692050646521365 0  -0.1427136258594293 0.6579982275772616 0  -0.01167095765752193 0.7091247353446896 0  -0.05347780409830896 0.8752132519066933 0  0.004852491886026732 0.4705675460823102 0  -0.388433958459135 0.1537895487411454 0  0.5491402021483058 0.1333536657592222 0  -0.4761446487966416 0.6826732469222915 0  -0.8516882115221868 0.3328485250742692 0  -0.0905013047835532 -0.5366213080009034 0  -0.02793582410592315 -0.552853826118494 0  -0.2139205382052331 -0.2877062385819508 0  0.8685317782476817 0.1514725303613738 0  -0.1681821336174364 -0.6612518894761295 0  -0.8891600322497387 -0.5284956301743816 0  -0.2824279685610371 0.3388687889933011 0  -0.6764882475762561 0.5742798521178549 0  -0.8975598172130294 0.5314660236362151 0  -0.8983947707121277 0.6609229710691353 0  -0.6448798725431762 0.07232590459455532 0  -0.8592981782136226 0.02844568917268356 0  -0.8883150352188355 0.1678771011604563 0  -0.1309364746868749 0.2296196679846884 0  0.159951263944772 0.4468618981890253 0  -0.04377628103189118 -0.125743968626741 0  -0.7535309865219174 0.6701816094456248 0  -0.602623553842517 0.6981729329377037 0  -0.2551772205538406 0.07893283590182824 0  -0.2497050547834605 0.6492752052141482 0  -0.02753220808267845 -0.00624587818246893 0  -0.4945154342386233 0.8771043201173128 0  -0.4773291882056423 0.4908789609182542 0  -0.291273303590663 0.1444893016138453 0  0.001941833960328707 0.02358494238934421 0  0.7795244096789388 0.6834906534091959 0  -0.469579197987307 -0.8248815169933205 0  0.2716365055331286 0.195575990119042 0  -0.1472937550218406 -0.8631183374072461 0  -0.0612139122797994 -0.8287502382331323 0  0.4433204138772455 0.7061346840893443 0  -0.1175658083870758 -0.2883055830343286 0  -0.2655911222820064 -0.02592576664510985 0  -0.8937135209196622 -0.8964615290324359 0  -0.5735222243326215 0.2373518109195932 0  -0.4768797835780415 0.08771010090598028 0  0.4911819005275097 0.8258458193339976 0  -0.02781823897472892 -0.2603603629971764 0  -0.3102028908954758 0.8755120346479236 0  -0.1436701926732309 0.08100679775097347 0  -0.4699078918813798 -0.03491834640848607 0  -0.3886941623055655 0.01224714230050985 0  -0.2924786937430892 0.02784725590888778 0  -0.385448046338062 -0.1204711574386162 0  0.8881702658119658 0.6979608644023525 0  0.7926003532295867 0.9106234806583925 0  0.5766354665747636 0.2080751412803857 0  -0.5599249766763991 -0.4696108793057081 0  0.5988586495857628 0.7059771109342681 0  0.6782203882071102 0.8882396395685901 0  -0.05181268152604641 0.3039166993479858 0  -0.9021467628442706 0.9046382191020909 0  -0.1280029581874063 -0.06681312712804603 0  -0.1694656406502255 -0.1824687450740053 0  -0.2528
[...]
<PointData  Scalars="w"> 
<DataArray  type="Float64"  Name="w"  format="ascii">1.7365038842607218e-10  1.0391351400530482e-11  4.4149299482053406e-10  2.4420000020805888e-09  6.2394538066267817e-10  1.5716426656272747e-12  8.6838301032091007e-12  7.4574357039927551e-11  4.0356325297334008e-11  2.1022330602317434e-11  1.0761032300871042e-10  9.5719869339806185e-11  4.0524131492547325e-10  2.7722361888342714e-10  9.1474785522289227e-12  5.3408587075368041e-10  9.0528975583084634e-11  7.1943164822477047e-11  1.3086738526834162e-10  3.5223012011201752e-10  6.6928539082686834e-11  1.0435272573940965e-10  5.7272128991782438e-10  5.7575235500622210e-08  5.8072527424066915e-10  1.0751940648486616e-10  8.8952171597460866e-11  1.7323120012193857e-10  7.6175777900247545e-11  1.8747705873167932e-11  4.6705411629328808e-10  9.7113559049004074e-11  2.4196040286694233e-10  1.7934446337754480e-10  4.5711553192688788e-10  2.2653149345733546e-10  7.7611290013246327e-11  4.7760670577081908e-10  5.8761069584560967e-10  3.1303110557964119e-11  5.2858182520432770e-11  1.0760393141119611e-10  9.2208248773408865e-11  1.9749557133759001e-11  1.0517151421590419e-09  8.7709946488675101e-11  3.2057964569676442e-11  9.6499572314696613e-11  1.2416477396446697e-12  5.9411848613705403e-10  2.2214624983033910e-10  2.1592721517147521e-10  8.2104035136057474e-11  2.5181407643310239e-10  2.5851475900853406e-10  2.0215924196762438e-10  3.5335703492659339e-10  8.8569363551364409e-11  5.8521158385139666e-10  2.5119063047686120e-10  3.1342173149563030e-11  3.1491137128036123e-10  3.7866228799456516e-10  1.4377758830476857e-10  5.4145042202353816e-11  1.7813756918515875e-10  7.0197367065776833e-11  1.7702784281976591e-10  2.3176193761573863e-10  4.5877226271794775e-11  6.4283220010045030e-11  4.4823819213196890e-10  5.6703986222451028e-11  8.8170709725184855e-11  1.8416568795109237e-10  1.6910786039288337e-10  2.5608545294889251e-10  2.8799059087816818e-10  1.8216475806676644e-10  1.9328969391020833e-10  6.5044658434541372e-11  2.5222986148233440e-10  2.6774072992709338e-10  1.9917870268496641e-10  2.3407247706964944e-10  1.2380186525647744e-10  4.6485520714988030e-11  1.0996799587546025e-10  9.4398966566295049e-11  2.5642715528191107e-10  6.9362928553986473e-11  9.9440375981609790e-11  7.7801998331662056e-11  9.3890213009823427e-11  3.9196107593659969e-10  2.0827889278205205e-10  2.5593712709723676e-11  6.6585444919323731e-10  2.5645725848360506e-10  3.1633864594361271e-11  2.7428987365052752e-10  4.1396221371397184e-10  7.0904306907483810e-11  9.6910625263560355e-11  1.5593729766572113e-10  6.3725447252489655e-11  2.7306522351482399e-10  8.3098433621371636e-11  1.4594329896661702e-10  6.5723651240577534e-11  3.1320814439757672e-10  2.4468519128979020e-10  2.3555715252506641e-10  6.3978797185067597e-10  1.2089689682215699e-09  1.4934474539815226e-10  1.6591322369490467e-10  1.0224627872428104e-10  4.5997569141501985e-10  2.6030132109936305e-11  2.5713346594218683e-11  2.8213807345065248e-10  9.1623456586664363e-11  6.0863761259615175e-11  5.0232523672951062e-10  5.7127851942981046e-11  6.0579901150725796e-10  1.1844941196286485e-10  7.6668780926600948e-11  8.2273832708807570e-11  3.4193930600124848e-10  1.7178871047903469e-10  4.6526059576137288e-10  1.3432745042014859e-10  6.3120703808405385e-10  4.4427378389113064e-10  1.0856276507705093e-10  5.2006458029447521e-11  1.2949548729806283e-10  2.6667854679356040e-10  4.8389213548455524e-10  6.1239604002956779e-10  9.2594751838162582e-11  1.1941226960466261e-10  6.9016805190726700e-11  6.5607177567268492e-10  8.6388278841300960e-11  2.2669157407065111e-10  1.4703289533366941e-10  1.2335155482089487e-10  2.0103070425556574e-11  2.8405558407258110e-10  1.5685240465855226e-09  5.6778567883127855e-11  9.7894084213562044e-10  7.9280728478713490e-11  2.4674334515275821e-11  2.4453342159444899e-11  1.2153560900749063e-10  5.6288912406940582e-10  4.4570239056399875e-10  1.6121312654586849e-10  1.1507144097150506e-10  1.6674007046414824e-10  1.8771399344643753e-10  5.8405446961071508e-11  7.8034524452949875e-11  2.0516888361834317e-11  5.9817392320945613e-11  2.9194997312079056e-10  9.2030353374623774e-11  1.0535280142517688e-10  8.2623474374961421e-11  9.5722479258993090e-11  5.3168947951367637e-11  9.5530786163770963e-11  4.5477882302686151e-10  5.7009868566497725e-11  1.6402007910154363e-10  1.7297577857642178e-10  4.6438658004092854e-10  1.9657612832160663e-10  2.8323162518479718e-10  1.4330133884010691e-10  1.4491783221181148e-10  1.5016708566540347e-10  2.1041142054480829e-11  2.8573983710888206e-10  6.5564477977698406e-10  2.5643612064148421e-11  2.5418878879341704e-10  8.8769569043228973e-11  1.5802869881451884e-10  1.1366445288441961e-09  1.3679068731438890e-10  1.6382818276454747e-10  2.3313048997653517e-10  2.8593556027642238e-10  1.0610248712892168e-10  2.0452300210866203e-10  4.1945873244820103e-10  2.1750906674829128e-10  2.3980197560823154e-10  1.0966542864754748e-10  1.1234618439808643e-10  1.1235061877339238e-10  7.0748054058631534e-11  2.0856439836319228e-10  8.8939122267112628e-10  7.7529490162179867e-11  1.0772389021273712e-10  7.7589403144759268e-11  9.6408764494483275e-11  1.6168940743641358e-10  3.7810938409046766e-10  7.8836597440081854e-11  8.4443247369245116e-11  7.8236001481585816e-10  7.8520739506409522e-10  2.9204735753868274e-10  1.9979051160123561e-10  8.0626788813433146e-11  8.0922720888256718e-11  3.3331547441969196e-10  5.8442539289240819e-11  8.2979852863594860e-11  5.0153973767622531e-11  9.2834796827365313e-11  4.1079938267032151e-10  9.0107310418202288e-11  1.9661287381050657e-10  1.6514042517105177e-10  9.0897428725977035e-10  6.1648822181256967e-11  1.9741433531370648e-10  1.1519856779791784e-10  1.1139217613291807e-10  7.5242827573029163e-10  7.4744501516252816e-11  8.4717215292862127e-11  1.1754935779579894e-10  1.1485178472142532e-09  4.1150970028309978e-11  7.7920307634485054e-11  2.8038256872048042e-10  2.6852461363374366e-10  3.7038605707412706e-10  1.8176459543457887e-10  2.0393328892343192e-10  4.0271020209053502e-10  2.9585981969043236e-11  1.0496621173634022e-10  1.2734463137965224e-10  3.7625428089186518e-11  2.7221977858621502e-10  4.3853019028113013e-11  3.3417475915788480e-10  1.3556869582084956e-10  1.0999124446193946e-10  1.9158721970301849e-10  5.0018705959283796e-10  7.3216212368847142e-11  2.7037263764346617e-11  1.4513536302874845e-10  8.1941094733395031e-11  5.9538476032698457e-11  7.6374666108192997e-11  1.7858806482601315e-10  4.9491629579773068e-11  2.6434547704158554e-10  2.5430146798973261e-10  1.2910510084887135e-10  1.2973710627038312e-10  1.3755595207164455e-11  7.1501636776595971e-11  1.4812811043909703e-10  1.6726059922747088e-10  5.0378964263694987e-10  3.6883574127782210e-11  8.2412319561615341e-11  3.3642060125817486e-11  2.4032181101941951e-10  1.2512783753331834e-10  1.8368316146628553e-10  7.5296859135023836e-11  8.7122463005971855e-11  1.2094620422121920e-10  2.0144492667066968e-10  2.2464731041423391e-10  2.6107262162099296e-10  4.4003889035314758e-10  2.1260932314311973e-10  2.1117771855811502e-10  1.4471925724124316e-10  8.0306502883400733e-11  1.7196951906904421e-10  1.6895672026295976e-10  6.3395334204270821e-10  1.2948878873477351e-10  6.2574396680518932e-11  4.0768019919558799e-10  1.9228757303201352e-10  2.0702756142590888e-10  1.1561084977473652e-10  3.2827247353794801e-11  4.4805947027609406e-11  9.8439797615826832e-11  6.8672312156491935e-10  2.9626558914906044e-10  1.8008540747259203e-10  1.3524733240188757e-10  3.3775393093370770e-10  6.7413422355734865e-11  1.1008575968412879e-10  3.5431906153211181e-10  1.5931250202952158e-09  9.9048279987072536e-11  2.8496834190353268e-10  6.2218747560913169e-10  1.2378283698722306e-09  2.0099859074193852e-10  1.5423093667381530e-09  4.1946719364280906e-10  2.2624580547862210e-10  1.1882392936990180e-10  4.1676569575272782e-11  6.5658716383570867e-11  1.2612962647890817e-10  1.5638161269504043e-10  6.3562145335117157e-11  9.9400808668309191e-11  1.0706448765993728e-10  1.2734095000267049e-10  1.9438936399332787e-10  5.0282921791033730e-10  3.1946493745120257e-10  1.6562648858897895e-10  9.5839526919874368e-11  6.1739609957789923e-11  5.9401570814042113e-11  7.0452913006275000e-11  1.8071045167394227e-10  2.2630800924471632e-10  1.0529068462709369e-10  1.0457002017548553e-10  2.3748727039781144e-10  1.3671441837942117e-10  6.9790775535633697e-11  5.9255239802652002e-11  1.0518248735113114e-10  3.4182594848064593e-11  1.8483855935382279e-10  3.2943878609176730e-11  1.6074473954192397e-10  1.8000603342018708e-10  1.5184743946097866e-10  3.9923562096631393e-10  7.9271318949192182e-11  8.2915600578199303e-11  1.4387146803297515e-10  3.0655302719752516e-10  1.4456481653873640e-10  2.6336228803873572e-10  1.1059267811769261e-10  1.3449299075730391e-10  1.5552554540331790e-10  2.8748817359191282e-10  1.2835130123984719e-10  3.3663360597342738e-11  1.1671696634792440e-10  1.1175224825222652e-10  1.4695024520434727e-10  2.5185220805189798e-10  1.7054671698218815e-10  3.4966129499532399e-11  1.2866372605902610e-10  2.3506832121211496e-10  2.9453509593852273e-11  3.2856151351613634e-10  1.6444369813977096e-10  3.9559766169420592e-10  1.1277483947159266e-10  2.3563318663528733e-10  3.2329269525839906e-10  7.5314280272468549e-11  1.0585035268752342e-10  2.1796907122220562e-10  7.3920861291375109e-11  4.8442384233070898e-10  1.6024872095616400e-10  9.7590638301267647e-11  1.0800993479097784e-10  2.0970226114836833e-10  5.4129600497362087e-10  4.8286812596059268e-10  1.8011327059812228e-10  1.7075695585448979e-10  2.0648759266404347e-10  3.9805737443150054e-10  4.5539897964935346e-11  2.2459718708363834e-10  8.2039145625247381e-11  1.2573663710572228e-09  1.1790097711216788e-10  4.5822950728943816e-11  5.5701503060114234e-10  3.3342542476332491e-10  2.4640469202299954e-10  2.0850420524684250e-10  6.3917672136455059e-11  1.5258243898028319e-10  3.3290918323102746e-11  4.3589304700482623e-10  8.1904491150961959e-11  1.3686879654215177e-10  1.2647314083658016e-10  6.5680282146227691e-11  3.4696395271298643e-10  4.3175044156288780e-11  1.1734689119140570e-10  2.4390991676265889e-10  1.7826644279607200e-10  7.1620305456061048e-10  9.2717008697516752e-11  5.7488107989774552e-10  1.4806017250546601e-10  3.5607445540260032e-10  5.4262614536817303e-10  2.4413101178201470e-10  1.5445119589980306e-10  2.7448808484608604e-10  4.8463296646910315e-10  3.5279288988585453e-10  7.5415312963790154e-11  4.9247821430628392e-11  1.6381426019378348e-10  3.6019629710214547e-10  1.8456286616295680e-10  1.2693625794522020e-10  1.7045712391118564e-10  8.1410902712643896e-11  7.1003547662672418e-11  1.9847630474056623e-10  5.7718578578532352e-11  2.0571514857723667e-10  9.0328860483386799e-11  4.7906674215515843e-10  4.9034056629322122e-10  8.1688812513818996e-11  4.1758061902594558e-11  3.9738262328701559e-10  6.4993664147536271e-10  2.5776497961936473e-10  1.0001519788993150e-09  2.8760108167323880e-10  3.1565771996686418e-10  2.7709492823353679e-10  2.6871047371491396e-10  9.7153800909567147e-11  3.1522064779064389e-11  1.9247312471861076e-10  1.0509313781402910e-10  2.1361762605870495e-10  7.5409737295004490e-11  1.2232999384680185e-10  2.0591697616109295e-09  1.7683212385801376e-10  8.1142685540285175e-11  8.2325971931130638e-11  4.0531285357294001e-10  2.4213615647727022e-10  1.8890592351284981e-10  2.0752801366429556e-10  4.4503349714575258e-11  7.6347677408617609e-10  2.4041199129615580e-10  5.4018401053513247e-10  2.6160969023211919e-10  2.4088147623094288e-10  3.1179170133953452e-10  9.4797209338913096e-11  3.3178959710317009e-11  3.6294058718171031e-11  3.7187028080407806e-10  3.6122391195179073e-11  1.1645693832066712e-10  1.0219293314915201e-09  7.5114264693701856e-11  3.5123719924924959e-10  2.6282628028075635e-10  6.2017648549296946e-11  6.0059715378921623e-11  1.8112863848666342e-10  2.4467592361859522e-10  4.8501364082117243e-11  1.1287772513875694e-10  1.6037767703802962e-10  7.6150823702244177e-11  1.6898218668100741e-10  2.1476144272481759e-09  3.4736446747861275e-10  3.1971436744164912e-10  1.0742518469202617e-10  1.0777191627897557e-10  1.8737262116975657e-10  8.0737920228963786e-11  1.3377194222335662e-10  4.9550187149497547e-10  8.6420495695726716e-11  2.3977509052135562e-10  2.1346674171842005e-10  1.3957288374680537e-10  5.1518286702762276e-11  7.7923993360833876e-11  5.5601421806975143e-11  2.0845836867902839e-10  1.0572445174241840e-10  2.2119257789325336e-11  5.7078990474563539e-10  3.0845754034272755e-11  6.2065077069708892e-10  1.1777060557436753e-11  2.6356894411385136e-09  1.7670819380795995e-10  2.5500965126311500e-10  1.0426853329754063e-10  2.8828083023832228e-11  8.4707058398765710e-11  2.7889392746536052e-11  2.0680907833469949e-10  3.7228027449052433e-10  2.7151502136861432e-10  3.2471995456550673e-10  1.3402361271303831e-10  9.3680875095025101e-11  6.3549464742522584e-11  3.6624725029156576e-10  5.0261251833543430e-10  1.0556464357530010e-10  1.0034716214435019e-10  1.4605840457009018e-10  7.6529920630800748e-11  4.5510547810671347e-11  5.4816992328354585e-11  3.2213468418410181e-11  8.8848243516358940e-12  1.7899558323011232e-11  9.9106742748625054e-11  2.2661170632455288e-12  1.1143716260283968e-11  1.8747996347026486e-10  3.4744909521226335e-09  2.2247451508120593e-10  4.2687628260374999e-11  2.1971814774919887e-10  9.2415910925251463e-11  1.1221878216736338e-10  4.3953332647445663e-11  1.7134812677305388e-11  8.8098196109892680e-11  7.5268057548024050e-10  8.0036660111603105e-11  1.8407430870537157e-10  3.2478348485696300e-10  4.8279329493008260e-10  9.6526152825966367e-11  1.0225480172643170e-10  5.8435640588503952e-11  7.6791690677075592e-11  1.1191955651184040e-10  5.7075828013083245e-11  6.0535873333446575e-10  5.9269837551796259e-11  2.7902419195198721e-10  8.7893518960903142e-11  1.2800453332492665e-10  3.0853757023141901e-10  4.1531456716167848e-11  6.2858425114032113e-11  2.8350024115010219e-10  1.1902946164626108e-11  1.1283717093106160e-10  8.8385461477238521e-11  7.6771594882070262e-11  5.6233195005921896e-10  1.6140357862611316e-09  3.2220229306630063e-10  2.9069614588448746e-10  9.0495440019295101e-11  6.9369935856396848e-11  2.5233677357399706e-10  1.1753205826616216e-10  9.9689448316346823e-11  1.0438326299790216e-10  1.9668998168497589e-10  7.3627602804270418e-11  5.2851140899175882e-11  7.0854768325710618e-11  3.9840413769952045e-11  8.6663770297277189e-11  1.9181592292027108e-10  1.6179419898495391e-10  1.1169033694717575e-10  2.7723114605534573e-10  4.6921095775945559e-11  1.3627625449598953e-10  5.2539399601786776e-10  6.6503755877353168e-11  1.1750955047631815e-10  1.3195784343646259e-09  5.7877429773344907e-11  3.3876319322215481e-10  5.1318848976429422e-10  1.5746737093211170e-10  1.2838427244536243e-10  1.2541402261929962e-10  9.0453133240313805e-11  2.5383665842072355e-10  2.8653301034821756e-10  1.7717056452690519e-10  4.6984369634299351e-10  4.2448147209013569e-10  1.2068659409996352e-10  2.0897948011005968e-10  6.6690991177049559e-11  8.4466352667076439e-11  6.2557269168517107e-11  2.3784281046687401e-10  4.0115461102676696e-10  3.0797371712986169e-10  3.2356178507610859e-10  8.5499615801740705e-11  2.2910747731599593e-10  4.8034623198951254e-10  1.7090078253891781e-10  4.7505441271426014e-10  1.8248133341558181e-10  1.3826193957765771e-10  1.1178508540277809e-10  5.1150489283541724e-11  5.4413153731751377e-11  3.3740779097005151e-10  6.2488748765002451e-11  6.4662586982267212e-11  1.2941813914522561e-10  3.1890269734757809e-10  3.1804756104692077e-10  1.5707035922775422e-10  1.1771325042012152e-10  6.0115493797352446e-10  6.2935407778183338e-10  1.6349761795762923e-09  2.7155206166524794e-10  2.0107710413732550e-10  4.4716814983469529e-10  4.5350328432447524e-10  1.1897115121220681e-09  2.9815256745971414e-10  2.4667497561215452e-10  3.3007357623827038e-11  1.2825067246941336e-10  3.3657585219299411e-10  5.0152688482048796e-10  2.1345939836897656e-10  6.6337335541320102e-10  3.0274861895602080e-10  2.1573340680853259e-11  4.8651726998857284e-10  3.3497461239163066e-10  3.8695374169443649e-11  3.3327296940750844e-10  4.1382891729040721e-10  5.4186770253492094e-10  1.4484792170889058e-10  6.6643807241716641e-10  1.9380131449818102e-10  4.7154313445463884e-11  1.2678354405101890e-10  1.3167138079260094e-10  3.1618808586230164e-10  7.8670068154883067e-11  2.6186230406468201e-10  1.9509837332639295e-10  8.1770119807789593e-12  2.6148996387178623e-10  5.8110032025450673e-11  9.0108882455834537e-11  1.2396040411269959e-10  6.3773667589461619e-10  4.1489631898610868e-10  3.0676870633374994e-10  1.1688739679996018e-10  1.3155437030931512e-10  9.2090186844337063e-10  5.5227391860731983e-10  1.3418669067881759e-10  1.4232405740888826e-10  9.3699052962138431e-11  4.8623488622395065e-10  1.3723934644241319e-10  1.7323011847194928e-10  9.4407914113804269e-11  7.0752471691067810e-11  6.3466815290125436e-11  1.4946891457040409e-10  9.7631033714462777e-11  1.2844643765299828e-10  4.2765541838374995e-10  7.6320599833103863e-11  6.0179243442122859e-10  1.2594097258684835e-10  2.2313788107697740e-10  2.7841519010649287e-10  5.5846238774015668e-10  1.1572347986355592e-10  4.0762124609562274e-11  6.2716369232494229e-11  1.4156023411985805e-10  1.5858141190326391e-10  5.1164634302539801e-10  8.4402208439903641e-11  1.6061322872108948e-10  2.5055298434531435e-10  1.3797733662585161e-10  2.3613163020851069e-10  3.3654346241347068e-10  3.1150335309758692e-10  1.0370562948473229e-10  1.7446906625986061e-10  1.4874545254549407e-10  2.2658175371034836e-10  5.5088199890903612e-10  3.7503479592416511e-10  2.0221602617350842e-10  2.0307927099549211e-10  1.2406609561873313e-10  1.7257815918169887e-10  3.0197169301866958e-10  3.8204073308549629e-10  3.6330785394880447e-10  1.6524202825251272e-10  2.1923372656688212e-10  1.9530724130301104e-10  1.5283278392713845e-10  3.9862969824641738e-10  3.1699535853793573e-11  1.0532111889924676e-10  1.2710149883816418e-10  1.6863780414390206e-07  4.0499653431500524e-10  1.7634882501846495e-10  6.0876965980832966e-11  2.5692317980334017e-10  1.3756235927892425e-10  6.4015044163680985e-11  1.0501856483362959e-10  2.0307442388104230e-10  2.0473780934296628e-10  1.9316841569214864e-10  1.8780557744828254e-10  3.0674919842539155e-10  6.4756239101709790e-11  7.9916480530044907e-11  1.8980985843691868e-10  1.2217357708153676e-10  3.5496708244174204e-11  3.9878835475046136e-10  6.4308978230680459e-11  6.1971027157725958e-11  1.9385861101092147e-10  9.8455733378187196e-11  2.3750123715161933e-10  2.9153905263976543e-10  1.2551208161233637e-10  8.0967990282967743e-11  1.8613521436620219e-10  9.6131778854077425e-11  3.2757519818206880e-11  9.0803504420189352e-11  5.8363365029764391e-11  7.8878396221449066e-11  2.2747609519465713e-10  4.7099121592296772e-11  6.6372758120385903e-11  9.4692304813233039e-11  9.3255930524091994e-11  9.3430892158615080e-11  2.5454944900385632e-10  8.7638353122595062e-11  1.8427586419971270e-10  2.0271195227272536e-10  9.9850245127964248e-11  1.6111467521543825e-10  3.1527214907161932e-10  1.2356151828431368e-10  6.2344715430838932e-10  1.6961880073437158e-10  1.4843346226018591e-10  1.3878283487331721e-10  2.2614649113650374e-10  4.4234005066216342e-11  4.0036847412911275e-11  7.6561354302056528e-11  4.3242160399946612e-10  2.0086259020552970e-10  6.4999211693436213e-10  4.4254116963072455e-10  1.2049676627386363e-10  5.4788041619529311e-10  3.6464272806644863e-10  1.8738151157098613e-10  7.0327497173275352e-11  9.3103319626817904e-11  1.7421596440247715e-10  1.8758512439205706e-10  4.1622409679337603e-11  5.0165098190526190e-10  2.8127060702593164e-10  3.4002390737893045e-10  5.3632110489143578e-11  3.4819614790429295e-10  2.6620140759202460e-10  5.9194108648283933e-10  7.2990259340782243e-11  6.1492163853190519e-11  2.3876090348104939e-10  7.2369516080365569e-11  4.2474764583435114e-11  1.4671496187174007e-10  2.4334491619210213e-11  6