<?xml version="1.0"?>
<VTKFile type="UnstructuredGrid"  version="0.1"  >
<UnstructuredGrid>
<Piece  NumberOfPoints="4852" NumberOfCells="9430">
<Points>
<DataArray  type="Float64"  NumberOfComponents="3"  format="ascii">-1 0 0  -1 -1 0  0 -1 0  0 0 0  1 0 0  1 1 0  -1 1 0  0 1 0  -0.5 1 0  -1 0.5 0  -1 -0.5 0  -0.5 -1 0  0 -0.1608775713298009 0  1 0.5 0  0.5 1 0  0.1967448868031411 0 0  -0.401023387592756 -0.2109003287189664 0  -0.3978774872722436 0.2649657859528632 0  0.2082497083993689 0.4037261537358902 0  -0.2191592701832849 0.6072659955969607 0  -0.5514044928942078 -0.5746863967387226 0  0.530218364579224 0.2881408043069948 0  -0.08503905017577396 0.2547083813427841 0  0 -0.5061325913258391 0  -0.25 -1 0  -0.6030172883598858 0.6142392619531456 0  0.6881545524300539 0.6683466645596127 0  -0.203950730114412 -0.5739538677756539 0  -0.60116649095943 0.03492979143091458 0  -1 0.25 0  -0.2656107230931911 0.02321796943557214 0  -0.6965849900181778 0.3458820006050597 0  -0.9999999999999999 -0.25 0  0.03994469650453972 0.6471527208380408 0  0.237046709771003 0.1476671108301396 0  -0.1547596777793343 -0.2677142170697056 0  0.4035866113924919 0.6604887067509583 0  1 0.25 0  0.5355652144809806 0 0  -0.75 -0.9999999999999999 0  -1 -0.75 0  -0.6916969935021324 -0.3521317121005848 0  0.25 1 0  -1 0.75 0  0.02757118475249542 0 0  -0.25 1 0  -0.75 1 0  1 0.75 0  0.75 1 0  0 -0.02898318711980711 0  0.077107192074444 0.1813854005535886 0  -0.1032594030203814 -0.04604875887655244 0  -0.7451932958844314 -0.1401179218876035 0  -0.371718245752199 -0.3925315786306655 0  -0.3913250440639267 0.4873596611920025 0  -0.1156994973699449 0.7973154959249034 0  -0.421687251643513 0.7352026235357381 0  -0.07055591058761317 0.4627672532151565 0  -0.1119541891025839 0.09425817609530496 0  0.4034475297475034 0.4173259907255942 0  -0.742398254245358 -0.7531728108216388 0  0.4417743380991324 0.09473245697437291 0  0.7126929768935968 0.2048686037861319 0  -0.7770526763584665 -0.5570538382611184 0  -0.4239832992428585 -0.7353080692139388 0  0.7443638962451503 0.4521727175377374 0  -0.8087993994304997 0.1128230160944017 0  0.2162506107205892 0.7406198737071915 0  -0.2448430980553969 0.3426558365085828 0  -0.8207725015554042 0.6032854910460038 0  -0.7405218885038276 0.7859063339384905 0  -0.05331940745865398 -0.4048779661161805 0  0.6057960933569323 0.8385205544397434 0  0.8332234456365617 0.8218309088168229 0  -0.1147605837445489 -0.7124744936442409 0  -0.5748165295311785 0.1941512348306526 0  -0.2581255295574479 0.1553271309079329 0  -0.4276306665866783 0.0914760583551215 0  -0.4337036009119661 -0.06280601773548804 0  -0.548014927965037 0.4391217441450468 0  0.375 1 0  0.9999999999999999 0.125 0  -0.01466245269671064 0.09993640357214223 0  0.07377158765547365 0.4560973085372816 0  -0.2099037931397444 -0.1627593716841161 0  -0.2706612293417365 0.8016108304997429 0  -0.625 1 0  0.5700901426776877 0.4981145513332159 0  -0.6010358173900534 -0.844820007215428 0  -0.277308098550796 -0.7998085053913718 0  -0.3647150218328874 -0.5484881407553358 0  0.8468959471970369 0.6188335871591741 0  -0.5785520056517492 0.81168194765468 0  0.125 1 0  -0.07736822677520835 -0.1211363713704845 0  -0.5577740610587482 -0.1603280949297676 0  -0.875 -1 0  0.04269407874377152 0.0542008307905954 0  1 0.375 0  -0.875 1 0  0.05890874387991702 0.8257130122715055 0  -0.2265737226619801 -0.4219405380894666 0  -0.09175949110832986 0.6263975565343251 0  0.267104167674671 0.5738782063250252 0  -0.8207434219034937 0.2536751459962802 0  -0.5490301139801977 -0.4279765466081433 0  0.000211842647021888 0.3321835814293739 0  0.5423920165088862 0.6796843575734912 0  0.420539464638183 0.8335308762556264 0  -0.8291579000347139 0.4519333747942438 0  -0.06331956405849656 -0.2516168728085654 0  -0.7520695689332403 -0.008560964401144228 0  0.1154022183490494 0.05836572780559932 0  -0.537664296615443 -0.2837370975663755 0  0.7347444568745803 0.08483414155891711 0  -0.8334259607158228 -0.4342985138215368 0  0.3803230896427494 0.1726741524190059 0  -0.8243983975624853 -0.2664721204660299 0  0.2827425204285496 0.2965954702821084 0  -1 -0.875 0  -1 0.8749999999999999 0  0.2093705092520787 0.04780329279204852 0  -0.2934184935621188 -0.2766494248328704 0  -1 0.375 0  -0.2196424641843114 -0.06502166496108794 0  -0.6873640009399737 0.5046957710765765 0  0 -0.07736776745332727 0  0.1032192273239196 0.3162123888790448 0  -0.375 1 0  -0.2605455898935628 0.4809709103095413 0  -0.1593501815131676 0.1911091958675724 0  0.1509984997636492 0.6107847820176551 0  0.169316179506182 0.2343168415646286 0  -0.5324122727906815 0.3101734253100975 0  -0.06881013300941054 0.01511418557145456 0  0.8622590402330644 0.3900508950354797 0  -1 -0.125 0  0.3011997812976658 0.8603104791649857 0  -0.1406194837952946 0.3738855748127335 0  -0.125 -1 0  0 -0.7575037395175259 0  0.07821397079968176 0 0  -0.9999999999999999 -0.375 0  -0.375 -1 0  -0.625 -1 0  0.7474787146812755 0 0  0.625 1 0  0 -0.2918843213980812 0  -1 0.625 0  -1 0.125 0  -1 -0.625 0  0.3284075310660084 0 0  0.004929205892015135 0 0  -0.125 1 0  0 -0.006571003003944568 0  1 0.625 0  1 0.875 0  0.875 1 0  -0.6011248710390675 -0.7048604609904647 0  -0.003355796782501487 0.2088170096731465 0  0.4090981596361602 0.2995172687323922 0  0.6817110558544411 0.321167276389429 0  -0.8702993584281181 -0.6671052889477614 0  -0.8756357146614615 0.7993630832613102 0  0.4691073912886182 0.5501136884784179 0  -0.421197882489753 0.8726703686128958 0  -0.7927488983883199 -0.8856928658987456 0  -0.8821269642498925 -0.7984065257290003 0  0.1633828603727948 0.8659932816476158 0  -0.7044923917849149 0.1794349201687326 0  -0.6361459728753658 -0.06739492262749469 0  -0.8776580983420293 -0.06116050532545043 0  -0.340317769330833 0.6090619936407162 0  -0.4699540480806487 0.612050408061134 0  -0.4325260601058904 0.3787811570077158 0  -0.670249681362293 -0.2368815324091236 0  -0.333228825544423 -0.1172694847902138 0  -0.6782702208910729 -0.621678192070544 0  0.8707459922367397 0.2753235866813502 0  -0.04152957971032883 -0.04304283287196545 0  -0.07535930880337212 0.1528707435543517 0  -0.165323267883888 0.4926894904415584 0  -0.1645812572555815 0.03567021320126145 0  0.5551681085010904 0.06671214941062319 0  0.6137533303199825 0.3975298393908347 0  0.7123432508611196 0.7981609299934386 0  -0.8063120847981072 0.8903570818481235 0  -0.6867166893798059 -0.4629765331507865 0  -0.1318175938949715 -0.4421476419665927 0  0.8802317959363049 0.5097968995663048 0  0.1047853023847071 0.115617399632953 0  -0.682940508594422 0.8810292450852435 0  0.496976925031253 0.3926817143022242 0  -0.04050438486326425 0.0511433283387238 0  -0.4609779041527746 -0.4819548771552087 0  -0.4184715250890826 -0.3104486454993366 0  0.3614708657973045 0.535261557100867 0  -0.2470333359020342 0.2462096051390114 0  0.7301524547225615 0.5660960870483293 0  0.30412631472131 0.4089972250248242 0  -0.3990719152052731 -0.8629063830619585 0  0.1181967275338143 0.7271004804024132 0  -0.3215097674177283 -0.6446126911845804 0  -0.4853803589807871 -0.6528079440378383 0  0.3224029811416718 0.7326489403949974 0  -0.8942267947067415 -0.1806925248246511 0  -0.1962894336983586 0.8750083241173822 0  0.4921627886750691 0.1824777453226144 0  0.3004266097067808 0.04599952227172453 0  -0.168004736734546 0.7017976792657725 0  -0.01922374720542799 0.7503183148741923 0  -0.05907287843064669 0.8942623680247487 0  0.002106240126835979 0.5332069570921736 0  -0.452863899729544 0.1843178998499446 0  0.577156155624267 0.1440286919801724 0  -0.5154614371751862 0.715162292619166 0  -0.8709065219152895 0.3554831579085078 0  -0.1077753128998672 -0.5668525147537411 0  -0.03365377980669997 -0.5721840348081884 0  -0.2486709408005438 -0.3383871156025042 0  0.875686083436811 0.1541394479917602 0  -0.1903112446110215 -0.6854493500061817 0  -0.9016490886735058 -0.5469268845143724 0  -0.3343138229681276 0.3904134742911644 0  -0.70971680329091 0.6071375372992904 0  -0.9092848865850932 0.548219704675766 0  -0.9093816523664245 0.6754966111909502 0  -0.6943797270491462 0.08932232010160024 0  -0.8811962532403366 0.03629982198607074 0  -0.9058522089364759 0.1795365009342237 0  -0.1669160679992714 0.2821499216840193 0  0.1865314026933731 0.5071090300974576 0  -0.04362450307698942 -0.1471311470353093 0  -0.7781106497500365 0.6946969042607027 0  -0.6367132531008837 0.7262301907347378 0  -0.3183295345102399 0.09517607848552248 0  -0.2859321694427231 0.689909466618861 0  -0.03924148975482795 -0.01148130585537658 0  -0.5163724032185433 0.8903202997027695 0  -0.5256068898749536 0.5344496019422876 0  -0.3542641284723859 0.1747191741476097 0  0.003872843345749689 0.03511056581657838 0  0.7972932162856772 0.7091235148303499 0  -0.496154619287771 -0.839175367658347 0  0.3193490161210268 0.2242631208725499 0  -0.1524731304041219 -0.8703079305375844 0  -0.0663735685787418 -0.8343372508725335 0  0.4723352464762823 0.7420702916861173 0  -0.1284781039193171 -0.3347809566307708 0  -0.3290547944655854 -0.03852615613795818 0  -0.9003197448736538 -0.9031092298154165 0  -0.6252304541439265 0.2734880508412144 0  -0.5415477906458718 0.1074955736160203 0  0.5125545102024938 0.8486945321280023 0  -0.02507662590559478 -0.2750083698025178 0  -0.3297884182191153 0.8907699853443216 0  -0.1924386668039956 0.1006238637248557 0  -0.5357803350647092 -0.0362819319602366 0  -0.4578760167654396 0.01576728462729385 0  -0.3588652110212612 0.03101580680863847 0  -0.4507862925359333 -0.142325867834205 0  0.8968539057444012 0.7136730238422898 0  0.8024256203904837 0.9190060403018062 0  0.608220780278444 0.2289771931158566 0  -0.6080579750425246 -0.5069392060936839 0  0.6265637678360024 0.7381506083455296 0  0.6919962535966758 0.9008386375687434 0  -0.06673610875987127 0.3658082170958515 0  -0.9081055899499657 0.9097779658716534 0  -0.1613749998983338 -0.09854244143623084 0  -0.2001423925174239 -0.2303502280123434 0  -0.3054144001352638 -0.1820526772929768 0  0.05092258355030196 0.2543671965741079 0  0.906984159759
[...]
<PointData  Scalars="w"> 
<DataArray  type="Float64"  Name="w"  format="ascii">8.0908318806152292e-11  9.0287946932325469e-12  4.3539904415273069e-10  1.4162865783982057e-08  6.0255182050045419e-10  1.5012090592828412e-12  8.0534509888481698e-12  4.6056497379734160e-11  2.2649173816772766e-11  1.4617986493483308e-11  5.4173432274313663e-11  6.0082106073931143e-11  2.8447609855659700e-09  1.3813871899314646e-10  6.7439577879923823e-12  3.6204526150899232e-09  1.0189891559741147e-10  6.3953678173474121e-11  1.3188351383391732e-10  1.9877300723192750e-10  4.1651346731080696e-11  1.0169226978891602e-10  7.8372781093266455e-10  2.0505343003874214e-06  4.1090401892695998e-10  5.6944427042775709e-11  5.6086663326261504e-11  1.3168216334389452e-10  5.2556352472615115e-11  1.3997582235200970e-11  6.2349649683625283e-10  5.3315763651510346e-11  1.1873130409130256e-10  1.0816097110603992e-10  7.3831187059174967e-10  2.7381497411468383e-10  4.7724968586253496e-11  3.1780727842547240e-10  5.7062626600087844e-10  2.0813217644085712e-11  2.5991940109726898e-11  6.2507859733722617e-11  5.0519933105359717e-11  1.1379146522380294e-11  2.8504957826638097e-09  5.9245328575465978e-11  2.1737565850726668e-11  5.4618771612559454e-11  2.0535869590127380e-12  1.2938256137075968e-09  4.7256327535157045e-10  4.3857721437028115e-10  5.2071744733198496e-11  2.1714080514157460e-10  1.6534456993260857e-10  1.0008967304656865e-10  1.8223555220428270e-10  8.4711092236612540e-11  1.1817050860834080e-09  1.9822239674293703e-10  1.7296997367833033e-11  3.5507033313543309e-10  2.7188913523737706e-10  6.9689389918090731e-11  3.3492704044427033e-11  1.1523578310675217e-10  3.6362778923829945e-11  1.1577243602979708e-10  2.3750350790999364e-10  2.6721385389450705e-11  4.0543943559977149e-11  6.6395382805195468e-10  3.1212856872328023e-11  5.5783676051094419e-11  1.4396552454095019e-10  1.1903688803481603e-10  3.4618262049866389e-10  2.1677542744359386e-10  1.5170209201598226e-10  1.1260496396505426e-10  4.1352650140923701e-11  2.1146534500235497e-10  6.9818677293393418e-10  1.7076833044190219e-10  3.0806497828965672e-10  7.5545215496667155e-11  2.1558258398884115e-11  7.5422713796053953e-11  5.4773667859062821e-11  1.6769725660827147e-10  5.0207692160318006e-11  5.5808461702656826e-11  4.2667487335576146e-11  4.8494304947143840e-11  6.3312668004847336e-10  1.4005100859949929e-10  1.7381707854345572e-11  1.6191903492739602e-09  1.6343054494908395e-10  2.0481209536541861e-11  1.4146795459129458e-10  4.1341531241379409e-10  7.2126403866751174e-11  7.0500624858115074e-11  8.3363423595003101e-11  4.2976983234338212e-11  3.6270330737152691e-10  4.5453990224544547e-11  7.2811558472526989e-11  3.6518737000880051e-11  5.9527700593921554e-10  1.3022780088716976e-10  4.9711006977529313e-10  4.4582769760811941e-10  1.2384826461500833e-09  6.8441544383612762e-11  2.6402115280276703e-10  5.5743523372058942e-11  4.6344964967159377e-10  1.8531315981880496e-11  1.9205125407210034e-11  3.2380959704124088e-10  9.8748572867052952e-11  2.9693657879163842e-11  8.3008824379050635e-10  3.1896286717711145e-11  1.5040053687559633e-09  1.6775012375036745e-10  4.8405505096811604e-11  6.6658954368623382e-11  4.9657524072750530e-10  9.3911439157265438e-11  5.5564603159583172e-10  8.5491355933557791e-11  1.6109683962201810e-09  2.2200814660629598e-10  5.6146941832086944e-11  3.0847808408853234e-11  1.6790854549125031e-10  2.3015833786087439e-10  4.0646992847400980e-10  1.4378538304465827e-09  4.1216181824126830e-11  7.3032829103777230e-11  3.5501545887061490e-11  6.3596130180005135e-10  4.4491947145113535e-11  3.3591716854675748e-10  8.3659010063940204e-11  6.9648466853400215e-11  1.2139053785988694e-11  2.9431871089256615e-10  5.7531473768208517e-09  3.4263149494764223e-11  3.7596974055424986e-09  4.2965918735392164e-11  1.3083634988457229e-11  1.6388264590261436e-11  6.9726637772014947e-11  9.0040585470496932e-10  5.2607558471088227e-10  1.3024826877125333e-10  5.2096611837936864e-11  9.3436901274147278e-11  1.5010064135945922e-10  3.4417025273513826e-11  4.2028776571724460e-11  1.2534619695784522e-11  2.9914509246193451e-11  1.4497967079126330e-10  6.8933971975755433e-11  5.5277077671903801e-11  6.5670818229989412e-11  5.2425286204083396e-11  4.3169206339088777e-11  6.2950125254462652e-11  4.5603595074640427e-10  3.4434975500779169e-11  1.2839715158605569e-10  3.3633574154332784e-10  9.4716561115872870e-10  1.5539646689496751e-10  5.2756882564510441e-10  1.4955728876808679e-10  1.0696061516717942e-10  7.8829680201890745e-11  1.4984350105056694e-11  1.3910084181046482e-10  6.7883994432602561e-10  1.4352863454501037e-11  4.1523134501858635e-10  4.8769205343014568e-11  1.1157474253518643e-10  2.8698549975991533e-09  1.0036605966192598e-10  1.5848397768088446e-10  1.7746691854186782e-10  3.0444819087084559e-10  5.8321889769676021e-11  1.7971859524815920e-10  2.2447575758688248e-10  1.4873115601878732e-10  1.4655288338661503e-10  6.5219884789527771e-11  8.1966662644742298e-11  5.5210007382939917e-11  4.4558876756644747e-11  1.9344062502029415e-10  1.2622911924023003e-09  4.6291743778511988e-11  6.2524376718631420e-11  6.8193845308867033e-11  8.8064346216500184e-11  1.6401128607287742e-10  2.9046978718419487e-10  5.2986758267064119e-11  3.8725640429748693e-11  6.2041812053283875e-10  1.0144429060609312e-09  3.2238350710538960e-10  1.8316962530298409e-10  8.7130565160740836e-11  3.6869504044448165e-11  2.4948573981336249e-10  3.0599782153924082e-11  4.2422067468847695e-11  3.2955382536013455e-11  6.0566175010942552e-11  1.7239664994039787e-10  5.5333856031905533e-11  2.6523279654248470e-10  1.4026772781867850e-10  1.4792889687951841e-09  3.6633039795231986e-11  9.9860335397716773e-11  1.4134671827138407e-10  6.0816826632251397e-11  2.1413656444965001e-09  3.9198585399235215e-11  5.2150686292396718e-11  1.4854422936831327e-10  3.5613399580285431e-09  2.2475597700941666e-11  4.9330927672789792e-11  3.7986251689056441e-10  2.1010471476935533e-10  3.0349952264513471e-10  9.9424411450365811e-11  2.6383347117056863e-10  4.1796537268852084e-10  1.8886193180243329e-11  7.2240662234090286e-11  9.2522848039971652e-11  2.2473780890479380e-11  2.7214058825346836e-10  2.4740318947626281e-11  5.1757748501379163e-10  1.1732964217351060e-10  9.8021117883638410e-11  2.1981604455925349e-10  4.1989585178992019e-10  4.7583970057056653e-11  1.6954617470207979e-11  1.1590859704602893e-10  4.9988405571421133e-11  3.3250222427787867e-11  3.6206495651888022e-11  2.0274151625453116e-10  3.0212400439507343e-11  4.5400302226900346e-10  3.1015957822107068e-10  1.8060921848380019e-10  2.3088027689998007e-10  8.7529847432307978e-12  6.4832260618928907e-11  1.9492382164129750e-10  8.6133002815473841e-11  9.9923462193856578e-10  2.1532661215402039e-11  5.2042121220857513e-11  2.2983178931108583e-11  4.6024569941237427e-10  8.7789685905030930e-11  1.0592751522066975e-10  5.7293179626487632e-11  4.0891167819840854e-11  9.0229620579000019e-11  1.3373193236760105e-10  2.3957028412060957e-10  2.2425043787415988e-10  6.4480821882734317e-10  2.1270241063104563e-10  2.3324414262989404e-10  8.5381218979030163e-11  6.6468635220518427e-11  1.0911778665066281e-10  1.2482985496966767e-10  1.5883028673576964e-09  7.3542327509590747e-11  4.0096748148686806e-11  5.4976955303561959e-10  3.5014397518233348e-10  9.3157965090342430e-11  1.2626020024787697e-10  2.0173609029842052e-11  3.5012498810070257e-11  5.0775349466367701e-11  1.0536149665587701e-09  4.9124969095039785e-10  1.5351256345523950e-10  8.4069715055958016e-11  2.3004404931157523e-10  4.7671913800194544e-11  9.1037627616677942e-11  5.1802842578664869e-10  1.3083599879384971e-08  4.9285451955916136e-11  3.3942731854872272e-10  8.5144365035100420e-10  3.3352887541976757e-09  4.1982514758909167e-10  2.9551889763183349e-09  6.8648676722891544e-10  1.8412036690959954e-10  1.6763556990443310e-10  2.1599799922561968e-11  3.6548505257955430e-11  1.1073196945159407e-10  8.4215105242517277e-11  3.4808739337759186e-11  1.2444963711303845e-10  8.5323452590930409e-11  7.1797628669553658e-11  3.8899926234782955e-10  1.0427491985554158e-09  3.4434829112859570e-10  1.3603506195591084e-10  6.1302663021109110e-11  4.3533027342371878e-11  4.8288226731764701e-11  4.4180712650319892e-11  1.3113397368449289e-10  1.0922146339807608e-10  5.0218467617702185e-11  4.7710528446114858e-11  1.3536897325209010e-10  8.7154917860169085e-11  3.9440571979612540e-11  3.4566809619468597e-11  1.2460833913715598e-10  2.0175812601160332e-11  9.3791224729692003e-11  2.0703829180087686e-11  1.6902689120054418e-10  1.7643599573737729e-10  1.4376702187240140e-10  2.0915538667355920e-10  6.3443993201189881e-11  4.7735847881426789e-11  7.4422699905653609e-11  1.4624031427113881e-10  1.3229063299371634e-10  1.9988472258238857e-10  6.9371995157494164e-11  8.4508486256388940e-11  6.8966687533732683e-11  2.3277724782024193e-10  1.2962550311817368e-10  2.1501176180402854e-11  6.8100177352235549e-11  8.6474273263683444e-11  8.0281238835938940e-11  1.1069570593041936e-10  9.5192469200809448e-11  2.0177619285041764e-11  9.2493780709095507e-11  1.9372237192642684e-10  1.5023891118669477e-11  3.0367242925553441e-10  2.2163763063558874e-10  1.0673661205699925e-09  9.6806977145540935e-11  1.1453693780720354e-10  2.3730354190764346e-10  4.4031194773467937e-11  6.5181146317731813e-11  1.3838550383735454e-10  3.7368723834970200e-11  5.6753062330984873e-10  2.2374426596220613e-10  5.6367881112333466e-11  7.4128986948851878e-11  1.2660561690602015e-10  8.6812938714526110e-10  8.7539372798898826e-10  9.4832792277494261e-11  1.0140273184443409e-10  9.3143515636350712e-11  2.1018412924335808e-10  2.6880735669755553e-11  1.0426185473281288e-10  3.6531648646322777e-11  1.0844609534711705e-09  7.2578442212722175e-11  3.0155746488210769e-11  1.2076832611853901e-09  3.6564081758299037e-10  1.8667718662538591e-10  1.2912700719017449e-10  4.0315215638004103e-11  1.0034709456621136e-10  1.8802721707826844e-11  3.5443788435565412e-10  4.4244491237219026e-11  6.2058943961541815e-11  9.7456974180222768e-11  3.2745032646742825e-11  2.9946296486121315e-10  2.4051669978677053e-11  5.2465140425419584e-11  2.9090889095338051e-10  1.8829032385222499e-10  1.1852244672558623e-09  5.2244736733710269e-11  7.7767406710185795e-10  7.7669685958884756e-11  8.9062913545950837e-10  2.2561263972260517e-09  2.8468055050055192e-10  1.5603355531703506e-10  2.2384989553640629e-10  9.4799614732257233e-10  2.6458035231829422e-10  3.7179311577850673e-11  3.2235602056864425e-11  2.5652405612806485e-10  6.8270664933955147e-10  9.5936589226210487e-11  6.5509505996060282e-11  6.8316443607833341e-11  4.1381601901565718e-11  4.0731462407336616e-11  1.6652625553122217e-10  3.5554774570724359e-11  1.4793123148295922e-10  7.7665146115226729e-11  8.2684416163444306e-10  2.4966304143631181e-10  6.1148695862879886e-11  3.0984617207215253e-11  3.7025790449028319e-10  1.1158419974425993e-09  2.4783170802429129e-10  2.2398038770141646e-09  4.2331887875500893e-10  5.0434156954220506e-10  7.2640086601474580e-10  3.7001114527935862e-10  6.7359056178348811e-11  1.9761283702692543e-11  1.4999426502055874e-10  5.0851020998246408e-11  1.2145573123919071e-10  6.3012333934425568e-11  6.4683967953946687e-11  7.8247167827840037e-09  1.4225917913892651e-10  5.5101888331817635e-11  4.2537242065996347e-11  5.8039741540249703e-10  2.9445313689309879e-10  2.2490936908081471e-10  2.1437145916224564e-10  2.9038451976660455e-11  1.1878564089580552e-09  2.6221430904684561e-10  5.1382056753804450e-10  2.2843433467783803e-10  1.1991395720466230e-10  1.9379765797049098e-10  7.5466554885420926e-11  2.6162996111622835e-11  2.7345541469641511e-11  9.7205111409476463e-10  2.2552833769214977e-11  5.6636332733781982e-11  1.6642227777678455e-09  5.1927849959786519e-11  1.7747770679823660e-10  1.5930831444865109e-10  4.9476480718024331e-11  3.0424515881670288e-11  2.7722104701700693e-10  3.8618699207289142e-10  2.6347195790559570e-11  1.0421317804242438e-10  8.5381929421767635e-11  5.6072916071432568e-11  1.1169443955926908e-10  5.0145837739165281e-09  3.1656644721296954e-10  2.7842690372417436e-10  1.3359368442984149e-10  6.1528148653819618e-11  8.2017605424557841e-11  4.0367866134624247e-11  9.5452501971438062e-11  3.3605227183958839e-10  6.8484667823000150e-11  1.1425765694231666e-10  1.2325134255336287e-10  1.5211439823930348e-10  2.4119220747854469e-11  3.0212862245917115e-11  1.9797767965253383e-11  6.4723108194562961e-10  6.3746533639183547e-11  2.0602929606938698e-11  6.4965677787631452e-10  1.9207176928419389e-11  5.7479914700899624e-10  1.0470985470587529e-11  3.5119232343923402e-10  2.4455552277426175e-09  1.9163044057846982e-10  4.7400301734848087e-11  2.1902213231538036e-11  4.2580284252405445e-11  1.7377317027389199e-11  9.4971281448202999e-11  3.3617183068948588e-10  2.1299352108149773e-10  1.1244375900940537e-09  1.0117630332333156e-10  4.8621293180925311e-11  3.6871466898394095e-11  1.0034423469806286e-09  3.4302283709976038e-10  5.1800422175174070e-11  4.9074816297082550e-11  7.9764292155420465e-11  4.9715312718533986e-11  2.7123608256384225e-11  2.8186074547413547e-11  2.1368086007029846e-11  6.9894729371826258e-12  1.2806021263381076e-11  5.7880571738380265e-11  1.8159372627509704e-12  8.5552371832200671e-12  1.1339533427411010e-10  4.9984799309751915e-08  9.5787702577708696e-11  1.8942365064780514e-11  1.4337497173080939e-10  5.4403346275341362e-11  6.5823994300352024e-11  2.6097602401110817e-11  1.0833531007797068e-11  5.0468896508430522e-11  2.4108030853463955e-09  4.8432802945626818e-11  1.7303252281020244e-10  2.3614947319684345e-10  4.8242179863790219e-10  7.7687316803137826e-11  7.6239939025887338e-11  4.1594054582750095e-11  7.6863509108320836e-11  5.7774377965886702e-11  3.0366560698803906e-11  4.6200241339278534e-10  4.1661971612429929e-11  4.3287689500440921e-10  5.0545878442052022e-11  9.2986470590457029e-11  1.6028561690836265e-10  3.5012471130948548e-11  3.1141054999407884e-11  1.1205195794052435e-10  6.9722813183630103e-12  6.6725695305139188e-11  7.3599758322431396e-11  6.3716288010487762e-11  4.8802089948910370e-10  2.3629858389365282e-09  2.7305950388541042e-10  3.5070725627986275e-10  7.7982593000835145e-11  3.8238734939898745e-11  1.5211585423391242e-10  6.6002859057556268e-11  4.6822611713829476e-11  5.2355090179503721e-11  1.0403802275995595e-10  4.5649755552818206e-11  2.8766848144844745e-11  4.2258465045291535e-11  2.5217002211184632e-11  5.3680768092419138e-11  2.7476509206161214e-10  1.7104406515711569e-10  1.1257299283603331e-10  2.1107462651181216e-10  2.6473362747805077e-11  9.8119372997028521e-11  6.8336418971825180e-10  3.8093746502824520e-11  7.3284566023076882e-11  1.1551483150553716e-09  4.1286833484269808e-11  3.9442029587323331e-10  1.0645006699277078e-09  2.1748083308166236e-10  7.3545872335938095e-11  1.1752641975894756e-10  5.3256751665123003e-11  5.8826983371833334e-10  3.9171374164130201e-10  1.7526755515889547e-10  7.2222300863209337e-10  4.8194239671067662e-10  6.4355313115576170e-11  1.0114165791087849e-10  3.7778339802672287e-11  5.1157458981333139e-11  5.0359598674181721e-11  1.5478109212916349e-10  3.3104763273205886e-10  2.6813506899006492e-10  3.1397174431930208e-10  5.0703734826060869e-11  4.9865738277646660e-10  1.0265230197438585e-09  8.9901194001796390e-11  2.3760864989605907e-10  1.0857525773328624e-10  9.5826457960125349e-11  7.2131030704036814e-11  3.7735956236806483e-11  2.9177341264468324e-11  2.5760074223639829e-10  3.5347691152051033e-11  4.6837787122534774e-11  8.0150390400309348e-11  3.1691987435439260e-10  2.5779378484457887e-10  1.2113973753949881e-10  9.0708996955606068e-11  1.3162527582149335e-09  9.3805000144812781e-10  4.1689348846147251e-09  6.4069981806096704e-10  3.2268703239358478e-10  9.4793508369617834e-10  3.2076232662053042e-10  3.1778767175818302e-09  4.5525706783064203e-10  1.2958103393293100e-10  2.1228999479066341e-11  6.5531797339278832e-11  2.7869178342605261e-10  2.8978129943587224e-10  2.5615999203917436e-10  7.1148477049162607e-10  1.4666754075247653e-10  1.4798096115766783e-11  2.6671633361091151e-10  5.6412295493200290e-10  2.5497868572152732e-11  3.7822558108345549e-10  3.4646653759529615e-10  6.0114729910675454e-10  1.6608534301833704e-10  6.6990925290279223e-10  1.5709022967248405e-10  3.3676859860177865e-11  1.1814158712151920e-10  1.0199703222525586e-10  4.2892613704933576e-10  3.7283661860511396e-11  1.4100352897690808e-10  8.5983948673047035e-11  5.2714514421826942e-12  2.5273249566124727e-10  3.6795224907655697e-11  6.2265855036607641e-11  9.0604513351787006e-11  1.0968899124759734e-09  7.8180962169109526e-10  3.9151293778424576e-10  9.4791907457206388e-11  6.2565233322242042e-11  1.8572004327175735e-09  1.3428633925266522e-09  9.5044991933570212e-11  1.0351672722127954e-10  7.3724265891767927e-11  3.8750290319008924e-10  7.0649522857331118e-11  9.8629998490182589e-11  4.9704961543726000e-11  5.1064238420882323e-11  4.6016085449050080e-11  8.5558593668455324e-11  7.2052664944773913e-11  8.5889836548094032e-11  1.7066901157992813e-10  4.0476090324038825e-11  1.6916174738959794e-09  6.5468844096006084e-11  2.7757357629949000e-10  1.1080236449077354e-10  1.2171175398920875e-09  8.6104336589211879e-11  2.3787567600206948e-11  3.6117852921917215e-11  1.4032488898966940e-10  1.2918228216594683e-10  3.2750253454855370e-10  4.9538189832882387e-11  6.7470411924162123e-11  1.1635038515375750e-10  9.4909511364529520e-11  1.4205951448403232e-10  2.2838457995382280e-10  3.7833825249635863e-10  5.2118328351184984e-11  1.4082700733851573e-10  9.6125709137237477e-11  2.1723098707421003e-10  4.5463480618516589e-10  3.7039666015118204e-10  1.9217545891560369e-10  8.4356731976173082e-11  6.9496355215880842e-11  1.0347667336912433e-10  3.8027979032248163e-10  3.1021132850992609e-10  3.0249268003706049e-10  2.1885972673707205e-10  2.3214440556307587e-10  1.4055398138101054e-10  7.4616524629626288e-11  2.6381040556869203e-10  1.8803604790100088e-11  5.4120634725017552e-11  9.9103837419339093e-11  3.7704839144217242e-06  2.8820986935316257e-10  9.5265576539060645e-11  6.3020865857971746e-11  3.0285085217265751e-10  9.1608171577268248e-11  3.4535259644680666e-11  6.5017138938627394e-11  1.8881595496850949e-10  1.6096514466536871e-10  1.2819956122014947e-10  1.1668276294679580e-10  2.1875909198690661e-10  2.9123623029057178e-11  6.4328027347531589e-11  1.3633181385258169e-10  1.0214672921313259e-10  2.1439506576161238e-11  2.8447046297854393e-10  4.0640164142457949e-11  3.5629310907014101e-11  1.3133705472809234e-10  5.2444123526703414e-11  1.5630869057716494e-10  2.9394705756870224e-10  6.0862450993925221e-11  6.6912985256999526e-11  8.8972386941512223e-11  6.3577385538613083e-11  2.1103290334893851e-11  4.8133417970073286e-11  4.7842070012799579e-11  9.3405688472858879e-11  6.6141299399025173e-10  2.7039622819259711e-11  3.0942032141665228e-11  5.2540687695279888e-11  5.4532914267306717e-11  7.8977248932306721e-11  2.3870587334841389e-10  6.3104808309142395e-11  1.2672665392522288e-10  2.9261447555848853e-10  1.3970945630182505e-10  1.2570371393469893e-10  2.5214586889608452e-10  6.6960943013522234e-11  1.0017673195713345e-09  1.0360388298123694e-10  1.0293360821850864e-10  1.8227762657161500e-10  1.0289808409828095e-10  2.9644625333282063e-11  2.4123494758538274e-11  4.9263317749672557e-11  4.2054284097710370e-10  2.9396966188892525e-10  4.8078119424222720e-10  6.4587363969766822e-10  9.2875444675645907e-11  8.2078513234253210e-10  2.9808897952668721e-10  1.3379052420670427e-10  4.5073438148519865e-11  5.8257373040508860e-11  1.8872328863241867e-10  2.3133064535759679e-10  2.6842967475212827e-11  4.0851239586941411e-10  2.0378007362010102e-10  2.8137257102330193e-10  3.2585874917125877e-11  2.8450509049588881e-10  1.7206140780008103e-10  2.0987740484016677e-09  5.1823925652958099e-11  3.7484658860347036e-11  2.4956406394377745e-10  4.5618383723967998e-11  2.4752730725396976e-11  7.4247056264488334e-11  1.6339422011372620e-11  3