<?xml version="1.0"?>
<VTKFile type="UnstructuredGrid"  version="0.1"  >
<UnstructuredGrid>
<Piece  NumberOfPoints="4852" NumberOfCells="9430">
<Points>
<DataArray  type="Float64"  NumberOfComponents="3"  format="ascii">-1 0 0  -1 -1 0  0 -1 0  0 0 0  1 0 0  1 1 0  -1 1 0  0 1 0  -0.5 1 0  -1 0.5 0  -1 -0.5 0  -0.5 -1 0  0 -0.1608775713298009 0  1 0.5 0  0.5 1 0  0.1967448868031411 0 0  -0.3402105616563852 -0.1759202859157255 0  -0.3364936832655683 0.2238146242390782 0  0.173834423784974 0.3458664986260237 0  -0.1847777428504781 0.5546485953031535 0  -0.5033958730003655 -0.5373151297151252 0  0.490449765075777 0.2567011614213451 0  -0.06430013103826351 0.2008768482070432 0  0 -0.5061325913258391 0  -0.25 -1 0  -0.5611547427269208 0.5769520058531017 0  0.6613877978187369 0.6334888723774358 0  -0.1771537291049541 -0.5376340284706522 0  -0.5384680524926666 0.02499943564058914 0  -1 0.25 0  -0.2059208582823585 0.02361956569541719 0  -0.6542414859400483 0.3089725710745267 0  -1 -0.25 0  0.03911240876862723 0.5914180837082652 0  0.1950959149889922 0.1287282802907838 0  -0.1362073660911884 -0.2198379327738067 0  0.3708066505250008 0.6140673658914384 0  1 0.25 0  0.5355652144809806 0 0  -0.75 -1 0  -1 -0.75 0  -0.6446103235236739 -0.3229999122347434 0  0.25 1 0  -1 0.75 0  0.02757118475249542 0 0  -0.25 1 0  -0.75 1 0  1 0.75 0  0.75 0.9999999999999999 0  0 -0.02898318711980711 0  0.05422416087595942 0.1421867262736603 0  -0.07763132887859821 -0.02779483316340706 0  -0.7007690139150399 -0.1326141495409167 0  -0.321272564892166 -0.3472710715913827 0  -0.3397953503011655 0.4368402464616254 0  -0.09982020462864348 0.7639974412587042 0  -0.3828478362979838 0.7023983780784423 0  -0.05472969220412403 0.3986022021286397 0  -0.07884370450010401 0.07191416991949134 0  0.3587816131475887 0.3692095120654974 0  -0.7159331853216365 -0.7299067730255439 0  0.4118349849698587 0.08975653009371062 0  0.6899741684266493 0.1913736170277001 0  -0.7472068514270923 -0.5268939617553188 0  -0.3875243067563189 -0.7105760619162013 0  0.7215641842685943 0.4181942128055762 0  -0.775860868946994 0.09668577647446683 0  0.1966308982124333 0.6984372836461713 0  -0.1984295469797751 0.2881327907150379 0  -0.7987704862186047 0.5773454672261326 0  -0.7168892160058622 0.7662354826304434 0  -0.05088867199740238 -0.3732353676692381 0  0.5846475482338085 0.8165364200750763 0  0.8204385744886605 0.806129391422691 0  -0.1059793708692988 -0.6974246820513734 0  -0.5140634507086224 0.1622517601064183 0  -0.2016074445416444 0.1254027044493292 0  -0.358805952685316 0.07494761450390074 0  -0.3647113852628172 -0.05259699498211337 0  -0.4963314878880718 0.3945038682356884 0  0.375 1 0  1 0.125 0  -0.01183835810134768 0.07123580883595471 0  0.06206119310574525 0.3915788746248752 0  -0.1711374212475104 -0.1224485652259376 0  -0.2427755113593392 0.7734737248745298 0  -0.625 1 0  0.5333155718030657 0.4537932330626963 0  -0.5759104455064937 -0.8300489057510909 0  -0.257917778401747 -0.7836704193911774 0  -0.3196943990301832 -0.5082980596447141 0  0.8339865326284169 0.5950124211781469 0  -0.548515388970556 0.79067031930596 0  0.125 1 0  -0.0673607546342843 -0.09341312128446239 0  -0.4941269746182422 -0.1434658780286767 0  -0.875 -1 0  0.02957276869019698 0.04161736376909885 0  1 0.375 0  -0.8749999999999999 1 0  0.05729680846237156 0.7938263491932664 0  -0.1962077498920725 -0.3734748215082812 0  -0.07272873177536868 0.5707873685307243 0  0.2362629756592565 0.5176069226509654 0  -0.7920373957230548 0.2291287978725044 0  -0.4946684998196983 -0.3889902380733314 0  0.0001326566313627 0.2709384984268989 0  0.5097302513889971 0.6398326210524707 0  0.3987534047289468 0.8071710189627325 0  -0.8059050900538953 0.4242893981728215 0  -0.06428229792460087 -0.2205192208144585 0  -0.7092968350891594 -0.01450268805733571 0  0.09053911035730673 0.05245128966636466 0  -0.4776866305818658 -0.2513794372404979 0  0.7238842874049812 0.08275441538781889 0  -0.8084118642223393 -0.4109759603934455 0  0.3375124624129085 0.1534155721674522 0  -0.7942081750480533 -0.2509074855215281 0  0.2362691923095757 0.2540960546758135 0  -1 -0.875 0  -0.9999999999999999 0.875 0  0.1843329032321421 0.04785930694989427 0  -0.2471356850370244 -0.2291336889090494 0  -1 0.375 0  -0.1708613414505315 -0.04186372349368148 0  -0.6486068324993718 0.4670472251403503 0  0 -0.07736776745332727 0  0.08039878559667163 0.2597449529070553 0  -0.375 1 0  -0.2166703252432374 0.4243742867475749 0  -0.1199305739501194 0.1500223688025744 0  0.1331337652363521 0.5538806733831774 0  0.1319263602636078 0.1936789188185246 0  -0.4743861586051121 0.2689820768943503 0  -0.04615439585422521 0.01395066838457652 0  0.8514269700517152 0.3699868800052847 0  -1 -0.125 0  0.2854521458493102 0.8368211211336545 0  -0.1106257674876608 0.3127790803601366 0  -0.125 -1 0  0 -0.7575037395175259 0  0.07821397079968176 0 0  -1 -0.375 0  -0.375 -1 0  -0.625 -1 0  0.7474787146812756 0 0  0.625 1 0  0 -0.2918843213980812 0  -1 0.625 0  -1 0.125 0  -1 -0.625 0  0.3284075310660084 0 0  0.004929205892015135 0 0  -0.125 1 0  0 -0.006571003003944568 0  0.9999999999999999 0.625 0  1 0.875 0  0.875 1 0  -0.5623239120906809 -0.6763017667275971 0  -0.004660780653017818 0.1601814187952154 0  0.3623369019387429 0.2627700425873615 0  0.6529908712548738 0.293521468606779 0  -0.8545155804786234 -0.6466679633684517 0  -0.8637643196809304 0.7874226411012394 0  0.4302399413702852 0.5010581356471283 0  -0.3982528374784318 0.8557938790579588 0  -0.7788940979879622 -0.8746825189610065 0  -0.8704042399231713 -0.7844559215583878 0  0.1542068266004415 0.8421254662129268 0  -0.6582405904079752 0.1523124573480831 0  -0.5772155296933845 -0.06452573647268238 0  -0.8544186664807645 -0.06270621754466192 0  -0.2956548948104034 0.5618674973462299 0  -0.4233843760664047 0.5695832826227655 0  -0.3757270208038435 0.3306524668779053 0  -0.617899070784881 -0.2165024468840034 0  -0.2724848860086247 -0.09023102265553525 0  -0.6397289811807382 -0.5884436522402705 0  0.8597379150439689 0.2657778853300108 0  -0.03279597844497627 -0.03292370197855544 0  -0.05469694773171678 0.1145518392077525 0  -0.1335499229719732 0.43175916221766 0  -0.1196721071875708 0.03236233734045341 0  0.5377775414701341 0.06452539724224998 0  0.579228810462617 0.3590058303031172 0  0.6913452346901932 0.7747712838909017 0  -0.7940281561690088 0.8812322686879196 0  -0.6429177725064774 -0.4290505136097586 0  -0.117245298295682 -0.3967530902766011 0  0.8722044792040067 0.488554720306667 0  0.07598197407372261 0.09387091525154362 0  -0.6647802853094982 0.8682747650290573 0  0.4545412914651067 0.3503530544540835 0  -0.02627753137740734 0.0358642321636776 0  -0.4087225857649754 -0.4402373514459368 0  -0.3614304898748248 -0.2688907071081917 0  0.3233555391684388 0.4816142640476738 0  -0.1958684397848682 0.2012710813401024 0  0.7056372715149848 0.5304908125593243 0  0.2616771854208252 0.3559546245468428 0  -0.3768060830118789 -0.851805630456952 0  0.1090914926010072 0.6818836586761821 0  -0.285129860208208 -0.6118864074934759 0  -0.4410424863978907 -0.6200083039481077 0  0.2960472824725184 0.6922395944037454 0  -0.8746936860648648 -0.1748980396600805 0  -0.1800313059753861 0.8549717004581346 0  0.4547284072608886 0.1632647628270013 0  0.2802891538997785 0.04666502580001808 0  -0.1421792411270884 0.6572962472513511 0  -0.01137433955221679 0.7085055133918047 0  -0.05332895665835329 0.8750667466837843 0  0.005401039685949544 0.4696805092705413 0  -0.387418529865246 0.1531353418500804 0  0.5491843673206667 0.133090557926097 0  -0.4756961602602216 0.6822656799071644 0  -0.8513894970167223 0.3327351894030779 0  -0.09204913791054438 -0.5362957200363261 0  -0.02566626095245844 -0.5524247684779819 0  -0.213479608559287 -0.2876379685217464 0  0.868533807426479 0.1514609644694456 0  -0.1705911414752684 -0.6610277997105414 0  -0.889099082581742 -0.5284694834383302 0  -0.2814544170545203 0.3380406591550962 0  -0.6761881306243001 0.5739775819743869 0  -0.8973875351448096 0.5314746151056962 0  -0.8984738287367797 0.6611413931686806 0  -0.6441097383183949 0.07198158954682707 0  -0.8590475837103532 0.02839487685228063 0  -0.8880756528355106 0.167684563775704 0  -0.1300246866904688 0.2288438412780955 0  0.1602576631110199 0.4461316970889264 0  -0.04350660666548219 -0.1257834118346591 0  -0.7535155848909656 0.6699841703994373 0  -0.6024927266214957 0.6977756198452619 0  -0.254214155837494 0.07834228784773711 0  -0.2491655995375654 0.6486765947504398 0  -0.02741591061062622 -0.006336211623470623 0  -0.4944406624232198 0.8769846793525226 0  -0.4767295909876963 0.4902459554327254 0  -0.2902183685043896 0.1437955343477372 0  0.002283491791788766 0.02364513397872952 0  0.7795149528078964 0.6835690716357012 0  -0.4698300466836362 -0.8247989212930678 0  0.2719122215582843 0.1949581687662844 0  -0.14901154457077 -0.863382083975472 0  -0.06498642609745564 -0.829587219363631 0  0.4431846251310498 0.7059194311489683 0  -0.1175121982044321 -0.288096522393859 0  -0.2646689641845905 -0.02635922396467991 0  -0.8940073021137035 -0.8965540736726069 0  -0.5726514674817601 0.2368528883272826 0  -0.475826186471198 0.08719744090343272 0  0.4912148075502161 0.8258431003218804 0  -0.02841677098255785 -0.2604495998973005 0  -0.3100941831644721 0.8754630474014808 0  -0.1429263957306904 0.08047181721922132 0  -0.4689637318533028 -0.03521297216914878 0  -0.3877019968942699 0.01181997574619465 0  -0.2915241941948626 0.02734387227774373 0  -0.3845616297310689 -0.1206875068201287 0  0.8881911525636492 0.698112631879332 0  0.7930357596718313 0.91101472441444 0  0.5766749490953338 0.207756887285765 0  -0.5595960316401084 -0.4692978988255054 0  0.5987868329230428 0.7058949149676398 0  0.6782879304778128 0.8884980150922864 0  -0.05102453741776704 0.3030735221264731 0  -0.9025033480979717 0.9049104031473474 0  -0.127386984469373 -0.06716070571760037 0  -0.1688343926360194 -0.1825928374210444 0  -0.2520528933426801 -0.1438479421453526 0  0.03705582890357201 0.2016316629912967 0  0.90207
[...]
<PointData  Scalars="w"> 
<DataArray  type="Float64"  Name="w"  format="ascii">1.7431662290809134e-10  1.0202835135082640e-11  4.4429996282674430e-10  2.6562208758411071e-09  6.2414805546852325e-10  1.5421173925282849e-12  8.6207994425439162e-12  7.4585496812089280e-11  4.0359917320588103e-11  2.1160236654346246e-11  1.0861379416409126e-10  9.6151430695101450e-11  4.0393802989622959e-10  2.7679517682053295e-10  9.0765783201286178e-12  5.2510764828601956e-10  9.0801127918296894e-11  7.2370073960128610e-11  1.3063755623501833e-10  3.5673614246493828e-10  6.6894220686848641e-11  1.0354648264526114e-10  5.7327022758442894e-10  4.4488516384788116e-08  5.7486318867684702e-10  1.0903875514562820e-10  8.9516326473341559e-11  1.6960780243639289e-10  7.6752874607557980e-11  1.8792401033414291e-11  4.6803551961674320e-10  9.8420583158741932e-11  2.4474121970056747e-10  1.8146161750713361e-10  4.5450219511461460e-10  2.2492139398302439e-10  7.8391277378442879e-11  4.7978980523291174e-10  5.8662762080533438e-10  3.1074443728295715e-11  5.1923823694592521e-11  1.0867320755793497e-10  9.2442668765923683e-11  1.9203017986698813e-11  1.0521905737426109e-09  8.7994066871488496e-11  3.1841463047793586e-11  9.5764988008554144e-11  1.2595859844946481e-12  5.8946783237962883e-10  2.2061859576134557e-10  2.1342514468458821e-10  8.2770303159974200e-11  2.5162845802722930e-10  2.5933437808692164e-10  2.0704007174131780e-10  3.6030083343056286e-10  8.9050392577648681e-11  5.7766532965761269e-10  2.5137991024196318e-10  3.1557198931902709e-11  3.1429783934973361e-10  3.7836202225095741e-10  1.4416194443909307e-10  5.3847709987771204e-11  1.7843128030152149e-10  7.0668632645675601e-11  1.7972815792240880e-10  2.3376683314676706e-10  4.5828810516282411e-11  6.5262603577588323e-11  4.4427571218319021e-10  5.7080224252667247e-11  8.8455361949638823e-11  1.7736906522626735e-10  1.7079112891354439e-10  2.5575091750865585e-10  2.9014542515384563e-10  1.8311818629403865e-10  1.9715460847080640e-10  6.4806616416320925e-11  2.5179301348278900e-10  2.6245689200480792e-10  2.0080811076056518e-10  2.3334551082404351e-10  1.2559764748862275e-10  4.5848371002805026e-11  1.1010840880315263e-10  9.5132628254991494e-11  2.5128821312590520e-10  6.8699990528466591e-11  1.0015534890448865e-10  7.8705691752932964e-11  9.4269259728933754e-11  3.8808323417868498e-10  2.1006040422591667e-10  2.5306463326125832e-11  6.5382922388655934e-10  2.5738489114014260e-10  3.1089373689410928e-11  2.7796145625856467e-10  4.1232854211911190e-10  7.1012793736379458e-11  9.6658044859626540e-11  1.5713035654259954e-10  6.3418194968221412e-11  2.7390309586528344e-10  8.3847739048331407e-11  1.4844338097986065e-10  6.6299719887778409e-11  3.1109798456517898e-10  2.4962811544547887e-10  2.3181725087358558e-10  6.4653457682419169e-10  1.2117739746227023e-09  1.4868779248798476e-10  1.6488663829325401e-10  1.0185386618632630e-10  4.5808199288783528e-10  2.5796493023225757e-11  2.5308385662400137e-11  2.7783589189517205e-10  9.0880962939807547e-11  6.1388823426863705e-11  5.0070250277497238e-10  5.7442044744992220e-11  5.9620454352547927e-10  1.1806848909623981e-10  7.6884574357185766e-11  8.2433358486089837e-11  3.4129060891180978e-10  1.7251612035835744e-10  4.6497842214354547e-10  1.3476592624129453e-10  6.2127979070417704e-10  4.4786265491540980e-10  1.0906852940116573e-10  5.1952820925030132e-11  1.2991074168610041e-10  2.5811258765040806e-10  2.1502235005393261e-10  6.0464772122202685e-10  9.3544379548444148e-11  1.1843457407616363e-10  6.8099132827598590e-11  6.5563843339916882e-10  8.5754278829686791e-11  3.3363338066757754e-10  1.4728173990879675e-10  1.2391372343749058e-10  1.9952128748416126e-11  2.8305553770600455e-10  1.5844822644337373e-09  5.6632222937259106e-11  9.6371292038376213e-10  7.8747683274606864e-11  2.3727272619509993e-11  2.3536863051018072e-11  1.2271795916914389e-10  5.5909511570098254e-10  4.4262513304245438e-10  1.6101499491850861e-10  1.1577547082057885e-10  1.6617370946613439e-10  1.8846961782158805e-10  5.8494863081549545e-11  7.8168644307326890e-11  2.0209969022468929e-11  5.9864851646723966e-11  2.9738733240220807e-10  9.1875044100433975e-11  1.0622028496950053e-10  8.2304698355642854e-11  9.6884364915082154e-11  5.3251943359932199e-11  9.5929070460322991e-11  4.5561574571073131e-10  5.7040804539979629e-11  1.6398193320311377e-10  1.7151593827369195e-10  4.6321693875777251e-10  1.9874885643293209e-10  2.8189017825517047e-10  1.4254771377553785e-10  1.4518138535975494e-10  1.5263579516138191e-10  2.1217217162860500e-11  2.9070219961167036e-10  6.6516783001800259e-10  2.5509896023555415e-11  2.5070720981073636e-10  8.9875963207193990e-11  1.5813015916757549e-10  1.1109419341946701e-09  1.3676642786660104e-10  1.6284327027379119e-10  2.3491649406285937e-10  2.8713091179830160e-10  1.0656166654565535e-10  2.0439954761117986e-10  4.1876208206945232e-10  2.2042307301158971e-10  2.3947624466513786e-10  1.1032209369648951e-10  1.1292757002956577e-10  1.1327830027707346e-10  7.1568058991241594e-11  2.0836101132862098e-10  8.8379138547874802e-10  7.7981717602533662e-11  1.0781012261449140e-10  7.7885963203255768e-11  9.7026686098743871e-11  1.6232853315907409e-10  3.7732730838516135e-10  8.0121936908596494e-11  8.5828312513647544e-11  8.3760993953383193e-10  9.1558524967851551e-10  2.9176452300514857e-10  1.9945007901772857e-10  7.6602930546442515e-11  8.1452947501427984e-11  3.3801869131075897e-10  5.8972918346201177e-11  8.4207576911186318e-11  5.0161644015827491e-11  9.3912462392072096e-11  4.1663099044491936e-10  9.0704765042084635e-11  1.9694096618184989e-10  1.6654961364041456e-10  9.0054468631418667e-10  6.2004902746226674e-11  2.0077598494378238e-10  1.1531213413718186e-10  1.1253561460376995e-10  7.4966054029649483e-10  7.5874155865046918e-11  8.5874688837693020e-11  1.1794101043318255e-10  1.1165943138078306e-09  4.1184378001948399e-11  7.7380037637314406e-11  2.7856051981324279e-10  2.5463436423792872e-10  3.5458928008345054e-10  1.8467590504403587e-10  2.0468846241130255e-10  4.0429291259544010e-10  2.9315160781568103e-11  1.0593398338285002e-10  1.2856158725565641e-10  3.7681991618007113e-11  2.7489961097596153e-10  4.3441699614694585e-11  3.3394460369248763e-10  1.3575643761309992e-10  1.1033590064472940e-10  1.9112202303953039e-10  5.0410577067489460e-10  7.3870443855860557e-11  2.6940631025161062e-11  1.4440997274094686e-10  8.2412471617919144e-11  5.9986038872577000e-11  7.6581656201672018e-11  1.7855595250422342e-10  4.8261462646506725e-11  2.6364777407020487e-10  2.5379725054858049e-10  1.2819583258308908e-10  1.2850652956159115e-10  1.3512373080370683e-11  7.1257514290009142e-11  1.4644703545560826e-10  1.6942433247916558e-10  4.9685093472483405e-10  3.6847014975832829e-11  8.2389408224543147e-11  3.3208157433737954e-11  2.3808037301349250e-10  1.2592810195562585e-10  1.8646954332565949e-10  7.5200062551458108e-11  8.8624260938463111e-11  1.2042723324640073e-10  2.0276689368596240e-10  2.2393271208103822e-10  2.6049920664493509e-10  4.3762319321768179e-10  2.1446407794052984e-10  2.0942913147499049e-10  1.4573199887819780e-10  7.9526941257294743e-11  1.6940493612760381e-10  1.6466140035122503e-10  6.2548352145278751e-10  1.3083160702635700e-10  6.2147852604213472e-11  4.0663248224586397e-10  1.8944360878481814e-10  2.1001848564398232e-10  1.2966763102922678e-10  3.2661914957101768e-11  4.4944480200862636e-11  9.8918186300320929e-11  6.7936576017219257e-10  2.9298416713244598e-10  1.8069883712581187e-10  1.3724028611939050e-10  3.3410004719078486e-10  6.7117430876335665e-11  1.0861774596256934e-10  3.5311643695823399e-10  1.2526684309775006e-09  9.9701339482934117e-11  2.8179904934779012e-10  6.1420258570845667e-10  1.2307718786172450e-09  1.9814709635866366e-10  1.5281391613248322e-09  4.1805195147188241e-10  2.2596752668145497e-10  1.1531621385157197e-10  4.1833676589310153e-11  6.6049319609279107e-11  1.2657021229961679e-10  1.5675296331965773e-10  6.3685399264613348e-11  9.8393460087400359e-11  1.0680620526935931e-10  1.2736378195481879e-10  1.9216748713581427e-10  4.9756819624579883e-10  3.1829722920025655e-10  1.6645610864708498e-10  9.6066041393334327e-11  6.1681038390091054e-11  5.9415629946484992e-11  7.1096093903097057e-11  1.8240529551940413e-10  2.2926741693613414e-10  1.0635215883714432e-10  1.0607115460698126e-10  2.3868764479778715e-10  1.3716307577197734e-10  7.0170643873251333e-11  5.9513558127335481e-11  1.0546670022621326e-10  3.4249879018527488e-11  1.8820269935571537e-10  3.3271931198735017e-11  1.6072343097795591e-10  1.7956243396013638e-10  1.5186443253671664e-10  4.0093198673973240e-10  7.9505195003362260e-11  8.3039546135278838e-11  1.4597813603063348e-10  3.1215805715061283e-10  1.4284809229095206e-10  2.6331173681957780e-10  1.1112113687679510e-10  1.3640304787941968e-10  1.5864595073447382e-10  2.7790854246696633e-10  1.2732150433755327e-10  3.3904028616712189e-11  1.1885417317002512e-10  1.1230445235130299e-10  1.4813081111424684e-10  2.5513488653890669e-10  1.7243273405764734e-10  3.5006289696063936e-11  1.2976977894079927e-10  2.3068801869424740e-10  2.8632171310084746e-11  3.2989911973906611e-10  1.6319750936752027e-10  3.8921455083160478e-10  1.1244511830090894e-10  2.3923229961913132e-10  3.2545881510772272e-10  7.5919086687208234e-11  1.0625490138306783e-10  2.2006690120511973e-10  7.3252756739805066e-11  4.8196828859866296e-10  1.5888199956363714e-10  9.8661591231065039e-11  1.0947752467599214e-10  2.1100699099038470e-10  5.4128590105024644e-10  4.7656350200019193e-10  1.7921674191420066e-10  1.7347161146718468e-10  2.1014917142308172e-10  4.0253841714721535e-10  4.5600963395355403e-11  2.2743206301096926e-10  8.2066494525364624e-11  1.2404624178841108e-09  1.1804893616119605e-10  4.6038045736078196e-11  5.4808415861120258e-10  3.3116882345232997e-10  2.4667926961556965e-10  2.1317981043874333e-10  6.4196621315328529e-11  1.5396052044508750e-10  3.3772936846161233e-11  4.3844725683704592e-10  8.2406606630292506e-11  1.3710841650652314e-10  1.2775438463371826e-10  6.6402360630299675e-11  3.4836592619621902e-10  4.2975601147899852e-11  1.1810580559950121e-10  2.4399079473763664e-10  1.7836192051529859e-10  7.1133511878443278e-10  9.3492048933157039e-11  5.7547842686982965e-10  1.4921898673251643e-10  3.5384429799749677e-10  5.5093884523031912e-10  2.4301677544590252e-10  1.5481980941075760e-10  2.7204846749864575e-10  4.8117849824358126e-10  3.4665860373813325e-10  7.5485049133264194e-11  4.9806939358270061e-11  1.6329070433593855e-10  3.5690089503667712e-10  1.8757964214189154e-10  1.2681746651402787e-10  1.7159237067142706e-10  8.1986622436845980e-11  7.1923466071920439e-11  1.9963658461614478e-10  5.8392018564409417e-11  2.0801224992922359e-10  9.0876572083442115e-11  4.7989445613647707e-10  5.0022275672846143e-10  8.2474614357283516e-11  4.1588109706216449e-11  3.9720328557134945e-10  6.4833402308669538e-10  2.5839244335475493e-10  9.8637157823571783e-10  2.8732768527588201e-10  3.1665151982560767e-10  2.7299060099618094e-10  2.6561380607661627e-10  9.8127034118320634e-11  3.1075597010344716e-11  1.9445032117255557e-10  1.0538360629643777e-10  2.1513801162381931e-10  7.5392120801622147e-11  1.2551512323743706e-10  2.0561331326972078e-09  1.7661570466829768e-10  8.1170243102339490e-11  8.3421316157680017e-11  3.9938638019158553e-10  2.4191204561630441e-10  1.8962097584629300e-10  2.0760921741780621e-10  4.4905126639205170e-11  7.5472364746622396e-10  2.4233394689279932e-10  5.3533528695105294e-10  2.5081287201106839e-10  2.4182271349561577e-10  3.1317768944780224e-10  9.4468523161016152e-11  3.2893883543195060e-11  3.5724436929325717e-11  3.6836028825941120e-10  3.5364002421822360e-11  1.1615463285497708e-10  1.0199384885859201e-09  7.5161354009172627e-11  3.5176368076474149e-10  2.6378731261405316e-10  6.2282318860338248e-11  6.0285253958967531e-11  1.7898759006174124e-10  2.4541762588290367e-10  4.8898234441257219e-11  1.1304024348808576e-10  1.6200205696794768e-10  7.5595067928699227e-11  1.7164125714332205e-10  2.1210151811520047e-09  3.6868374944115070e-10  3.1915522860649857e-10  1.0687055096836319e-10  1.0859060593455436e-10  1.8783694523350764e-10  8.0240979812581846e-11  1.3449241021910492e-10  4.9804553173719374e-10  8.6824094030997755e-11  2.4235922891311390e-10  2.1702032017041533e-10  1.3892223757542105e-10  5.1010039107736187e-11  7.7252207608620966e-11  5.4981231013954783e-11  1.2262294890535803e-09  1.0658274365384911e-10  2.2039120644781192e-11  5.7035188343826938e-10  3.0493503785961804e-11  6.2092198310940469e-10  1.1664377034403385e-11  5.8921084665392273e-10  1.7557864387700835e-10  2.4718837476201926e-10  1.0539348086874573e-10  2.8343879738554235e-11  8.5950102246969795e-11  2.7918504793726490e-11  2.0800987600997225e-10  3.7242699488969203e-10  2.7095797944079257e-10  3.3016364060543087e-10  1.3519236904549803e-10  9.3663446910192079e-11  6.2856902198649103e-11  3.6193308463187971e-10  5.0469801815894886e-10  1.0668736202792409e-10  1.0109231048935706e-10  1.4688627550829731e-10  7.6853211012326591e-11  4.5645310759285633e-11  5.3825565741511838e-11  3.1283806251522748e-11  8.8469191449344872e-12  1.7646007641156876e-11  9.7638371960366354e-11  2.1322280817232148e-12  1.0484788276249433e-11  1.8593382581814860e-10  3.4926814392691510e-09  2.2372837341944315e-10  4.2042518486096781e-11  2.2012588184057012e-10  9.3955317750049260e-11  1.1300952605507210e-10  4.4244849323339856e-11  1.6797390764466559e-11  8.6506065034879987e-11  7.3132606514673837e-10  7.9896008504285412e-11  1.8382105568409058e-10  3.2466866012118295e-10  4.8725312297625684e-10  9.6186652505865392e-11  1.0193380686948208e-10  5.8348236300826719e-11  7.6819440721361942e-11  1.1177971142498797e-10  5.7889765681930379e-11  6.1883403810336091e-10  5.9245911356442053e-11  2.7708969980322203e-10  8.7947837782087355e-11  1.2777890216535738e-10  3.1275445516477642e-10  4.1622866314082489e-11  6.2670717375462213e-11  2.8693296039979388e-10  1.1853684452647433e-11  1.1419604361666025e-10  8.8058844318289480e-11  7.6653052401095994e-11  5.6104476277197443e-10  1.6162023797531293e-09  3.1599745295903180e-10  2.8836946966755195e-10  9.0512225536312662e-11  7.0173099918613823e-11  2.5550996670094000e-10  1.1847059841758544e-10  9.9943132178552510e-11  1.0479350053658137e-10  2.0039770508384599e-10  7.4631874373384974e-11  5.2745528940019863e-11  7.0331191639655718e-11  3.9821333155481997e-11  8.7075191210755779e-11  1.9077030323875186e-10  1.6221325325884354e-10  1.1144342960607100e-10  2.7791317928820335e-10  4.7385247685528977e-11  1.3658808474438479e-10  5.2139048778885927e-10  6.6761992815289837e-11  1.1701248801006824e-10  1.4012211431191975e-09  5.8539053850794204e-11  3.3543536196039555e-10  5.0990750198668867e-10  1.5751279630626878e-10  1.2864087569668770e-10  1.2554053034879624e-10  8.9694297272812666e-11  2.4869380584046926e-10  2.8524191726551296e-10  1.7767454813873833e-10  4.6657997598691658e-10  4.2301617857741731e-10  1.2262416891330706e-10  2.1212782742501671e-10  6.7235603410786597e-11  8.5340695184367786e-11  6.2831298353647116e-11  2.3998530221863925e-10  4.0037861276563519e-10  3.0760406815010159e-10  3.2397119549326043e-10  8.6196000704303348e-11  2.2681093176519135e-10  4.7795157996689716e-10  1.7314571069616648e-10  4.8287096914901456e-10  1.8281621951248904e-10  1.3785351398003082e-10  1.1137892783904827e-10  5.1287583519685402e-11  5.4804673482651483e-11  3.3169252869887557e-10  6.3167019818949485e-11  6.4859714156736482e-11  1.3010899999540576e-10  3.2048534534291418e-10  3.2056756250721023e-10  1.5737490832206860e-10  1.1737116741055495e-10  5.9028353616113905e-10  6.2620468437000524e-10  1.6045388861361061e-09  2.6813226572044608e-10  1.9883551585114273e-10  4.4296995258752669e-10  4.5456708017725326e-10  1.1698577264987570e-09  2.9623755075145765e-10  2.4805887561875671e-10  3.2931198578205326e-11  1.2989380132160660e-10  3.3497502273612783e-10  5.2849882202478377e-10  2.1319330755901790e-10  6.6517228909915550e-10  3.0624190912410889e-10  2.1191748133256474e-11  4.8092081138224374e-10  3.3296832297340225e-10  3.8750238684239160e-11  3.3280013421552218e-10  4.1338023536462037e-10  5.4240344949638553e-10  1.4552705854552092e-10  6.7168703912609395e-10  1.9486658655975677e-10  4.7304123450416422e-11  1.2726514579156870e-10  1.3270919978702351e-10  3.1453764086552138e-10  7.8803210616769188e-11  2.6683091924005579e-10  1.9553991959145395e-10  7.9666213693330985e-12  2.2376424463019696e-10  5.8276013855896650e-11  9.0239374594705874e-11  1.2451490333799082e-10  6.2984715246215694e-10  4.1186206363515195e-10  3.0381508251887017e-10  1.1677857977231408e-10  1.3317894268877367e-10  8.9866360751833660e-10  5.4019507712141039e-10  1.3493356051952211e-10  1.4196300070662536e-10  9.2575262295544263e-11  4.8728390942775029e-10  1.3987440216877992e-10  1.7557551715878065e-10  9.5749161611150924e-11  7.0646438194431047e-11  6.3673605655743687e-11  1.5093406142599890e-10  9.7708081838553210e-11  1.3019302255559431e-10  4.3876395866117184e-10  7.6677534754011239e-11  5.9608646367675465e-10  1.2859053439135520e-10  2.2385878634586756e-10  2.8341973745332453e-10  5.4984898803101067e-10  1.1599921381179157e-10  4.1256622113107989e-11  6.2915200634783426e-11  1.4143499224409426e-10  1.5828069544919114e-10  5.1884951980044015e-10  8.4229385685064266e-11  1.6158129926750890e-10  2.5155918705562044e-10  1.3672890019522472e-10  2.3624086037102970e-10  3.3080412486426582e-10  3.1131534802475534e-10  1.0593347926541398e-10  1.7559727958596888e-10  1.4901742465785775e-10  2.2797991492126616e-10  5.1475256165514047e-10  3.7370635042695850e-10  2.0184358162101026e-10  2.0701878436097955e-10  1.2529505297865182e-10  1.7202997197255030e-10  2.9961229484659770e-10  3.8161954957651861e-10  3.6187723961372010e-10  1.6549756264443938e-10  2.1949106660501786e-10  1.9379451050906235e-10  1.5469975292403861e-10  3.9973632062124578e-10  3.1471583637094713e-11  1.0593503520623197e-10  1.2646370351788687e-10  3.7059860189200225e-08  4.0704231902592366e-10  1.7830193644771526e-10  6.1050312578640198e-11  2.5659774894371334e-10  1.3872683260627769e-10  6.4553994432208182e-11  1.0601989152438999e-10  2.0257706048294451e-10  2.0650728222085328e-10  1.9443824034433460e-10  1.8991282628751176e-10  3.0850595699394505e-10  6.5125136420742442e-11  8.0276429870914226e-11  1.9236317744695341e-10  1.2209287127357065e-10  3.5486374799329143e-11  4.0305263624308555e-10  6.4695400248561804e-11  6.2210346617544434e-11  1.9339207329831798e-10  9.9049148682637078e-11  2.3814628454911713e-10  2.9321026450435990e-10  2.1788841217132045e-10  7.8018941947567725e-11  1.8778423117303033e-10  9.6730584903690760e-11  3.2456334975238123e-11  9.0642917540801941e-11  5.7931179167532524e-11  7.8137561009482355e-11  2.2551565839726900e-10  4.7473824247435554e-11  6.6577751342534708e-11  9.4732809956704745e-11  9.3763414888134041e-11  9.3915912902759940e-11  2.5814428905077435e-10  8.7493127356839476e-11  1.8308362207969212e-10  2.0064234050758568e-10  9.8237483561575660e-11  1.6058410408336594e-10  3.1504157174164144e-10  1.2448380688722463e-10  6.1473122891310526e-10  1.7187133630406926e-10  1.4959329865341545e-10  1.3864539725959560e-10  2.2932498850520245e-10  4.4105046592823607e-11  4.0043308997294818e-11  7.7224963816037813e-11  4.3586698802781985e-10  1.9922298600902952e-10  6.3668095243471950e-10  4.4161737990545841e-10  1.2140396895654445e-10  5.4672575851766294e-10  3.6539256389743568e-10  1.8972687602549175e-10  7.0849882657537129e-11  9.3659664211260975e-11  1.7375362849333258e-10  1.8768578500929657e-10  4.1225221985799807e-11  4.8300583451274288e-10  2.7680812229667255e-10  3.0878994368746541e-10  5.3286236585075228e-11  3.5265638829726396e-10  2.6591029238886857e-10  5.8137902716304723e-10  7.3880037781384271e-11  6.1574838858735073e-11  2.3901605232655818e-10  7.2979375399891999e-11  4.2556459039350737e-11  1.4817405308068203e-10  2.4181803060509122e-11  6