<?xml version="1.0"?>
<VTKFile type="UnstructuredGrid"  version="0.1"  >
<UnstructuredGrid>
<Piece  NumberOfPoints="4852" NumberOfCells="9430">
<Points>
<DataArray  type="Float64"  NumberOfComponents="3"  format="ascii">-1 0 0  -1 -1 0  0 -1 0  0 0 0  1 0 0  1 1 0  -1 1 0  0 1 0  -0.5 1 0  -1 0.5 0  -1 -0.5 0  -0.5 -1 0  0 -0.1608775713298009 0  1 0.5 0  0.5 1 0  0.1967448868031411 0 0  -0.3405863463936541 -0.1755898636398752 0  -0.336787126631711 0.2240281211809754 0  0.1735037441202157 0.3458908603181068 0  -0.1849311862156529 0.554783581781366 0  -0.5034599462434551 -0.5372053174250875 0  0.490260603162992 0.2565829922639317 0  -0.0647040371428068 0.201020323020306 0  0 -0.5061325913258391 0  -0.25 -1 0  -0.5609617624967184 0.5770304708206911 0  0.6612465461939416 0.6331411720767059 0  -0.1774018392354045 -0.5373420769390226 0  -0.5387702370675352 0.02522740080393917 0  -1 0.25 0  -0.2062216251518284 0.02388612062220776 0  -0.6543567834667862 0.3089126244019655 0  -1 -0.25 0  0.03899472326012147 0.5914699799541361 0  0.194683121313956 0.1288291043459564 0  -0.1366402586807117 -0.2195375634472126 0  0.3707546361346136 0.6139234581738674 0  1 0.25 0  0.5355652144809806 0 0  -0.75 -0.9999999999999999 0  -1 -0.75 0  -0.6447550193772584 -0.3229415199333072 0  0.25 1 0  -0.9999999999999999 0.75 0  0.02757118475249542 0 0  -0.25 1 0  -0.75 1 0  1 0.75 0  0.75 1 0  0 -0.02898318711980711 0  0.05370236892189485 0.1423077321004209 0  -0.07780062868230993 -0.02762637175871519 0  -0.7009328345294256 -0.1324924806254612 0  -0.3216962973415348 -0.3469284217758211 0  -0.3400000929951712 0.4370424891515506 0  -0.09988283390528957 0.7640777988672385 0  -0.3828436974088145 0.7023879286820339 0  -0.05504865317464403 0.398754838455298 0  -0.07911745614011878 0.07203908378534649 0  0.3585589988869718 0.3690504463685594 0  -0.7155459120632812 -0.7296630778938965 0  0.4116516069346567 0.08977295579369872 0  0.689894857519777 0.1912262750528781 0  -0.7470923402325653 -0.5267011221405246 0  -0.3874560721206132 -0.7104912747208995 0  0.7215351106225075 0.4178716403616254 0  -0.7759167017315165 0.096714192707265 0  0.1965064906854344 0.698345403613097 0  -0.1987714057910816 0.2883354906425692 0  -0.7986900233689542 0.5770852796108258 0  -0.7164125271332662 0.7660909904123644 0  -0.05333703205556561 -0.3731724381574592 0  0.5844295666444655 0.8160991080480261 0  0.8201319240046898 0.8054718602868699 0  -0.1064722439314328 -0.6972322040398599 0  -0.5143911605995212 0.1623476775447938 0  -0.2019458278216364 0.1256056384650453 0  -0.3591468844746021 0.07519994676291629 0  -0.3650385308414363 -0.05234587103157778 0  -0.4964163178478636 0.3946352841291649 0  0.375 0.9999999999999999 0  1 0.125 0  -0.01224062671079163 0.07125301330395301 0  0.06177680232568161 0.3916558041916935 0  -0.1714434790018038 -0.1221464266467745 0  -0.2426643445064369 0.7735301531043904 0  -0.625 1 0  0.5331367047576769 0.4535267868297919 0  -0.5756040157042216 -0.8299572855345858 0  -0.2577458714476376 -0.7836471394296658 0  -0.3199761781189778 -0.5080877738852896 0  0.8339132240006536 0.5946953939201524 0  -0.5483217966070518 0.7905928836506898 0  0.125 1 0  -0.0675557085005503 -0.093280795186196 0  -0.4943464129151835 -0.1432521005601013 0  -0.8750000000000001 -0.9999999999999999 0  0.02923388952638649 0.04170926781557385 0  1 0.375 0  -0.875 0.9999999999999999 0  0.05724974461851631 0.7938022183466387 0  -0.1968255912399411 -0.3730996908377623 0  -0.07287422643068671 0.5709022606759577 0  0.2361137238139098 0.5175347295173679 0  -0.7921820405908037 0.2290605660618808 0  -0.4948733320564871 -0.3888540988457931 0  -0.0002949334428762815 0.2710803300052114 0  0.5095860372239812 0.6395620313098563 0  0.3986268021109614 0.8069976705676144 0  -0.8060123127446848 0.424061819621544 0  -0.06465941361173165 -0.2203021552800995 0  -0.709465707888271 -0.01435822362982232 0  0.09021157651006761 0.05263301701734146 0  -0.4779294227439763 -0.2511561768943125 0  0.7238260805873722 0.0827004961402982 0  -0.8083679653168638 -0.4109032872887181 0  0.3372039853258895 0.1533888343597318 0  -0.794315356373189 -0.2507980489498562 0  0.2358779557001826 0.2541403146776763 0  -1 -0.875 0  -1 0.8749999999999999 0  0.1840675628715127 0.04795903254385789 0  -0.2475553971750235 -0.2287815389848707 0  -1 0.375 0  -0.1711295248893647 -0.04157052021064096 0  -0.6485537848613023 0.46704904622361 0  0 -0.07736776745332727 0  0.07994768530880386 0.2598389233202188 0  -0.3750000000000001 1 0  -0.2168221262466412 0.4245926219445625 0  -0.1202949620842498 0.1501839802513064 0  0.1329486134946634 0.5539108851494694 0  0.1314400306244659 0.1937770827682679 0  -0.474618987528827 0.2691623947977129 0  -0.04628350635515847 0.01401889543654866 0  0.8514770214966451 0.3697134211925011 0  -1 -0.125 0  0.2854307592573696 0.836665564874144 0  -0.1109557774223945 0.3129748735870461 0  -0.125 -1 0  0 -0.7575037395175259 0  0.07821397079968176 0 0  -1 -0.375 0  -0.375 -1 0  -0.625 -1 0  0.7474787146812756 0 0  0.625 1 0  0 -0.2918843213980812 0  -1 0.625 0  -1 0.125 0  -0.9999999999999999 -0.625 0  0.3284075310660084 0 0  0.004929205892015135 0 0  -0.125 1 0  0 -0.006571003003944568 0  1 0.625 0  1 0.875 0  0.875 1 0  -0.5621690431537076 -0.6761692461195405 0  -0.005162035831260126 0.1602866436497447 0  0.3620256533332466 0.2627559943573716 0  0.652877175468487 0.293359074692162 0  -0.8544400544594214 -0.6462932801158717 0  -0.8632891839854478 0.7868921775959886 0  0.4301612833209192 0.5008290374026885 0  -0.3983036888863689 0.8557612175432613 0  -0.7784363521778757 -0.8746493289837892 0  -0.8702519847909325 -0.7841048855136105 0  0.1540489396171838 0.8420947543155927 0  -0.6584370690941367 0.1523604975488201 0  -0.5774653963845503 -0.06427219821047038 0  -0.8544814482030162 -0.06268342569444872 0  -0.2957204880417544 0.5620308490080324 0  -0.4234075168191125 0.5697128436027399 0  -0.375949739098801 0.330806143179717 0  -0.6181090496695678 -0.2163784736754619 0  -0.2728393095204175 -0.08989533545846748 0  -0.6395791085958888 -0.5882672389009163 0  0.8597323022087486 0.2657275244184734 0  -0.03288227662846106 -0.03286197224436448 0  -0.05509436669551996 0.1146466776062021 0  -0.133795964087364 0.4319494038979636 0  -0.1199295542638893 0.03253847316614865 0  0.5376766787964772 0.06450449857294099 0  0.5790479787025723 0.358714861485282 0  0.6910862787605383 0.7743264227079839 0  -0.7932323179383851 0.8810592086125211 0  -0.6429279569973509 -0.4290022812520675 0  -0.1181303106566333 -0.3965225639752389 0  0.8722482466655933 0.4882282136232739 0  0.07548945873510166 0.09402144373367517 0  -0.6644115517698357 0.8680471805046371 0  0.4543529338403963 0.3501719010391873 0  -0.02648278327459761 0.03586819174145871 0  -0.4090116497978968 -0.4399978153978694 0  -0.3617784889105587 -0.2685728311453427 0  0.3231849979632764 0.4814314026103337 0  -0.196226705601122 0.2015056958160235 0  0.7055232222032298 0.5302065267891798 0  0.2613872950075997 0.3558743480219861 0  -0.3765397743420817 -0.8518450809550631 0  0.1090082859542497 0.6819059503778149 0  -0.2852684021460761 -0.6117777731375301 0  -0.4410415798252661 -0.6199072531649467 0  0.2959570621526337 0.6920689021888013 0  -0.8748169710646678 -0.1748323206563898 0  -0.1799525503106011 0.8549512581120206 0  0.4545131770186771 0.1631661871006316 0  0.2801228174029163 0.04671552048690576 0  -0.1422525735360763 0.6574329325473052 0  -0.01140976188816122 0.7085907316663314 0  -0.05332764641402804 0.8750191920780169 0  0.005169658673573257 0.4698093555930431 0  -0.3877229187468842 0.1533436961580625 0  0.5490193553762679 0.1330113422722871 0  -0.4755926125493367 0.6822712667081279 0  -0.8514711672848836 0.3325628850876405 0  -0.09288330107979695 -0.535896212993788 0  -0.02942644541163215 -0.5517190695572008 0  -0.2140115099954886 -0.2872468812745578 0  0.8685165830064127 0.1513768280614122 0  -0.170441310528409 -0.6608996770098883 0  -0.8890822599839652 -0.5282808936444396 0  -0.2817403745394018 0.3382358963142628 0  -0.6760475803799451 0.5738647188837451 0  -0.8974285444390592 0.5312552214876082 0  -0.8983112432416822 0.6607728775317235 0  -0.6443418796184935 0.07211892755072183 0  -0.8590846054605753 0.02839411607335815 0  -0.8881237183165384 0.1677355930278824 0  -0.1304087480239965 0.229033812440458 0  0.1599934601560311 0.446098268237949 0  -0.04364663912193684 -0.1257053535525148 0  -0.7532313865648277 0.6698534196716479 0  -0.6021690584801287 0.6977916080155373 0  -0.2545485019718397 0.07858094247535816 0  -0.2491555817802511 0.6487616620877881 0  -0.02748581979669083 -0.006307252880435511 0  -0.4941938421490739 0.8769953387447176 0  -0.476713596381312 0.4903418006108863 0  -0.290584271546301 0.1440306329696292 0  0.002066283255844314 0.02363176287053374 0  0.7793601485255207 0.6831196581226368 0  -0.4696376646225787 -0.8247107422889983 0  0.2715400179468441 0.1949600956436818 0  -0.1489032159224295 -0.8633206081091267 0  -0.06581078465813084 -0.8297305181466735 0  0.44309923736112 0.7056447925177316 0  -0.1181505113528217 -0.2878176700285022 0  -0.264993398889101 -0.0260738006429088 0  -0.8936775221508849 -0.8963938366091455 0  -0.5729023019399715 0.2368934312733519 0  -0.4761805328867339 0.08740012136225102 0  0.4909869713785083 0.8255563562117794 0  -0.02880902996988033 -0.2600869454727295 0  -0.3099219226901159 0.8753945423964911 0  -0.1432402533979547 0.08066151475057835 0  -0.4692823225202035 -0.03499667042407494 0  -0.3880203862243295 0.01206361698620134 0  -0.2918347861793607 0.02760115141024542 0  -0.3848844051770539 -0.1203947437365604 0  0.8881001460114843 0.6977279565768394 0  0.7924819264300991 0.9105555369470284 0  0.5764885277343099 0.2076119199727893 0  -0.5597361377385517 -0.4691754663548798 0  0.5986065198755719 0.7055279048994397 0  0.6780432613827206 0.8881189827054997 0  -0.05138759319547819 0.3032275981668314 0  -0.9021167474414873 0.9046063547835488 0  -0.1276323055560414 -0.06692089536288449 0  -0.1692068782133899 -0.1822801944770956 0  -0.25243029
[...]
<PointData  Scalars="w"> 
<DataArray  type="Float64"  Name="w"  format="ascii">1.7473068910937647e-10  1.0388936949919766e-11  4.4514603276002926e-10  2.6023553931106648e-09  6.2389505233312502e-10  1.5693201458180371e-12  8.6862435255530801e-12  7.4863245663020138e-11  4.0535600130597036e-11  2.1070208444087210e-11  1.0840837508800240e-10  9.6037493077142262e-11  4.0362782609406181e-10  2.7911484846709027e-10  9.1728304331750168e-12  5.2823509830164467e-10  9.0509353447358185e-11  7.2119066639628029e-11  1.3078863380091641e-10  3.5483575903995450e-10  6.6913184546009561e-11  1.0420190401948907e-10  5.7055369327695205e-10  1.0186538729641064e-07  5.7585140668541781e-10  1.0831805464752957e-10  8.9421146403817596e-11  1.7106158715563126e-10  7.6381299427350720e-11  1.8770101717096822e-11  4.6582676936587147e-10  9.7734349096242740e-11  2.4367356606604556e-10  1.8079280181583132e-10  4.5383639483757525e-10  2.2501718973879723e-10  7.8225713391645926e-11  4.7957742260754078e-10  5.8629242089940741e-10  3.1370207307451725e-11  5.3052452487323920e-11  1.0811040625633624e-10  9.2818755685961981e-11  1.9806819894510351e-11  1.0476023250157767e-09  8.7723029126499095e-11  3.2081104117808373e-11  9.7112830178671355e-11  1.2346870417749596e-12  5.9065492893536568e-10  2.2057365102239733e-10  2.1388036279987329e-10  8.2522980907990967e-11  2.5110743061953998e-10  2.5952337771890575e-10  2.0500012409952522e-10  3.5688628928935193e-10  8.8811752625852430e-11  5.7816193010425176e-10  2.5162992328269210e-10  3.1447643227577396e-11  3.1398326622628446e-10  3.7934577054798339e-10  1.4408163730535110e-10  5.4123517999983131e-11  1.7867830494698085e-10  7.0642471844542849e-11  1.7846102395917178e-10  2.3228420288460430e-10  4.6200461232226886e-11  6.4926027275963598e-11  4.2867652132412583e-10  5.7206767237020517e-11  8.8735010475661601e-11  1.7390453104119582e-10  1.6993245113214448e-10  2.5532911912920871e-10  2.8913695777238968e-10  1.8237779311222955e-10  1.9509072282080557e-10  6.5378466410083310e-11  2.5239618485243154e-10  2.6379046560887465e-10  2.0000130887281830e-10  2.3341419092431253e-10  1.2504422992617541e-10  4.6753253385890067e-11  1.1034618247989666e-10  9.4673210899213426e-11  2.5173356179609770e-10  6.9066952534536609e-11  1.0009478797165468e-10  7.8522528021557325e-11  9.4565129094363784e-11  3.8941737127019317e-10  2.0897096682123347e-10  2.5669126714723718e-11  6.5624811375617478e-10  2.5736578258058910e-10  3.1729339311721569e-11  2.7705698610880432e-10  4.1070750001975700e-10  7.0926899155739505e-11  9.7149037981654629e-11  1.5686986422246040e-10  6.3514548405677623e-11  2.7272882867870228e-10  8.3686038283697745e-11  1.4738033448295414e-10  6.6272106022403807e-11  3.1279492676340165e-10  2.4695035497086426e-10  2.3265135984923504e-10  6.4133044832919487e-10  1.2082540355760400e-09  1.4951725830848173e-10  1.6490814278670752e-10  1.0240583991906542e-10  4.5866604406439792e-10  2.6116619319645691e-11  2.5750781770334363e-11  2.7965184348021275e-10  9.0933567536594429e-11  6.1294785901895254e-11  5.0022889807871286e-10  5.7538030671967689e-11  5.9955654036132132e-10  1.1816151370518284e-10  7.6977386281031374e-11  8.2532400371280988e-11  3.4050086888843708e-10  1.7288228171682515e-10  4.6370782547983095e-10  1.3505702966112949e-10  6.2291126370814326e-10  4.4810796135196879e-10  1.0924326792308516e-10  5.2323311098946284e-11  1.2948165924496593e-10  2.5716973847171747e-10  4.2906642248311268e-10  6.0562876103678121e-10  9.3451052328705572e-11  1.1898295995701966e-10  6.9212327698053808e-11  6.5544093562877172e-10  8.7028025914991133e-11  3.3805622651922194e-10  1.4795087178961589e-10  1.2406626586540463e-10  2.0191027245591645e-11  2.8312823870801114e-10  1.5816834914174510e-09  5.6863150253033089e-11  9.7203687882944787e-10  7.9810517767044041e-11  2.4826556264528675e-11  2.4489006416739669e-11  1.2181469102725174e-10  5.5822743937334298e-10  4.4404310465835246e-10  1.6125975766877367e-10  1.1582473828790228e-10  1.6762245302448571e-10  1.8829860265896159e-10  5.8786422185273543e-11  7.8388177506093877e-11  2.0549561889838560e-11  6.0251794721407089e-11  2.9472618719211805e-10  9.2110651066276037e-11  1.0588466112367814e-10  8.2782399003355710e-11  9.6428123644479776e-11  5.3342404347854565e-11  9.5943110245393888e-11  4.5430125747694336e-10  5.7176351214951836e-11  1.6417663059017768e-10  1.7194523372047989e-10  4.6106956468180654e-10  1.9751753435402117e-10  2.8133797743126405e-10  1.4287141176961945e-10  1.4527864621307593e-10  1.5153133896757935e-10  2.1146910961379202e-11  2.8771433323655796e-10  6.5232352219614710e-10  2.5797345626474219e-11  2.5151496799611310e-10  8.9513145219858929e-11  1.5829794272260614e-10  1.1173544515759125e-09  1.3643130532337216e-10  1.6280514902281994e-10  2.3411283161756913e-10  2.8593488249580433e-10  1.0669356313902576e-10  2.0458653205077586e-10  4.1931551022207872e-10  2.1899761229347242e-10  2.3996145434627294e-10  1.0968855563112421e-10  1.1301248596229043e-10  1.1290723453173521e-10  7.1494953636991097e-11  2.0840643930711554e-10  8.8402131996356300e-10  7.7889387468964766e-11  1.0829430073868541e-10  7.7829911502327009e-11  9.6746739970517325e-11  1.6194976149667691e-10  3.7794359559730761e-10  7.9376400574147037e-11  8.5487250187518623e-11  8.0538527894951724e-10  9.3718412944765806e-10  2.9140133947646288e-10  1.9967118394746566e-10  7.7539895609867724e-11  8.1391794110621840e-11  3.3506762322939718e-10  5.8936382449914118e-11  8.3783357770320230e-11  5.0404129634499565e-11  9.3383396157933440e-11  4.1424159617438573e-10  9.0680842053043692e-11  1.9640638853052343e-10  1.6592520892336439e-10  9.0085287316288142e-10  6.2128390498415621e-11  1.9915370631285634e-10  1.1493117085411844e-10  1.1221114387630651e-10  7.4846474963313783e-10  7.5563237119878824e-11  8.5384572763224697e-11  1.1767014259769513e-10  1.1272664183216308e-09  4.1429322251324007e-11  7.7894863162260148e-11  2.7897538730487205e-10  2.5225142303511478e-10  3.4728950824490957e-10  1.8350687726691704e-10  2.0559576364849040e-10  4.0256784672805707e-10  2.9683063000744526e-11  1.0556394904158585e-10  1.2784754024378319e-10  3.7855660568432747e-11  2.6778447649699628e-10  4.4063561800318660e-11  3.3209557614437114e-10  1.3563836709185572e-10  1.1010855761212725e-10  1.9106523633054024e-10  5.0110054370589982e-10  7.3637802209110058e-11  2.7219286897324144e-11  1.4509745369858589e-10  8.1966093481645650e-11  5.9964199390852242e-11  7.7137052154238187e-11  1.7849894064156507e-10  4.9595820278799622e-11  2.6286862178852268e-10  2.5361206086845402e-10  1.2833301778075623e-10  1.2889886757174878e-10  1.3856738161484329e-11  7.1442014510922194e-11  1.4698199421384593e-10  1.6860848271332064e-10  4.9821500589555427e-10  3.6924230796011626e-11  8.2653812700908336e-11  3.3635631844233320e-11  2.3811001918697069e-10  1.2579282865579716e-10  1.8517799157049914e-10  7.5306607283942175e-11  8.8193700281089347e-11  1.2037021062233657e-10  2.0251689724172523e-10  2.2434359470479093e-10  2.6123779080430886e-10  4.3678390363886514e-10  2.1307697077818311e-10  2.1022007675794595e-10  1.4557801861407266e-10  7.9772100998239415e-11  1.7039876087343018e-10  1.6537026354568262e-10  6.2811968015534454e-10  1.2975211468664134e-10  6.2745192940725802e-11  4.0613934856270783e-10  1.9046968809230634e-10  2.0906399907543777e-10  1.2568475386377288e-10  3.3032173343689178e-11  4.4977174166117538e-11  9.9087530487794985e-11  6.7862121285830202e-10  2.9397136995917313e-10  1.8054744176391156e-10  1.3623946787727702e-10  3.3592662807574812e-10  6.7091923928207518e-11  1.0908176327289653e-10  3.5319332451159594e-10  2.2119222683610888e-09  9.9343176251690278e-11  2.8322408190405325e-10  6.1659944936683993e-10  1.2264186819263877e-09  1.9937132459717820e-10  1.5260713078888888e-09  4.1680285910684638e-10  2.2623991077288034e-10  1.1592119977629222e-10  4.2031970577288680e-11  6.6037580856659272e-11  1.2614309134650112e-10  1.5694941399693059e-10  6.3919460197484947e-11  9.8987861942213633e-11  1.0677115494825321e-10  1.2742723379215904e-10  1.9275874468563407e-10  4.9696902593109341e-10  3.1843629397049388e-10  1.6613706298324504e-10  9.6264496388835501e-11  6.1945759667533931e-11  5.9500437281842473e-11  7.0788865754898772e-11  1.8177325658769466e-10  2.2810879750302812e-10  1.0622872672905797e-10  1.0583792140077501e-10  2.3889950546896911e-10  1.3730395782760367e-10  7.0339315313503790e-11  5.9487345773759122e-11  1.0524332001616260e-10  3.4386385077378679e-11  1.8699875524424241e-10  3.3198029222122621e-11  1.6065053765093963e-10  1.7983949026749783e-10  1.5114448547568102e-10  3.9977506403765609e-10  7.9419599868214383e-11  8.3281754378284028e-11  1.4499721959639903e-10  3.0849396830628089e-10  1.4248070340878021e-10  2.6364015215095536e-10  1.1100686103348237e-10  1.3562286500688626e-10  1.5772253626315584e-10  2.7924392206978094e-10  1.2787857474342826e-10  3.3875787664247611e-11  1.1783453182076526e-10  1.1218420140831752e-10  1.4779768108915603e-10  2.5476862361219335e-10  1.7192759886828510e-10  3.5188472920472530e-11  1.2918264529046634e-10  2.3210292594990486e-10  2.9442554485304880e-11  3.2886346079348194e-10  1.6347507773999405e-10  3.9091209331313536e-10  1.1229233959060839e-10  2.3759128813106079e-10  3.2434856723738918e-10  7.5788320063440634e-11  1.0622641178274758e-10  2.1910758978553125e-10  7.4487038419371073e-11  4.8271691701020034e-10  1.5950521963071546e-10  9.8307509281052860e-11  1.0868389849336890e-10  2.1095027502776146e-10  5.3873373343598991e-10  4.7803062097578870e-10  1.7992078860955567e-10  1.7194914104707914e-10  2.0818092876036858e-10  4.0061859789740395e-10  4.5661849610391613e-11  2.2588642530168366e-10  8.2185277854528273e-11  1.2487668937046703e-09  1.1804915804076596e-10  4.5950650716590553e-11  5.4943123298780732e-10  3.3019286155922888e-10  2.4631379385698611e-10  2.1053579359176697e-10  6.4316391469819209e-11  1.5348301284578143e-10  3.3546589041289992e-11  4.3620053385607519e-10  8.2498308293703716e-11  1.3780521010250913e-10  1.2707361463032327e-10  6.6058187731644130e-11  3.4798512713065715e-10  4.3480428129692326e-11  1.1843862034226031e-10  2.4212499682771678e-10  1.7799115631456877e-10  7.1059355987709902e-10  9.3282686932087780e-11  5.7308445963748703e-10  1.4923935358454652e-10  3.5310615868627102e-10  5.4751941654441276e-10  2.4318266227894565e-10  1.5474347535989429e-10  2.7297333361644474e-10  4.8015969588857986e-10  3.4550209836555536e-10  7.5817151667732780e-11  4.9542237949278755e-11  1.6306623284131391e-10  3.5709099815891036e-10  1.8652526404906640e-10  1.2724458509539002e-10  1.7213997324792794e-10  8.1801477959423047e-11  7.1603981519805293e-11  1.9910464943838466e-10  5.8115942379402678e-11  2.0688900961960950e-10  9.0596899077880776e-11  4.7708813606961321e-10  4.9574801665393235e-10  8.2088948113254026e-11  4.1872377408045846e-11  3.9466848312818521e-10  6.4712659594246358e-10  2.5783282729038029e-10  9.8740256173102758e-10  2.8665200217777036e-10  3.1498962442175024e-10  2.7383636959199928e-10  2.6652198548458921e-10  9.7652177936121802e-11  3.1532157159903032e-11  1.9325578221778846e-10  1.0568814435160668e-10  2.1499252999861876e-10  7.5342904697886730e-11  1.2384166507808681e-10  2.0549058738364611e-09  1.7681830289811779e-10  8.1457266497763463e-11  8.2691400280056402e-11  4.0135858304785619e-10  2.4174172789991931e-10  1.8901669673028425e-10  2.0752996960354198e-10  4.4806852543523226e-11  7.5405897863287599e-10  2.4074682835032606e-10  5.3467918354564448e-10  2.4893299633268034e-10  2.4239701405834395e-10  3.1343321594471302e-10  9.4793950401216959e-11  3.3237552612605220e-11  3.6352522552629439e-11  3.6866167861085561e-10  3.6195194879394870e-11  1.1714480567075564e-10  1.0186897739904218e-09  7.5335923150917759e-11  3.5372588584934750e-10  2.6396474449131022e-10  6.2258892088293679e-11  6.0251378231274225e-11  1.7991379677848772e-10  2.4403590139253297e-10  4.8954364496043904e-11  1.1300389405353926e-10  1.6156554227117298e-10  7.5705994758351771e-11  1.7022172456302255e-10  2.1294312866517825e-09  3.5286528890597733e-10  3.1942727485558581e-10  1.0704181311800881e-10  1.0848772819692525e-10  1.8900602493372533e-10  8.1362104390015779e-11  1.3426316042860798e-10  4.9702627377673309e-10  8.6746198286375718e-11  2.4212594913879985e-10  2.1562809658198840e-10  1.3921912833858537e-10  5.1652815482268967e-11  7.8530878085223425e-11  5.6158679606590125e-11  3.7147388950367671e-10  1.0626504753261351e-10  2.2143044485358794e-11  5.6977051163452976e-10  3.1002939929460054e-11  6.2036259913120240e-10  1.1750945634152959e-11  5.4395083187205846e-10  1.7374920199885822e-10  2.4808708816252904e-10  1.0511878323345373e-10  2.8866354741989302e-11  8.5598211960850209e-11  2.8015500478600703e-11  2.0818483645647029e-10  3.7225278596077910e-10  2.7182420390007123e-10  3.3043388753952379e-10  1.3604058004504585e-10  9.4121613581098168e-11  6.3740990260085431e-11  3.6357620092046423e-10  5.0437556665105339e-10  1.0621886462544300e-10  1.0097895356253876e-10  1.4686866831336576e-10  7.6885117768962812e-11  4.5616000294655471e-11  5.5048272178393866e-11  3.2274522219073294e-11  8.9012907855311037e-12  1.7933964178396188e-11  9.9714779605206343e-11  2.2610572992069666e-12  1.1117325030175972e-11  1.8677140636366284e-10  3.4693042315107387e-09  2.2429628205811611e-10  4.2848581383756235e-11  2.1962849701451438e-10  9.3115386231229289e-11  1.1224653898190183e-10  4.4153592387815316e-11  1.7177641837690408e-11  8.8363518684596124e-11  7.3852083533358793e-10  8.0249222101805497e-11  1.8396620649273420e-10  3.2501944317190933e-10  4.8378324928834887e-10  9.6548630935844179e-11  1.0234432835435299e-10  5.8640219211781987e-11  7.6859735160895407e-11  1.1266269992707587e-10  5.7665555173997564e-11  6.1001655735618146e-10  5.9104243115306659e-11  2.7679428556263749e-10  8.8139797175703797e-11  1.2826182458036682e-10  3.1175641740197050e-10  4.1690585282981352e-11  6.3329455937010893e-11  2.8658116908435066e-10  1.1987760590219853e-11  1.1343949354571805e-10  8.8560840434426310e-11  7.6993919991697457e-11  5.6115994194734094e-10  1.6094654920257370e-09  2.9621653432079358e-10  2.8942641021544031e-10  9.0726179718090112e-11  6.9834466682038228e-11  2.5387802469005268e-10  1.1787386901712047e-10  1.0055342382832894e-10  1.0481094909371363e-10  1.9846162079206593e-10  7.4114168014951230e-11  5.3109050324938722e-11  7.1077006914251278e-11  4.0009539057218253e-11  8.7026734742471512e-11  1.9082270642070069e-10  1.6154951572318497e-10  1.1139127309529164e-10  2.7679117857535321e-10  4.7364447952340122e-11  1.3663090086318869e-10  5.2175551640951539e-10  6.6928458590723315e-11  1.1759660168694373e-10  1.3480800055189085e-09  5.8288613694971127e-11  3.3509257964862654e-10  5.0872290953151562e-10  1.5718076732020038e-10  1.2868108044476627e-10  1.2555287154842538e-10  9.0669399745768157e-11  2.5092295012711523e-10  2.8514696704701126e-10  1.7751870191574267e-10  4.6644083396423958e-10  4.2309606057055040e-10  1.2163555868594882e-10  2.1061548475466884e-10  6.7120380802748369e-11  8.5004191819750540e-11  6.2788111941005769e-11  2.3881973149558230e-10  4.0105912518726411e-10  3.0775964485412499e-10  3.2266370315728806e-10  8.5924683598186059e-11  2.2696164145154055e-10  4.7697919029420069e-10  1.7201511488646617e-10  4.7910783008171393e-10  1.8322376679110489e-10  1.3793441360288699e-10  1.1155368302871805e-10  5.1413497040182582e-11  5.4884617959649741e-11  3.3179499100054986e-10  6.2910842295290929e-11  6.4854428754503914e-11  1.2962529902513575e-10  3.1945344596294722e-10  3.1904159493144434e-10  1.5707889917880145e-10  1.1781216628239106e-10  5.9218480073029977e-10  6.2482305684385246e-10  1.6069445590217525e-09  2.6889060007335425e-10  1.9973290657364673e-10  4.4371131654265408e-10  4.5277495746081923e-10  1.1735781964160566e-09  2.9599074275647467e-10  2.4847767987559308e-10  3.3176090884732899e-11  1.2929185334741072e-10  3.2943188604085697e-10  4.9858067630503195e-10  2.1364979249595451e-10  6.6036542434068593e-10  3.0554336374128553e-10  2.1628050405038214e-11  4.8040247763834114e-10  3.3517990845460637e-10  3.8763057500741394e-11  3.3235291281133723e-10  4.1409042367930921e-10  5.4066372397355925e-10  1.4490061299722936e-10  6.6710392973361955e-10  1.9437301440027450e-10  4.7356455062622795e-11  1.2700041721431490e-10  1.3216558198893498e-10  3.1779474524365726e-10  7.9305265668853366e-11  2.6419209533344599e-10  1.9563050309383972e-10  8.2002053845241136e-12  2.5552197550458190e-10  5.8417856553320053e-11  9.0448292200347815e-11  1.2455974761248151e-10  6.3081273100176905e-10  4.1234244421178386e-10  3.0402160159134856e-10  1.1711457605244969e-10  1.3237297719706227e-10  9.0178768461162957e-10  5.4242321771493284e-10  1.3476245358653464e-10  1.4157138618068904e-10  9.2916210132022650e-11  4.8534911778464860e-10  1.3842822281137131e-10  1.7448631830946671e-10  9.5194993587752657e-11  7.0971193578557856e-11  6.3677832676655799e-11  1.5047003056889592e-10  9.8031499931122929e-11  1.2954511432790178e-10  4.3490290527675668e-10  7.6757086431884452e-11  5.9672638885354743e-10  1.2750623167372184e-10  2.2290770854739070e-10  2.8084750890273141e-10  5.5097374659626145e-10  1.1603003979752923e-10  4.1155895514724974e-11  6.3095822633024727e-11  1.4159891729941733e-10  1.5881958849394994e-10  5.1580808170063922e-10  8.4848739357385929e-11  1.6196841649057283e-10  2.5154336154122744e-10  1.3672902255034130e-10  2.3585478653923080e-10  3.3201870276835638e-10  3.1038290856897780e-10  1.0471297919243096e-10  1.7510486113567430e-10  1.4861882351313867e-10  2.2703240023086485e-10  4.9774169820112815e-10  3.7426631209237760e-10  2.0214148284513328e-10  2.0593757700944015e-10  1.2493665591882643e-10  1.7325540278560460e-10  2.9999806418902030e-10  3.8179301207453423e-10  3.6260292243390202e-10  1.6502384403967134e-10  2.1914193251657032e-10  1.9417644891161369e-10  1.5439575535064968e-10  3.9975580138311441e-10  3.1801898805586138e-11  1.0538863918105258e-10  1.2619773915316558e-10  3.1808781599087235e-07  4.0518752200421513e-10  1.7756131552441485e-10  6.1039541033160679e-11  2.5592587573497592e-10  1.3839487866491379e-10  6.4404956865561118e-11  1.0562297609846340e-10  2.0280370888092593e-10  2.0557370177145338e-10  1.9405018754436144e-10  1.8910807920782798e-10  3.0786570324173811e-10  6.5314923527400106e-11  8.0252222504435815e-11  1.9084133643429531e-10  1.2177619815335146e-10  3.5652043719370458e-11  4.0070208024538259e-10  6.4703201080747665e-11  6.2369626805124686e-11  1.9297356276980621e-10  9.8973649852088354e-11  2.3822475055391518e-10  2.9228598296937560e-10  1.3233545883357863e-10  7.8595710770199020e-11  1.8731327588889289e-10  9.6556878593159657e-11  3.2976614230565509e-11  9.1240949002110575e-11  5.8471616147082247e-11  7.8581845435173581e-11  2.2574182469134291e-10  4.7479808326244841e-11  6.6722261549482209e-11  9.4926990822029820e-11  9.3855771630438400e-11  9.3730755247603694e-11  2.5171789657825520e-10  8.7751552857895430e-11  1.8365262230220817e-10  2.0057242135173827e-10  9.8073063811200059e-11  1.6103829587054995e-10  3.1546199243766108e-10  1.2424852128106732e-10  6.1687284648885491e-10  1.7070010959749817e-10  1.4897082470288076e-10  1.3809400375289186e-10  2.2870341103187779e-10  4.4415237873174753e-11  4.0272396055508492e-11  7.7043269602843627e-11  4.3313141584327323e-10  1.9948129521668725e-10  6.3872650541975008e-10  4.4036943388318899e-10  1.2109764385971486e-10  5.4491649287137582e-10  3.6533618695553196e-10  1.8836752173295624e-10  7.0713374991509040e-11  9.3748746308041697e-11  1.7387941527350533e-10  1.8708534393851238e-10  4.1785072819703033e-11  4.8143786699263565e-10  2.7747550224451434e-10  3.0215356997825509e-10  5.4031007206127812e-11  3.4928672537299438e-10  2.6533418846004975e-10  5.8652025273175429e-10  7.3456316606830687e-11  6.1767273632742768e-11  2.3827319088670912e-10  7.2844893461607318e-11  4.2715845366563009e-11  1.4809306241864978e-10  2.4400696474784290e-11  6