<?xml version="1.0"?>
<VTKFile type="UnstructuredGrid"  version="0.1"  >
<UnstructuredGrid>
<Piece  NumberOfPoints="4852" NumberOfCells="9430">
<Points>
<DataArray  type="Float64"  NumberOfComponents="3"  format="ascii">-1 0 0  -1 -1 0  0 -1 0  0 0 0  1 0 0  1 1 0  -1 1 0  0 1 0  -0.5 1 0  -1 0.5 0  -1 -0.5 0  -0.5 -1 0  0 -0.1608775713298009 0  1 0.5 0  0.5 1 0  0.1967448868031411 0 0  -0.3404308174693818 -0.17559214516344 0  -0.3365269938192196 0.2239200493564033 0  0.1736690555798231 0.3456630584757164 0  -0.1847972618156754 0.5545998259104233 0  -0.503559318393539 -0.5371922149455489 0  0.4902865115481995 0.2565906394118656 0  -0.06445640238148555 0.2007806728059882 0  0 -0.5061325913258391 0  -0.25 -1 0  -0.560870061425687 0.5770672371180942 0  0.6613122776238982 0.6333762832953925 0  -0.1761788840025467 -0.5374154946976775 0  -0.5385945155685654 0.02528416484648076 0  -1 0.25 0  -0.2059809194026224 0.02375193977211762 0  -0.6542070730355514 0.3089699582724088 0  -1 -0.25 0  0.03914862988276439 0.5912688833437979 0  0.1948051955617713 0.1286415739043604 0  -0.1363697697487261 -0.2196311221875235 0  0.3708541123869019 0.6139208199003543 0  1 0.25 0  0.5355652144809806 0 0  -0.7499999999999999 -1 0  -1 -0.75 0  -0.6447796856334286 -0.3228915580649721 0  0.25 1 0  -1 0.75 0  0.02757118475249542 0 0  -0.25 1 0  -0.75 1 0  1 0.75 0  0.75 1 0  0 -0.02898318711980711 0  0.05393053230474127 0.1420922339590462 0  -0.07766117801609952 -0.02773688729775676 0  -0.7008483495769374 -0.1324077506465333 0  -0.3214962719229605 -0.3469538436055343 0  -0.3398536996782816 0.4369409335775959 0  -0.09981745688214505 0.7639816994336555 0  -0.3828246876884666 0.7022945051363568 0  -0.05484238747041227 0.3985002925596161 0  -0.07895195761810389 0.07188441703474382 0  0.3586494650488197 0.368943396788443 0  -0.715715835957897 -0.7297516025635267 0  0.4116714214597609 0.08973602954077003 0  0.6898796741254882 0.1913117029468229 0  -0.7471466032627561 -0.5267803670116745 0  -0.3875043416099855 -0.7103933208960661 0  0.7215233576310883 0.4180516988405427 0  -0.7757860758515007 0.09678436984877678 0  0.1965972831294402 0.6982255425529169 0  -0.1985330104786469 0.2881205164892399 0  -0.7986597468805706 0.5771192342123869 0  -0.7163561939593075 0.7661069930519947 0  -0.05302648780406635 -0.3734695125509901 0  0.58452662803788 0.8161486310061832 0  0.8202011509213615 0.8056535065533504 0  -0.1064767964590101 -0.6968850876230878 0  -0.5142027904606946 0.1623538796318485 0  -0.2016878026816636 0.1254301020821403 0  -0.3588891773796037 0.07514511604886841 0  -0.3648265165859949 -0.05237555918634062 0  -0.4962572615022666 0.3946354596650137 0  0.3750000000000001 1 0  1 0.125 0  -0.01205446273798192 0.07115854394414918 0  0.06198172804011315 0.3913890971667514 0  -0.171246853118113 -0.1222196701668224 0  -0.2425859516235779 0.7734365920619283 0  -0.625 0.9999999999999999 0  0.5331706438400802 0.4536106544876905 0  -0.5757899717587335 -0.8299479208372608 0  -0.2576479592830646 -0.7834599843558382 0  -0.3196863772314384 -0.5080833246423219 0  0.8338985351170924 0.5949355244986111 0  -0.548363893162274 0.7905408861074096 0  0.125 1 0  -0.06741926524806686 -0.09332873358096049 0  -0.4941968401602927 -0.1432031189508698 0  -0.875 -1 0  0.02937878139485503 0.0416139078866118 0  1 0.375 0  -0.875 1 0  0.05731721762690123 0.793685852076053 0  -0.1960924056939247 -0.3733225387310175 0  -0.07271320219144128 0.5706884085226207 0  0.2362412356292293 0.5173854040856152 0  -0.7920946867680887 0.229163836340091 0  -0.494874272455845 -0.3888177496933077 0  -5.682375648116461e-05 0.2708150605270793 0  0.5096671663188942 0.6396812524802763 0  0.3986988609251694 0.8070147756077923 0  -0.8059624704059553 0.4241150811027449 0  -0.06438371923181994 -0.2203625908347424 0  -0.7093515847672389 -0.01426942402087909 0  0.09032295412161361 0.05247418257217202 0  -0.4778416893218209 -0.2511013716506444 0  0.7238173597067951 0.08274826125999417 0  -0.8083741348031436 -0.4109078091185396 0  0.3372642073682539 0.1532743455960129 0  -0.7942902238838563 -0.2507146287752067 0  0.236002319878571 0.2539435830922087 0  -1 -0.8749999999999999 0  -1 0.875 0  0.1841387244576393 0.04783973339760823 0  -0.2473548302281547 -0.2288343585165862 0  -1 0.375 0  -0.1709151614581937 -0.04168760446302824 0  -0.6484664213755781 0.4671134523404658 0  0 -0.07736776745332727 0  0.08015844007197795 0.2595711850426295 0  -0.375 1 0  -0.2166152708119414 0.4244073687929093 0  -0.1200539217337212 0.1499735919492449 0  0.1330824160031782 0.5537433265710779 0  0.1316247021819423 0.1935328315454575 0  -0.4744284691454899 0.2691602296142926 0  -0.04620541457273711 0.01392719454555883 0  0.8514262454016304 0.369863925985753 0  -0.9999999999999999 -0.125 0  0.2855057714285076 0.8366052910517902 0  -0.1107161836093853 0.3127237281471987 0  -0.125 -1 0  0 -0.7575037395175259 0  0.07821397079968176 0 0  -1 -0.375 0  -0.3750000000000001 -1 0  -0.625 -1 0  0.7474787146812756 0 0  0.625 1 0  0 -0.2918843213980812 0  -0.9999999999999999 0.625 0  -1 0.125 0  -1 -0.625 0  0.3284075310660084 0 0  0.004929205892015135 0 0  -0.125 1 0  0 -0.006571003003944568 0  1 0.625 0  1 0.875 0  0.8750000000000001 1 0  -0.5623765526351662 -0.6761792498898698 0  -0.004918257920052632 0.1600703952558731 0  0.3620876703944248 0.2626696359717021 0  0.652862504751888 0.293487533951166 0  -0.8545492825190832 -0.6464027771341627 0  -0.8631764641271421 0.7868103872575296 0  0.4302420010020952 0.5008306107236173 0  -0.3983465918967277 0.8556639492246625 0  -0.7785383070876153 -0.8747322933060586 0  -0.8703688434879699 -0.7841976007230868 0  0.1540824953683992 0.8420206013381523 0  -0.6582856385598944 0.1524235497906757 0  -0.5773416986915384 -0.06418453885850908 0  -0.8544233916394073 -0.06263312489245706 0  -0.2956091671987421 0.5619082536317083 0  -0.4233315626467224 0.5696519566663903 0  -0.3757364601501176 0.3307034656989257 0  -0.6180888124427583 -0.2163008523996389 0  -0.2726341156151594 -0.08994820346204667 0  -0.6397489344075824 -0.5883084814229886 0  0.8596968169737903 0.2658359571128845 0  -0.03281038873188493 -0.03290264545673031 0  -0.05488336566853418 0.1144736200500095 0  -0.1335928426691003 0.4317227406284418 0  -0.1197491561111583 0.03238243087389301 0  0.5376843484952293 0.06451492878686907 0  0.5790616353041361 0.358799843133418 0  0.6912039233796669 0.774489956205178 0  -0.7931256525020918 0.8809938975556928 0  -0.642988366776772 -0.4290108606561756 0  -0.1167913926501869 -0.3970101274290823 0  0.8722012964736723 0.4883946681494246 0  0.07567971045170871 0.09382543409097253 0  -0.6643998068172789 0.8679341771198261 0  0.4544029110069354 0.3501537221191995 0  -0.02639500547411913 0.03580833293009481 0  -0.408946600377794 -0.4399698154876551 0  -0.3616473473300749 -0.268563706318421 0  0.3232915637143607 0.4813198257413497 0  -0.1959712038959515 0.2013130971029544 0  0.7055358385824967 0.5304462630922128 0  0.2615126852614134 0.3556911321519656 0  -0.3766197851525545 -0.8517440976388611 0  0.1091399522541023 0.681771811315903 0  -0.2849078824019133 -0.6117135556748071 0  -0.441106776724693 -0.6198653379336632 0  0.2960311524072833 0.6920080617541788 0  -0.8748266345145924 -0.1747773379176522 0  -0.1798944767024787 0.8548136502705009 0  0.4545400945140366 0.1631336569142281 0  0.2801530422147341 0.04665001464356973 0  -0.1421499120322412 0.6573089097512315 0  -0.01129658901635658 0.708472872854641 0  -0.05329101134970528 0.8748902821270049 0  0.005352947369092069 0.469577265721004 0  -0.3874602594948776 0.1532836464635589 0  0.5490284284184264 0.1330342510362885 0  -0.4755767316485382 0.6822269204219268 0  -0.8513957163758418 0.3326385216966822 0  -0.09219516088358269 -0.5359728200221169 0  -0.03188813133106159 -0.5519132236225737 0  -0.2136710115860954 -0.2873611217238626 0  0.8684935564194898 0.1514333834599927 0  -0.1697186513464586 -0.6606971482788322 0  -0.8891515742032311 -0.5283586799342183 0  -0.2815268441466641 0.3380650333746999 0  -0.6760063178825736 0.5739041109105384 0  -0.897394561439315 0.5312843360390525 0  -0.8982347002654648 0.6607449963179596 0  -0.6442053017291144 0.07218920459521069 0  -0.8590108528600108 0.02844354160608945 0  -0.8880685479242998 0.1678194886053029 0  -0.1301591237942089 0.2288014919938966 0  0.1601500916575599 0.4458683673363309 0  -0.04354459883361569 -0.1257319638203251 0  -0.7531892027255633 0.669918873675866 0  -0.6021410604757489 0.6978431860335172 0  -0.2542906819494747 0.07845329481299329 0  -0.2490612176657113 0.6486484150433638 0  -0.02743539038103823 -0.006344784126490663 0  -0.4942172307664685 0.8769144610238551 0  -0.4765756327318 0.4903020091669586 0  -0.290326636369783 0.1439090532864869 0  0.00215517117428892 0.02361820413046646 0  0.7794028460238724 0.6833877967108918 0  -0.4697960794757846 -0.824636694495604 0  0.2716353619149939 0.1947855223921288 0  -0.148838012097375 -0.8631271534000712 0  -0.06616144334582075 -0.8296670633897287 0  0.4432049129296321 0.7056859105856337 0  -0.1175823775167386 -0.2880472927255162 0  -0.2647587493370958 -0.02615840183909147 0  -0.8937236584809006 -0.896459088689498 0  -0.5727385025749474 0.2369311765615413 0  -0.4759744339486852 0.0874101827171293 0  0.4910605914485787 0.8255857616789278 0  -0.02831187259105722 -0.2600608500737214 0  -0.3098745856646011 0.8752693708732588 0  -0.1430214460514444 0.08048567746808971 0  -0.4690961559036737 -0.03497443511729788 0  -0.3877832477390522 0.0120364340445485 0  -0.2915810466133859 0.0275155047372027 0  -0.3847097546432706 -0.120391836611718 0  0.8880963565586059 0.6979314511326862 0  0.7925580336580025 0.9105895750875251 0  0.576488546997696 0.2076594187858668 0  -0.5598595201438238 -0.4691620482763091 0  0.5986992255229738 0.7056968180141041 0  0.6781507440079531 0.8881456810607091 0  -0.05114438791335737 0.3029589680855395 0  -0.9020600129011204 0.9045696632633348 0  -0.1274451501367294 -0.06702485660025831 0  -0.1689999145409286 -0.1823482797419735 0  -0.2522432580009376 -0.143530170011867
[...]
<PointData  Scalars="w"> 
<DataArray  type="Float64"  Name="w"  format="ascii">1.7537173096787503e-10  1.0397767680973823e-11  4.4601987414919174e-10  2.6242644473845620e-09  6.2404435631757661e-10  1.5735372388310877e-12  8.6930414964757509e-12  7.5206324807509626e-11  4.0736709819247130e-11  2.1147639578558697e-11  1.0791898938144980e-10  9.6115961101811201e-11  4.0340559534346460e-10  2.7876052540079821e-10  9.1851164306888219e-12  5.2573352222476788e-10  9.0724468178785815e-11  7.2215701102893866e-11  1.3080091398270290e-10  3.5607615227580676e-10  6.7237026178954936e-11  1.0460497382872530e-10  5.7158748055495199e-10  4.3867720583703920e-08  5.7943057395442438e-10  1.0855007075161575e-10  8.9315266628995391e-11  1.7211640586844117e-10  7.6548778922247384e-11  1.8864201413468108e-11  4.6658875550264651e-10  9.7997895959133450e-11  2.4329736567250252e-10  1.8108879887093284e-10  4.5297034737301649e-10  2.2559556340085202e-10  7.8294167548627622e-11  4.7889320907593391e-10  5.8633137102113480e-10  3.1386235645824396e-11  5.2894985955772753e-11  1.0802083719959115e-10  9.2923913989146109e-11  1.9945685593497792e-11  1.0455421205823860e-09  8.8221940209572608e-11  3.2230918200732942e-11  9.6735976461457798e-11  1.2416857604721305e-12  5.8884357313839447e-10  2.2037163945854551e-10  2.1334472085388973e-10  8.2502500677652706e-11  2.5208419270479398e-10  2.6118236359237580e-10  2.0455784468773625e-10  3.5681956850012552e-10  8.9150827271984911e-11  5.7688244624522519e-10  2.5213114043670339e-10  3.1272564043665442e-11  3.1418706675832158e-10  3.7940274119601389e-10  1.4437341011720984e-10  5.4282695032725718e-11  1.7870727264161409e-10  7.0908458115694048e-11  1.7812408830689746e-10  2.3261376178860011e-10  4.6220330190208921e-11  6.4552029094726036e-11  4.2840813637441475e-10  5.7072415725496186e-11  8.8331307007726557e-11  1.7144001139090624e-10  1.7039097141662701e-10  2.5611164671640044e-10  2.9026926894752101e-10  1.8248285347870207e-10  1.9502529719202938e-10  6.5516912109073300e-11  2.5246106246816358e-10  2.6245977787017990e-10  2.0082235600251393e-10  2.3371909471386163e-10  1.2496703634918916e-10  4.7030712339311822e-11  1.1050648730693781e-10  9.4531762578974761e-11  2.5413315208395148e-10  6.9597171077109970e-11  9.9966617882420972e-11  7.8455180868232581e-11  9.4893435537647436e-11  3.8926248934603466e-10  2.0933391169630625e-10  2.5600205277472498e-11  6.5244226109051285e-10  2.5753312770668050e-10  3.1817529308071685e-11  2.7760595480438022e-10  4.1305942526634662e-10  7.1168603486539041e-11  9.7535855895780444e-11  1.5747617294042401e-10  6.3859602083346579e-11  2.7309574026980239e-10  8.3823755645601004e-11  1.4704263962410831e-10  6.6233234301639468e-11  3.1185451957632045e-10  2.4676445637637894e-10  2.3156314512825503e-10  6.4242913847452873e-10  1.2082797964799621e-09  1.5025926850688312e-10  1.6469992377103283e-10  1.0297242687469971e-10  4.5860072044513717e-10  2.6007484276718605e-11  2.5842142266588925e-11  2.7849914228765232e-10  9.1270607440016484e-11  6.1421641830900434e-11  5.0062545089566037e-10  5.7729041873734066e-11  5.9719045843341139e-10  1.1848340730635973e-10  7.7284429448840086e-11  8.2840227354121258e-11  3.4098721126260844e-10  1.7372250815840144e-10  4.6376647179357467e-10  1.3564355873264264e-10  6.1980416037293313e-10  4.4699660825086321e-10  1.0944704708568839e-10  5.2396982375349473e-11  1.2981203965950346e-10  2.5792251050414434e-10  4.4896915886043197e-10  6.0286957436298395e-10  9.3187349676542898e-11  1.1928798284053515e-10  6.9127657702229794e-11  6.5574724075287802e-10  8.6881002560407328e-11  3.2428094809141576e-10  1.4838233807719565e-10  1.2458683897838639e-10  2.0137232170499062e-11  2.8295624946555873e-10  1.5793892337681158e-09  5.7242431963848520e-11  9.6523107002820934e-10  7.9616340410758065e-11  2.4730049532034512e-11  2.4493316264363530e-11  1.2199666911461296e-10  5.5788524744457476e-10  4.4511294350250558e-10  1.6122037901535545e-10  1.1530307920319380e-10  1.6800175215294442e-10  1.8824555633174659e-10  5.8983937475982437e-11  7.8026824738762802e-11  2.0544520523819922e-11  6.0427485514113360e-11  2.9488500380687498e-10  9.2433802148005574e-11  1.0613362992435166e-10  8.3260594019695764e-11  9.6657776115971731e-11  5.3497651717222425e-11  9.6029680729531915e-11  4.5495210592313618e-10  5.7076213006820760e-11  1.6425669946168682e-10  1.7148839284452038e-10  4.6138894435206953e-10  1.9803476153671404e-10  2.8153407485409197e-10  1.4288851952604041e-10  1.4529774818979225e-10  1.5087072292543704e-10  2.1123718323630064e-11  2.8672940313484404e-10  6.4552531276418794e-10  2.5780572003992227e-11  2.5103468379769825e-10  8.9396204872743054e-11  1.5828599345907008e-10  1.1088309104711146e-09  1.3724797915601585e-10  1.6324354560086048e-10  2.3409441346013028e-10  2.8681433427972953e-10  1.0645518499336891e-10  2.0475754853797268e-10  4.2012620949217950e-10  2.1881809227995078e-10  2.4033134304583769e-10  1.1013626248872168e-10  1.1298119952314699e-10  1.1321349953598591e-10  7.1512009734491132e-11  2.0837399350336608e-10  8.8280110935092096e-10  7.8266537177039983e-11  1.0893899521778480e-10  7.7883254884180761e-11  9.6977505405420810e-11  1.6237955181451975e-10  3.7780360880767956e-10  7.9243221314391984e-11  8.5418457204855113e-11  7.5878391846279881e-10  8.2218240723808853e-10  2.9224177695893617e-10  1.9982021107489385e-10  7.7652180419220165e-11  8.1206066115437294e-11  3.3576306896137637e-10  5.8980505417171314e-11  8.3622978498297173e-11  5.0408431900863298e-11  9.3453907645378823e-11  4.1522051471469290e-10  9.0913319956364546e-11  1.9694986158323044e-10  1.6612706980876913e-10  8.9990650802821898e-10  6.2057462689775766e-11  1.9933308460386756e-10  1.1508802109250802e-10  1.1257857644765282e-10  7.4661232759125068e-10  7.5423998372049351e-11  8.5400967629449362e-11  1.1787353047130653e-10  1.1156030799787034e-09  4.1328667695391406e-11  7.8113114638903775e-11  2.7871511347496800e-10  2.5263614596991426e-10  3.4538166794783123e-10  1.8327882637158385e-10  2.0476613856222268e-10  4.0318261711086821e-10  2.9588140266143343e-11  1.0563682456437012e-10  1.2817714112125882e-10  3.7847328071075765e-11  2.6632809122805759e-10  4.4332468540355192e-11  3.3166265255982837e-10  1.3608447606239882e-10  1.1032823871671223e-10  1.9125673277352476e-10  5.0174108060165129e-10  7.3434832222423887e-11  2.7086216381513900e-11  1.4517793254850215e-10  8.2141538284357523e-11  5.9820420194740201e-11  7.6775359091091761e-11  1.7899612940900135e-10  4.9868408104195964e-11  2.6256222128785614e-10  2.5383419890838948e-10  1.2858551677457465e-10  1.2867300447888720e-10  1.3748840517411144e-11  7.1502925080330470e-11  1.4653238803910581e-10  1.6896251916871059e-10  4.9670298446331479e-10  3.7069551343120671e-11  8.2722122779933966e-11  3.3687288054131624e-11  2.3784940995991893e-10  1.2615976982884976e-10  1.8525453814821161e-10  7.5330302448845384e-11  8.8186705133261445e-11  1.2081428425504329e-10  2.0324247446989249e-10  2.2417561236261589e-10  2.6185017770058690e-10  4.3627278297832166e-10  2.1366779192282324e-10  2.0996468825307641e-10  1.4600139628584122e-10  8.0240317329755546e-11  1.7114041216569342e-10  1.6673313986823259e-10  6.2540995723643418e-10  1.2945332221357351e-10  6.2905986829084862e-11  4.0618266490876443e-10  1.8992390288132906e-10  2.0889773868465718e-10  1.2330635890815970e-10  3.2887734943490879e-11  4.5004949054407359e-11  9.9255634070691477e-11  6.7881768269547850e-10  2.9300930354448427e-10  1.8115413885950263e-10  1.3663138065224822e-10  3.3718655981501923e-10  6.7498974074266113e-11  1.0995501340957089e-10  3.5183105840859950e-10  1.0524257334208398e-09  9.9372987523760851e-11  2.8272143800209463e-10  6.1387974788449331e-10  1.2232834392912993e-09  1.9829544076513362e-10  1.5210278037549806e-09  4.1669719816369792e-10  2.2612744850816344e-10  1.1808560232833969e-10  4.2116119519693036e-11  6.6285540581670468e-11  1.2626303194324797e-10  1.5726484860605718e-10  6.4155259284810057e-11  9.9015856923048412e-11  1.0707537372599527e-10  1.2808908090506386e-10  1.9231644040690496e-10  4.9551804288860664e-10  3.1854554386675342e-10  1.6633986439573054e-10  9.6639426956199779e-11  6.2098283041253340e-11  5.9551355105461513e-11  7.0696458411254021e-11  1.8239787275130282e-10  2.2713010657856989e-10  1.0647231983464183e-10  1.0612226986881212e-10  2.3982405298428733e-10  1.3732578375610407e-10  7.0198628201347183e-11  5.9759465101399642e-11  1.0543064941449370e-10  3.4428822461363240e-11  1.8703463700164793e-10  3.3075657051447543e-11  1.6086115793115692e-10  1.7962649548991419e-10  1.5185085042118334e-10  3.9892909423459141e-10  7.9682500520643412e-11  8.3651530640624612e-11  1.4486783151207291e-10  3.0761710868668169e-10  1.4401872304847330e-10  2.6371444466302235e-10  1.1123613834661598e-10  1.3582150619268191e-10  1.5763238002841645e-10  2.8439468629924987e-10  1.2775897114501654e-10  3.3847634519359671e-11  1.1757600204295764e-10  1.1240830955515781e-10  1.4856483012920467e-10  2.5415872215830805e-10  1.7147066553357101e-10  3.5283296918290902e-11  1.2975013711552111e-10  2.3355050124235780e-10  2.9518473088241343e-11  3.2952938453906498e-10  1.6353424019274417e-10  3.8911707021833378e-10  1.1276381431132922e-10  2.3700514975816909e-10  3.2534396810073917e-10  7.5981421067023800e-11  1.0623858612873892e-10  2.1904405327252996e-10  7.4187443541410554e-11  4.8295959493079291e-10  1.5973022137989091e-10  9.8559550522009624e-11  1.0875397401742189e-10  2.1083388628286642e-10  5.3875378941515017e-10  4.7677224124281142e-10  1.7998177733694850e-10  1.7188591628036357e-10  2.0824042414371227e-10  4.0213253327385315e-10  4.5773730423054624e-11  2.2580329466184356e-10  8.2415710009839032e-11  1.2440619541690839e-09  1.1841488485585970e-10  4.6119877405011459e-11  5.4780024483486938e-10  3.3150918587448543e-10  2.4693461532927695e-10  2.1032609843885341e-10  6.4484345212603823e-11  1.5395990840643372e-10  3.3574703905130004e-11  4.3726709903957350e-10  8.2598487765591255e-11  1.3874786082295123e-10  1.2753502829190274e-10  6.6181939187521844e-11  3.4897760857413023e-10  4.3687472609764998e-11  1.1869153241755776e-10  2.4361878806914344e-10  1.7851273664500203e-10  7.0993303472717218e-10  9.3168234713850149e-11  5.7334520010575050e-10  1.4864706130575049e-10  3.5261964069568797e-10  5.4878348116652395e-10  2.4336076917601928e-10  1.5524146183723035e-10  2.7239343746902156e-10  4.7899438625627560e-10  3.4636312587963627e-10  7.6011148977449831e-11  4.9411640812022861e-11  1.6317370661181359e-10  3.5622095779622166e-10  1.8660657699546157e-10  1.2718217788035626e-10  1.7253031809607549e-10  8.1490846276163868e-11  7.1504610760546171e-11  1.9948339626234616e-10  5.8193780177735108e-11  2.0746093451585065e-10  9.0800066787854907e-11  4.7734628434172709e-10  4.9544010861878288e-10  8.2173207081877680e-11  4.2049770992947901e-11  3.9758543499926055e-10  6.4694619146904527e-10  2.5838732675802701e-10  9.8292233934150575e-10  2.8712708071378458e-10  3.1555876789677355e-10  2.7242434043706199e-10  2.6588389156016332e-10  9.7782506639637038e-11  3.1537973003011779e-11  1.9387182423790277e-10  1.0659251274229891e-10  2.1585997642119931e-10  7.5373607835654989e-11  1.2306142144129018e-10  2.0467722499313558e-09  1.7701070015408682e-10  8.1436935510137561e-11  8.2513655562941570e-11  3.9989141577400277e-10  2.4239754108969601e-10  1.8936062386689444e-10  2.0812957255151812e-10  4.4705131539599208e-11  7.5261973825832336e-10  2.4114159732004762e-10  5.3528424550489939e-10  2.4887774376559373e-10  2.4331394541549764e-10  3.1334862465017512e-10  9.4767731678018546e-11  3.3179908684782472e-11  3.6292952661483110e-11  3.6740856621847069e-10  3.6480636836258395e-11  1.1770990403461143e-10  1.0174692576388607e-09  7.5325209931879816e-11  3.5312529385838687e-10  2.6386513742656972e-10  6.2208447861233428e-11  6.0257076303070187e-11  1.7996865773451234e-10  2.4417411370000633e-10  4.8649150376329938e-11  1.1340537487627818e-10  1.6153712782683482e-10  7.6020886353470245e-11  1.6988276171383518e-10  2.1222045019568386e-09  3.3766491748072409e-10  3.1953417185422925e-10  1.0703014055623755e-10  1.0810871196699757e-10  1.8930573757207538e-10  8.1175078233609802e-11  1.3433800491627544e-10  4.9877424864134296e-10  8.7117014399076466e-11  2.4288003435148078e-10  2.1534656894858231e-10  1.3909356054745731e-10  5.1546342751008239e-11  7.8614159560253491e-11  5.6096295361125283e-11  4.1240667932583924e-10  1.0672223707894737e-10  2.2131029449910212e-11  5.6996735728981890e-10  3.0971638221128125e-11  6.2062439812775488e-10  1.1794424401820479e-11  9.2121650058124996e-10  1.7447490765204486e-10  2.5006901943874216e-10  1.0514157480583466e-10  2.8941995698354270e-11  8.5311724919727157e-11  2.8099461357735576e-11  2.0715990940735598e-10  3.7244128025614906e-10  2.7194362917592879e-10  3.3037823275375392e-10  1.3618693424983196e-10  9.4770804747835896e-11  6.4021781363621698e-11  3.6183516580972465e-10  5.0408462116060252e-10  1.0586129154873657e-10  1.0100230484187193e-10  1.4728417368301547e-10  7.6531489659979176e-11  4.5874674547868528e-11  5.5409217051905712e-11  3.2500648371933113e-11  8.8853744258811807e-12  1.7918508305443071e-11  9.9287255974803762e-11  2.2726711150441455e-12  1.1176505792105829e-11  1.8620339559853521e-10  3.4734880003737230e-09  2.2546320141442927e-10  4.2743468964455026e-11  2.2065950574023799e-10  9.3141099275227555e-11  1.1234442747438563e-10  4.3963867774877542e-11  1.7256207079286507e-11  8.8862398899985398e-11  7.3099680208895424e-10  8.0056848759841411e-11  1.8366510595831876e-10  3.2474650133789124e-10  4.8326378766907656e-10  9.6602144960630660e-11  1.0230200011129156e-10  5.8757792188425854e-11  7.7115387404015581e-11  1.1289917612219409e-10  5.7472073612975987e-11  5.9571644762417008e-10  5.9161674073099336e-11  2.7655111553238993e-10  8.8425044871236931e-11  1.2828312881330899e-10  3.1214687780750532e-10  4.1756907970895616e-11  6.3670665540177427e-11  2.8742242528794454e-10  1.1977657652985471e-11  1.1333513006782263e-10  8.8867992353877511e-11  7.7175325078612099e-11  5.6125858051431885e-10  1.6098708960145001e-09  2.8743812802015389e-10  2.8923202478489418e-10  9.0987194341355114e-11  6.9738666014763030e-11  2.5461205113557174e-10  1.1762228463159906e-10  1.0027748291393381e-10  1.0499183008146512e-10  1.9847348077086350e-10  7.4152494663210799e-11  5.2835274112185900e-11  7.0902491270771297e-11  3.9869593686186073e-11  8.6714397888713908e-11  1.9089613026785396e-10  1.6164186593014067e-10  1.1151415833782799e-10  2.7376266630232337e-10  4.7243996468475423e-11  1.3681787456047553e-10  5.2088800081038123e-10  6.7053172504638011e-11  1.1825685576694166e-10  1.2647113200756700e-09  5.8303895272394881e-11  3.3581963535994125e-10  5.0880605892529433e-10  1.5757795376191977e-10  1.2875655166161719e-10  1.2580901538638535e-10  9.0513338452667153e-11  2.4900557261570688e-10  2.8536113765074099e-10  1.7747880075022851e-10  4.6627345129411791e-10  4.2278938454216142e-10  1.2179520217819861e-10  2.1076717455585611e-10  6.6946089105651989e-11  8.5027874461525633e-11  6.2832642325510400e-11  2.3953702939700000e-10  4.0118126340591755e-10  3.0778152196881894e-10  3.2382535406077141e-10  8.6099295887820686e-11  2.2667694925463804e-10  4.7711046321430754e-10  1.7156409891996717e-10  4.8110304987725112e-10  1.8405232004086000e-10  1.3806202079701188e-10  1.1200075088066896e-10  5.1409720608731861e-11  5.4696548034593734e-11  3.3348511872678802e-10  6.2989299540068092e-11  6.4711517081188467e-11  1.2951759717821059e-10  3.2066451886595102e-10  3.1914786585042887e-10  1.5730534835759910e-10  1.1784883963372795e-10  5.8957549251325637e-10  6.2462947895928551e-10  1.5953289020388118e-09  2.6778568833543560e-10  1.9905594936409486e-10  4.4246845001326766e-10  4.5503325493795282e-10  1.1664700071521266e-09  2.9573163151704784e-10  2.4801441675140949e-10  3.3298756002758256e-11  1.2955662213757502e-10  3.2057175892382959e-10  4.7915176268373055e-10  2.1192461907732101e-10  6.6093466220470309e-10  3.0601433082021112e-10  2.1708260003910453e-11  4.8381178555496250e-10  3.3416186862729105e-10  3.8841273532881728e-11  3.3312195640060228e-10  4.1421174047602513e-10  5.4224879613996260e-10  1.4525073821823691e-10  6.6902464958210015e-10  1.9527820650767203e-10  4.7542553031231120e-11  1.2740400034705076e-10  1.3260566937247612e-10  3.1745852034192005e-10  7.9451003362064901e-11  2.6405069453102486e-10  1.9625990562659181e-10  8.2400087494150515e-12  2.4310411315937957e-10  5.8305077543100758e-11  9.0691754549990894e-11  1.2447807496411130e-10  6.2986098511701367e-10  4.1131266864980560e-10  3.0327993093533769e-10  1.1746026336873528e-10  1.3226420495766126e-10  8.9560016991255173e-10  5.3883242855123685e-10  1.3481810002339644e-10  1.4224964257249122e-10  9.3832402160863989e-11  4.8770479752070433e-10  1.3865301510423238e-10  1.7486366737455132e-10  9.5217369181390235e-11  7.1035277406926903e-11  6.3643468065284233e-11  1.5053980234673649e-10  9.8493443214361107e-11  1.2927122602970634e-10  4.3390952705894153e-10  7.7196124352625584e-11  5.9459606470866341e-10  1.2687950215889474e-10  2.2345639741876510e-10  2.8039015106322120e-10  5.4828139978692047e-10  1.1646734134355445e-10  4.1020091228080855e-11  6.3249809395605927e-11  1.4206463041313468e-10  1.5937302431789164e-10  5.1640812207789474e-10  8.4852736516028171e-11  1.6317926032238890e-10  2.5244908937479582e-10  1.3844269330200906e-10  2.3685659531947083e-10  3.3632135034598494e-10  3.1069719252994024e-10  1.0482421612690497e-10  1.7515443946100261e-10  1.4923111736236728e-10  2.2762221059655504e-10  4.5611007038523775e-10  3.7407342565951088e-10  2.0208792901275077e-10  2.0563924130499581e-10  1.2554321032763892e-10  1.7324095262545935e-10  2.9968537770765962e-10  3.8143008640195509e-10  3.6216747215233750e-10  1.6549616553891499e-10  2.1961990425969274e-10  1.9525107961869003e-10  1.5441724269520464e-10  3.9964801129600186e-10  3.1943747467980604e-11  1.0564658879222408e-10  1.2679120069880549e-10  2.0405613645480088e-08  4.0639589860409151e-10  1.7721736874629906e-10  6.1186759370602047e-11  2.5605625471065187e-10  1.3830745716010095e-10  6.4580115599392591e-11  1.0572902252909876e-10  2.0270482001951921e-10  2.0615872347615758e-10  1.9531864349585880e-10  1.8936332119571908e-10  3.0934819688968568e-10  6.5654881870065812e-11  8.0399392806148963e-11  1.9107704396973700e-10  1.2227655702938865e-10  3.5483616220308244e-11  4.0210971789654057e-10  6.4859193965594517e-11  6.2261071163093293e-11  1.9396424240054076e-10  9.9346606518477471e-11  2.3807161071228034e-10  2.9211764632127862e-10  2.1788271303591725e-10  8.0059391215274901e-11  1.8786300040013612e-10  9.6694179629255259e-11  3.2785542717706175e-11  9.0878388561742788e-11  5.8603890901392743e-11  7.8701117859708626e-11  2.2514168876305638e-10  4.7416836126643056e-11  6.6518302318668096e-11  9.4947515393236118e-11  9.3950957663333374e-11  9.3991212756970742e-11  2.5083421551346964e-10  8.7907706026908073e-11  1.8453336927091285e-10  2.0200305920109065e-10  9.9379960894830325e-11  1.6097202650373054e-10  3.1557214371262750e-10  1.2448028449166166e-10  6.1474748903526686e-10  1.7083419213292261e-10  1.4938476122413814e-10  1.3807252923238665e-10  2.2850801380746453e-10  4.4348969692217740e-11  4.0145103249742056e-11  7.7084946361750102e-11  4.3262017370099945e-10  1.9942789494627129e-10  6.4536262621295629e-10  4.4079714592219933e-10  1.2136416221200212e-10  5.4530660351174628e-10  3.6512172609767447e-10  1.8856756334623394e-10  7.1091188125820903e-11  9.3864838164619295e-11  1.7432818125068208e-10  1.8722523235033448e-10  4.1868052220422055e-11  4.8345057859875038e-10  2.7958380995403315e-10  3.0086483373561542e-10  5.3688179218545001e-11  3.5006898995640821e-10  2.6673581405058073e-10  5.8218711277899638e-10  7.3369025437110321e-11  6.1989861879063463e-11  2.3864323019022252e-10  7.2888683941640969e-11  4.2828216457979558e-11  1.4814635014631362e-10  2.4481436612295918e-11  6