<?xml version="1.0"?>
<VTKFile type="UnstructuredGrid"  version="0.1"  >
<UnstructuredGrid>
<Piece  NumberOfPoints="4852" NumberOfCells="9430">
<Points>
<DataArray  type="Float64"  NumberOfComponents="3"  format="ascii">-1 0 0  -1 -1 0  0 -1 0  0 0 0  1 0 0  1 1 0  -1 1 0  0 1 0  -0.5 1 0  -1 0.5 0  -1 -0.5 0  -0.5 -1 0  0 -0.1608775713298009 0  1 0.5 0  0.5 1 0  0.1967448868031411 0 0  -0.340482479027836 -0.1757727432370385 0  -0.3365454991761589 0.2241816628039655 0  0.1740584123999331 0.3459513998391812 0  -0.1849321564521151 0.554775054622118 0  -0.5038425629536157 -0.5375626468184432 0  0.4905338844929624 0.2572154412847505 0  -0.06418678891645929 0.200818097156218 0  0 -0.5061325913258391 0  -0.25 -1 0  -0.5611525547777488 0.5774277178448121 0  0.6615953014157382 0.6341859773288043 0  -0.1754412189837951 -0.5378175827579917 0  -0.5387186549248387 0.02552765873157788 0  -1 0.25 0  -0.2059205519792605 0.0237634061491765 0  -0.6543193743800583 0.3094144057347527 0  -1 -0.25 0  0.03927935340035722 0.5914900781391547 0  0.1951576125237567 0.1287566639653978 0  -0.1360153997325602 -0.2200100429059988 0  0.3711862630966247 0.6144655656105242 0  1 0.25 0  0.5355652144809806 0 0  -0.75 -1 0  -1 -0.75 0  -0.6449825817560371 -0.3231127430229376 0  0.25 1 0  -1 0.75 0  0.02757118475249542 0 0  -0.25 1 0  -0.75 1 0  1 0.75 0  0.75 1 0  0 -0.02898318711980711 0  0.05432421417250709 0.1420822213471583 0  -0.07758497624119237 -0.02781871413773558 0  -0.7009575967074203 -0.1323658658459208 0  -0.3213893220013132 -0.3473484779360725 0  -0.340042856990413 0.4372301889065431 0  -0.09992757131985115 0.7641351512670373 0  -0.3831472513194425 0.7024716753498762 0  -0.05470075470515771 0.3986644734565259 0  -0.07875957741643611 0.07185048336833795 0  0.3590229299885306 0.3694882555214343 0  -0.7160958726369421 -0.730115722959185 0  0.4118739390817724 0.08996280648824329 0  0.6899549839270702 0.1918268083751308 0  -0.7473248709541925 -0.5271941152281168 0  -0.3877461031926734 -0.7105961220902047 0  0.721588522405143 0.418909379372216 0  -0.7758316551954099 0.09704714746022398 0  0.1968302219444617 0.6985070266939507 0  -0.1984836453796419 0.2882763495935144 0  -0.7988195623172493 0.5774342811865357 0  -0.7165930174681772 0.7663276713308654 0  -0.0508565441055266 -0.3740074608408258 0  0.5848419075857688 0.8165648395636861 0  0.8204514373282145 0.8061537566613171 0  -0.1045300542071607 -0.696892064569526 0  -0.5143117490823751 0.1627278930493893 0  -0.2015798485582278 0.1255102435583237 0  -0.358916831608639 0.0753405519169791 0  -0.3649041737411786 -0.05233231015948253 0  -0.4964411599962151 0.3950367269667465 0  0.375 1 0  1 0.125 0  -0.01176071846612752 0.07111772219493089 0  0.06227635344593065 0.3915894530128401 0  -0.1711886138462712 -0.1224017224765258 0  -0.2427906558909727 0.7735513133987405 0  -0.625 1 0  0.5334437800295898 0.4544248646310114 0  -0.576171955083945 -0.830114360293899 0  -0.2575039875992524 -0.7835292869943618 0  -0.3196388408015675 -0.5084444979465299 0  0.8339628725601185 0.5956047250903579 0  -0.5486974689983675 0.7906807257504853 0  0.125 1 0  -0.06735709219096796 -0.09341868165920574 0  -0.4943197808118757 -0.143216468844787 0  -0.8750000000000001 -1 0  0.02960895077489569 0.04153356783575069 0  1 0.375 0  -0.875 1 0  0.05735993477856864 0.7938363232722897 0  -0.1954224835224291 -0.3738613371845646 0  -0.07271287943795188 0.5708548568903055 0  0.2365755147388263 0.5177894392609594 0  -0.7921672172422595 0.2295409453410704 0  -0.495033104347075 -0.3891446076312345 0  0.000258355148801294 0.2709103519696557 0  0.5100175968990394 0.640369944319605 0  0.3989596454776633 0.807361971266275 0  -0.8060662076766398 0.4244690322938544 0  -0.06397821055140357 -0.2206614290474159 0  -0.7094411949657234 -0.01407568370368785 0  0.09055159364942195 0.05239903221113548 0  -0.4779592947484845 -0.2512958361941602 0  0.7238421689739645 0.08297486952383383 0  -0.8084779235408617 -0.411151260991283 0  0.3375799993187881 0.1535763242413349 0  -0.7943724084101916 -0.2507881866836532 0  0.2364036223126864 0.2542355634028896 0  -1 -0.875 0  -0.9999999999999999 0.8749999999999999 0  0.1843440311869579 0.04786282918838922 0  -0.2472235044664829 -0.229182351708208 0  -1 0.375 0  -0.1708689494522201 -0.04176745195445204 0  -0.6486842240569679 0.4675368854908515 0  0 -0.07736776745332727 0  0.08054284567903749 0.2596908564129052 0  -0.375 1 0  -0.216685384425877 0.4246171178976201 0  -0.1198530955787993 0.1499981569498922 0  0.133334584768778 0.5540588428441504 0  0.1320334646365852 0.1936390431831805 0  -0.474555684412328 0.2695571045427555 0  -0.04609905075981801 0.01386863032556356 0  0.851351197543059 0.3704620387874464 0  -1 -0.125 0  0.2856928780888943 0.8368108661531727 0  -0.1105758015265015 0.3128509496834238 0  -0.125 -0.9999999999999999 0  0 -0.7575037395175259 0  0.07821397079968176 0 0  -1 -0.375 0  -0.375 -0.9999999999999999 0  -0.625 -1 0  0.7474787146812756 0 0  0.625 1 0  0 -0.2918843213980812 0  -1 0.625 0  -1 0.125 0  -1 -0.625 0  0.3284075310660084 0 0  0.004929205892015135 0 0  -0.125 1 0  0 -0.006571003003944568 0  1 0.625 0  0.9999999999999999 0.875 0  0.8750000000000001 1 0  -0.5628027166274493 -0.6765104984082714 0  -0.004558296308332172 0.160065409430797 0  0.3624273842504147 0.2631534267802031 0  0.6529756229422998 0.2942366172419837 0  -0.8547467122503642 -0.6467737639858862 0  -0.8632583281865088 0.7869441475194046 0  0.4305796168219219 0.5015013961050463 0  -0.3985891228512333 0.8556885770892083 0  -0.7788116246551589 -0.8749251346926337 0  -0.8705841826839873 -0.7844807806486781 0  0.1541865369331934 0.8421672569357006 0  -0.6583775687999125 0.1527982237567808 0  -0.5774994724063777 -0.06405322495387576 0  -0.8544862258575537 -0.06254674683807161 0  -0.2958557123332931 0.5621232840036939 0  -0.4236251613657154 0.5699215576730613 0  -0.3758451176652627 0.3310113854297349 0  -0.6182952013398852 -0.2163796094152824 0  -0.2726625577310925 -0.09003382881587221 0  -0.6401133689068381 -0.5887126249246506 0  0.8596694076758731 0.266222815899594 0  -0.03276048826568345 -0.03295479453185825 0  -0.05460658079736701 0.1144527214359347 0  -0.1335768902884121 0.4319009976759536 0  -0.119627985537442 0.0323456776338371 0  0.5377765377704625 0.06470828268652881 0  0.5792685036909133 0.3596217024644291 0  0.6915559717862919 0.7750445419181732 0  -0.7932765181153598 0.881046483906292 0  -0.643217419214589 -0.4293622648036421 0  -0.1153502416135873 -0.3976859302345424 0  0.8721339182153891 0.48897724972358 0  0.07602393792266897 0.09377143257781544 0  -0.664616335535143 0.867978581088415 0  0.4547082990907939 0.3508299687334986 0  -0.0262189595910206 0.03576848928073727 0  -0.4090297285664973 -0.4403310343462343 0  -0.3616636507258086 -0.2688631402108916 0  0.3236558988815844 0.4818354338651242 0  -0.1958702309275336 0.2014347808834943 0  0.7056965133776827 0.5313223743511781 0  0.2619086981042731 0.3560928145003942 0  -0.3768256310266516 -0.8517912778913669 0  0.1093141678072609 0.682016032493358 0  -0.2848279853103674 -0.6120088862403262 0  -0.4413836077775928 -0.6201762002932435 0  0.2963001905584334 0.6923905513734044 0  -0.8749222320131881 -0.1747804925230478 0  -0.1800161392710269 0.8548086904383139 0  0.4547813907096412 0.1635774980042588 0  0.2803042161551001 0.04671277642759364 0  -0.1422894406168584 0.6575015822350864 0  -0.01129675575062305 0.7086716203482046 0  -0.05334003528409172 0.8749019748281588 0  0.005514479571232646 0.4697914309232829 0  -0.3874926544468831 0.1535628694881385 0  0.5491842581566808 0.1334318278040905 0  -0.4759189358047178 0.682462693182746 0  -0.8514410118753647 0.3329651543448737 0  -0.09077463448666521 -0.5363963685488548 0  -0.02980591075079923 -0.552359790033091 0  -0.2132880547143954 -0.2878364156306546 0  0.8684583163666226 0.1516650804783521 0  -0.1688476718921565 -0.6609144725606693 0  -0.889287977493315 -0.5286449815692351 0  -0.2815872813501403 0.3382893238053021 0  -0.676264340305729 0.574268952151094 0  -0.8974450110477942 0.5315033586216402 0  -0.8982827635894608 0.6609169117174947 0  -0.6443226347967133 0.07248896066952273 0  -0.8590637657478879 0.02859313294722243 0  -0.8881246075316752 0.1680249243279173 0  -0.129988918382984 0.228885817883307 0  0.1604892288072637 0.446175297152042 0  -0.0434786124083051 -0.125809181769876 0  -0.7534053107493476 0.6702301364849007 0  -0.6024598743521532 0.6981421356110556 0  -0.2542453272067511 0.07855559871534196 0  -0.2492994581032439 0.6488382572684328 0  -0.02737976435870479 -0.006392553095515802 0  -0.4944774064912332 0.8769254617750223 0  -0.4768059498671994 0.4906378667537856 0  -0.2903040199433383 0.1440944568158053 0  0.00232573195957632 0.02358381952825605 0  0.7796108575661499 0.6841035904164899 0  -0.4701226603028945 -0.8247453930458455 0  0.2720080738342817 0.1950574263950112 0  -0.1481733643135156 -0.8630191275745362 0  -0.06485714915313945 -0.8293611537249842 0  0.4435469017786545 0.706207551259779 0  -0.1167238830735916 -0.2886059514206207 0  -0.264766923614821 -0.02615517667239796 0  -0.893878701118033 -0.8966077177180197 0  -0.5728585657878479 0.2373627326894483 0  -0.4760684043845904 0.08770121077138221 0  0.491346230605517 0.8259496052305766 0  -0.02793233947079297 -0.2603117092988882 0  -0.3100390981081732 0.8752442082268524 0  -0.1428751405695646 0.08048876478878311 0  -0.4692040231552901 -0.03483907388278938 0  -0.3878466134533611 0.01218137624863138 0  -0.2915839778416265 0.027606391275254 0  -0.3848035697154869 -0.120440746808855 0  0.8881750017319936 0.6984183375598696 0  0.7928329008630864 0.910833712532624 0  0.5766524496913521 0.2082393515145067 0  -0.56015119995081 -0.4695345128704047 0  0.5990480462530371 0.70636481108841 0  0.678432638671805 0.88842112314161 0  -0.05091585443613858 0.3030682439210861 0  -0.9021241295178436 0.9046325746420814 0  -0.1273911223877323 -0.06713553283257563 0  -0.1688367726324924 -0.1826440503238643 0  -0.2522331516513165 -0.1437226429956731 0  0.03718854664968004 0.20152
[...]
<PointData  Scalars="w"> 
<DataArray  type="Float64"  Name="w"  format="ascii">1.7510473066689521e-10  1.0356166043627726e-11  4.4530900507330087e-10  2.5708412829036282e-09  6.2442317289600777e-10  1.5705966359928209e-12  8.6823331546210869e-12  7.5281171714896474e-11  4.0732823699239934e-11  2.1196305107677420e-11  1.0686463583952750e-10  9.5725899996379715e-11  4.0384080305639040e-10  2.7593730224684800e-10  9.1443891973994224e-12  5.2567000882719980e-10  9.1159345535180391e-11  7.2344591389683093e-11  1.3078824692762904e-10  3.5611436887013425e-10  6.7418985779823735e-11  1.0498930492509740e-10  5.7596132585891721e-10  1.4049307984310632e-08  5.8217946625904938e-10  1.0836080746202364e-10  8.8657990687889146e-11  1.7342300896778344e-10  7.6749521213924450e-11  1.8950738403321165e-11  4.6956729078148580e-10  9.8030524035759834e-11  2.4206084378264106e-10  1.8072013229744502e-10  4.5461723369349497e-10  2.2707728475536276e-10  7.7924690295414379e-11  4.7618304803076239e-10  5.8780861089467407e-10  3.1234339888757290e-11  5.2257529679744125e-11  1.0777726653380254e-10  9.2465300468238658e-11  1.9854644488789092e-11  1.0483631797634028e-09  8.8763401580075027e-11  3.2233919774243769e-11  9.5533143785664098e-11  1.2561362667880726e-12  5.8849944673305432e-10  2.2118003389197343e-10  2.1385625362666764e-10  8.2363850963566669e-11  2.5351740293999208e-10  2.6196277634555330e-10  2.0296555388342627e-10  3.5551922029252148e-10  8.9549400487310639e-11  5.8022720167743999e-10  2.5220945345520355e-10  3.1015077463396707e-11  3.1539104379415408e-10  3.7861284178816781e-10  1.4421333583427868e-10  5.4160195870288503e-11  1.7803964227562118e-10  7.0913930864524403e-11  1.7727463983212937e-10  2.3319397291927744e-10  4.5963161988901891e-11  6.3998278657910391e-11  4.2756373803302425e-10  5.6503847160660773e-11  8.7421770610943575e-11  1.7418842897014197e-10  1.7065040016316918e-10  2.5801181407729093e-10  2.9133692186742049e-10  1.8287071490620895e-10  1.9446310304995487e-10  6.5170114984163784e-11  2.5231980786885626e-10  2.6290084433469991e-10  2.0162365949011376e-10  2.3471578369512164e-10  1.2430504520282480e-10  4.6837514381886350e-11  1.1009657715162462e-10  9.4061876471754474e-11  2.5623476517086380e-10  6.9887108107183067e-11  9.9072036617690155e-11  7.7984508172950040e-11  9.4665124756395314e-11  3.9029520923267418e-10  2.0979496337582753e-10  2.5387081919914594e-11  6.5234140854483815e-10  2.5686328002603743e-10  3.1671452492745555e-11  2.7666557074975589e-10  4.1704710586610846e-10  7.1469824941310639e-11  9.7627752529862843e-11  1.5754278890816347e-10  6.4163410505665776e-11  2.7434474189178990e-10  8.3397229915303692e-11  1.4592069036537110e-10  6.5839924840243704e-11  3.1165033359248906e-10  2.4590366338162019e-10  2.3180959927005103e-10  6.4400971718985893e-10  1.2104649666964700e-09  1.5050107238385163e-10  1.6532276988238638e-10  1.0332514368600213e-10  4.5910575871505842e-10  2.5758496734613882e-11  2.5763420877156435e-11  2.7798972461455912e-10  9.1963243223960524e-11  6.1252777627932347e-11  5.0318996243125848e-10  5.7594277304373468e-11  5.9716508214510217e-10  1.1907592126979060e-10  7.7357424012589719e-11  8.3000167719736414e-11  3.4321198203859497e-10  1.7365430890874455e-10  4.6544219631411139e-10  1.3571103310823266e-10  6.2030906610839997e-10  4.4155839365227484e-10  1.0919238448342829e-10  5.2123385408938054e-11  1.3045368992710287e-10  2.6102150084121265e-10  3.7856844865134864e-10  6.0396263404731035e-10  9.2343022773216656e-11  1.1915000064860165e-10  6.8491502804291958e-11  6.5702214806097691e-10  8.5678636098737237e-11  3.2168333320065473e-10  1.4783637180491400e-10  1.2461584425424736e-10  1.9958479867284987e-11  2.8350378866238581e-10  1.5707775064733584e-09  5.7500023782336162e-11  9.5911357121273590e-10  7.8687520093636592e-11  2.4269672344850397e-11  2.4173686628458988e-11  1.2185497847108209e-10  5.6148211653892757e-10  4.4692900940030353e-10  1.6103319461444491e-10  1.1419173621995286e-10  1.6721907120055749e-10  1.8732334430593476e-10  5.8829280964664160e-11  7.7287704893131391e-11  2.0412749729217442e-11  6.0197422349883668e-11  2.9408657410010278e-10  9.2741551552842600e-11  1.0627044079183597e-10  8.3488593081093552e-11  9.6471165633514985e-11  5.3510866317031116e-11  9.5918324942664738e-11  4.5679406517746885e-10  5.6743194343501520e-11  1.6419663060502791e-10  1.7129062067575882e-10  4.6531705950818223e-10  1.9852826691872134e-10  2.8352861440826150e-10  1.4323692647647869e-10  1.4491527098274997e-10  1.4921497646748673e-10  2.1043278945922342e-11  2.8503668944917461e-10  6.4996386742917391e-10  2.5532249462000952e-11  2.5194509821326261e-10  8.8896345783865379e-11  1.5782531440883056e-10  1.1080367068274479e-09  1.3798561987238003e-10  1.6422621393669944e-10  2.3348752497509832e-10  2.8857068854304232e-10  1.0558084805421864e-10  2.0480741014626156e-10  4.1876428350952644e-10  2.1807614140095603e-10  2.3990831000341457e-10  1.1029313183572473e-10  1.1241453410725885e-10  1.1333751623156502e-10  7.1100739851701321e-11  2.0845489135149301e-10  8.8552727167103138e-10  7.8450784662119447e-11  1.0916875389036341e-10  7.7827461082422027e-11  9.7132108562535608e-11  1.6283008230974606e-10  3.7752454122799699e-10  7.8935744308525831e-11  8.4785945661466122e-11  7.6151083916494691e-10  9.0247207948106261e-10  2.9440426090277411e-10  2.0013425156869015e-10  7.9329641865186271e-11  8.0664855553662887e-11  3.3670075500945068e-10  5.8690807595964270e-11  8.3062928763546105e-11  5.0197511049816399e-11  9.3337934358094288e-11  4.1481830359124733e-10  9.0807790742576772e-11  1.9808317825152928e-10  1.6611181348776120e-10  9.0341103851137782e-10  6.1689487854405495e-11  1.9859594939907494e-10  1.1565155087431873e-10  1.1254299610864888e-10  7.4562278863498818e-10  7.4870416012915459e-11  8.5134458686673241e-11  1.1823912253736901e-10  1.1074535102108649e-09  4.0887805952111129e-11  7.7935096431713889e-11  2.7932788869791433e-10  2.5768751432303328e-10  3.4904330111503128e-10  1.8189019783349346e-10  2.0408079757490078e-10  4.0491313227525425e-10  2.9334850366882195e-11  1.0544527064133485e-10  1.2849535376859272e-10  3.7612907367048127e-11  2.7176746461219210e-10  4.4285397108797271e-11  3.3362503496230241e-10  1.3665349428264919e-10  1.1068050956322759e-10  1.9204653262742421e-10  5.0317842729731830e-10  7.2894581069090656e-11  2.6784211475457598e-11  1.4502584638716133e-10  8.2246687797967315e-11  5.9272925387542732e-11  7.5722869500219452e-11  1.7983842644201547e-10  4.9669083382450086e-11  2.6364556655039776e-10  2.5491859003545959e-10  1.2950162811072903e-10  1.2876040869010655e-10  1.3531493997788698e-11  7.1639160585535931e-11  1.4657698633580713e-10  1.6870073838735668e-10  4.9803902593757631e-10  3.7161918024196319e-11  8.2358261718741666e-11  3.3560056096888361e-11  2.3916336340840982e-10  1.2616755913993971e-10  1.8484882401012891e-10  7.5347760173530424e-11  8.7638675770942669e-11  1.2093982197391226e-10  2.0345834114142292e-10  2.2394198697453565e-10  2.6227481385307873e-10  4.3810727941663359e-10  2.1464267202935776e-10  2.1011082223657493e-10  1.4556384989527994e-10  8.0456537086204185e-11  1.7163235050919729e-10  1.6837532650007128e-10  6.2477264946020853e-10  1.2886288294793653e-10  6.2685429747313542e-11  4.0768909977423060e-10  1.9000115288735062e-10  2.0756515471081969e-10  1.2108754111940527e-10  3.2494633822849509e-11  4.4913921545909721e-11  9.8912850477247607e-11  6.8406842241689859e-10  2.9303607895662246e-10  1.8158596568531258e-10  1.3672514368471291e-10  3.3712757965585691e-10  6.7693500959832832e-11  1.1041058756402620e-10  3.5181287998898274e-10  1.4547812140156995e-09  9.9115624964392295e-11  2.8275800573509170e-10  6.1303904715822565e-10  1.2290820129415603e-09  1.9709768062516737e-10  1.5274226582195880e-09  4.1902128828025663e-10  2.2591730114574723e-10  1.1932448176526449e-10  4.1893927878207694e-11  6.6241883238386632e-11  1.2669897172191298e-10  1.5719843370692344e-10  6.4045399529170833e-11  9.9127887387715269e-11  1.0749941582693556e-10  1.2865674917678230e-10  1.9260245612607658e-10  4.9779926252863642e-10  3.1964989063608514e-10  1.6631059759743877e-10  9.6531934436006468e-11  6.2005409370460780e-11  5.9406758845629643e-11  7.0545798925183752e-11  1.8269283188221390e-10  2.2517043034196046e-10  1.0612576290744081e-10  1.0568309154334958e-10  2.3983999113520140e-10  1.3665051050634580e-10  6.9486802551333959e-11  5.9917689948636539e-11  1.0570403634531336e-10  3.4307568252454212e-11  1.8612204948529830e-10  3.2761061098409384e-11  1.6123459568233308e-10  1.7925153430230204e-10  1.5312970059211809e-10  3.9646068018584414e-10  7.9907503203161399e-11  8.3671311139989508e-11  1.4434895904253564e-10  3.0596680961159376e-10  1.4498685805369089e-10  2.6352755018135368e-10  1.1119689575376656e-10  1.3562244122170317e-10  1.5639036128729103e-10  2.8860583719824608e-10  1.2775715278903943e-10  3.3681505845613560e-11  1.1695853015034002e-10  1.1246019356123263e-10  1.4888286898252315e-10  2.5159159370696541e-10  1.7009108258211181e-10  3.5141851854944015e-11  1.3019607328085928e-10  2.3459482207928869e-10  2.9338530611549080e-11  3.3077491399327209e-10  1.6423387993543791e-10  3.8902618458529151e-10  1.1309951013497832e-10  2.3564730693199168e-10  3.2626690695228569e-10  7.5899070228051818e-11  1.0574056384732679e-10  2.1799038981464394e-10  7.3110319502274295e-11  4.8445030713611166e-10  1.6048064491015058e-10  9.8467383201297354e-11  1.0857655295012051e-10  2.0943128220122926e-10  5.4192634973511225e-10  4.7800098794232605e-10  1.7911435924805813e-10  1.7156033490033489e-10  2.0776550055842450e-10  4.0271929186188385e-10  4.5780076026284841e-11  2.2524346139389125e-10  8.2421181109463513e-11  1.2404338817151165e-09  1.1874493183056516e-10  4.6296594805858090e-11  5.5099006293251992e-10  3.3388319894491125e-10  2.4776699373359886e-10  2.0965315729533313e-10  6.4345349949703729e-11  1.5397179354866971e-10  3.3473931104177785e-11  4.3901025618133206e-10  8.2223874890134914e-11  1.3884881852891667e-10  1.2791403672230308e-10  6.6233387717000114e-11  3.4934486314678364e-10  4.3552888382967822e-11  1.1807056253702989e-10  2.4632116170085067e-10  1.7958672819189690e-10  7.1367929534306615e-10  9.2493248320392768e-11  5.7624688356215033e-10  1.4688965970034791e-10  3.5470175860805490e-10  5.4903741625051486e-10  2.4440969135123370e-10  1.5565065299464939e-10  2.7249946568770445e-10  4.8049009414263823e-10  3.4879701769948885e-10  7.5783252874903492e-11  4.9222692311952572e-11  1.6398640201235254e-10  3.5703261096314894e-10  1.8578068832663505e-10  1.2632886497778713e-10  1.7148440531238400e-10  8.0816742314866072e-11  7.1093974593335002e-11  1.9964891071046145e-10  5.8097787463424921e-11  2.0763252066354376e-10  9.0939024271836588e-11  4.8057929353673349e-10  4.9301494479480921e-10  8.2042033020727788e-11  4.2099351204625919e-11  4.0152492404456647e-10  6.4958432422262536e-10  2.5946840012425767e-10  9.8515632446455441e-10  2.8879611307382137e-10  3.1766025331008130e-10  2.7236635804671982e-10  2.6642653319186823e-10  9.7693421713827625e-11  3.1346177679413595e-11  1.9472463674400679e-10  1.0704059808892348e-10  2.1587071182870201e-10  7.5484422228304797e-11  1.2196671305302510e-10  2.0384131727497730e-09  1.7733647087952873e-10  8.1032043226185534e-11  8.2138305045455136e-11  3.9955769913433590e-10  2.4381506885181365e-10  1.9004269652674688e-10  2.0889439500647072e-10  4.4464300949382920e-11  7.5817219393030124e-10  2.4212579949961624e-10  5.3466457202589486e-10  2.5173449598980425e-10  2.4301333784181326e-10  3.1164289787159078e-10  9.4550945942087214e-11  3.3000578049524932e-11  3.6025871052465441e-11  3.6830424185944497e-10  3.6414060485991711e-11  1.1743332668035838e-10  1.0189507621207010e-09  7.5152268223745891e-11  3.4943184237473894e-10  2.6261369925954739e-10  6.1929268501259499e-11  6.0072634593046689e-11  1.8063723526405081e-10  2.4543770030513434e-10  4.8030751102280167e-11  1.1386686657546851e-10  1.6069537248964565e-10  7.6108382756800563e-11  1.6915505047137082e-10  2.1233934737753491e-09  3.5000888907603526e-10  3.1997303214071203e-10  1.0713326339835397e-10  1.0711742463716660e-10  1.8787560960786372e-10  8.0107832478044825e-11  1.3428569074576204e-10  5.0026307605521563e-10  8.7413326929256308e-11  2.4222143528180839e-10  2.1405162351032839e-10  1.3905221242279451e-10  5.1024747072377369e-11  7.7797106705577697e-11  5.5223575927605302e-11  4.1454332842120720e-10  1.0684391822711240e-10  2.2088636443290267e-11  5.7146220211150682e-10  3.0622316234771060e-11  6.2168517159018167e-10  1.1764661224885169e-11  7.4362698993469438e-10  1.7566370149524138e-10  2.5353803422635836e-10  1.0457056145522524e-10  2.8854258547057793e-11  8.4640413804331251e-11  2.8051801346532133e-11  2.0499406784971429e-10  3.7289000438938609e-10  2.7169280119362042e-10  3.2667355250751305e-10  1.3404018968546447e-10  9.5014221209198168e-11  6.3839610388960555e-11  3.6089774566202837e-10  5.0213033705327078e-10  1.0521395511292201e-10  1.0061368674997441e-10  1.4713916092966904e-10  7.5889455834223032e-11  4.6025042107208697e-11  5.5183984651037667e-11  3.2378109177999222e-11  8.8404720329363591e-12  1.7800200012277705e-11  9.7932201031363537e-11  2.2515925477315306e-12  1.1057671576030870e-11  1.8576920139776424e-10  3.4925779941742577e-09  2.2538356730103227e-10  4.2239154998987542e-11  2.2159495307533929e-10  9.2872160133065525e-11  1.1231191939317434e-10  4.3657772067450273e-11  1.7189346430052174e-11  8.8561023088642670e-11  7.2715311759643302e-10  7.9602356402076448e-11  1.8325189585949626e-10  3.2372288247383309e-10  4.8341934081795510e-10  9.6582440162962275e-11  1.0190416971473378e-10  5.8570230768843210e-11  7.7352583516818331e-11  1.1225780429618123e-10  5.7007403873360128e-11  5.9641014301460775e-10  5.9110274312588148e-11  2.7818441189586039e-10  8.8514919203603699e-11  1.2794737204045690e-10  3.1098497036160749e-10  4.1676702169180499e-11  6.3526965928515858e-11  2.8630075713565899e-10  1.1887113070387855e-11  1.1310214388874353e-10  8.8777388622877736e-11  7.7069483894709276e-11  5.6266733469069587e-10  1.6152811797339156e-09  2.8948990323210394e-10  2.8938440568516907e-10  9.1041662232147909e-11  6.9201690180024885e-11  2.5500387795388879e-10  1.1700121143258836e-10  9.9011301714835201e-11  1.0485277380905885e-10  1.9788976291371315e-10  7.3973446670821366e-11  5.2283639152612716e-11  7.0331278204497393e-11  3.9545716609309082e-11  8.6059141147113400e-11  1.9178603434842638e-10  1.6230621346522709e-10  1.1201962472713921e-10  2.7451774587878607e-10  4.6926204122239555e-11  1.3651610780209837e-10  5.2265659374022540e-10  6.6828138382263310e-11  1.1882968924495999e-10  1.2763051338601485e-09  5.8144355411613867e-11  3.3819253042797999e-10  5.1294318883306967e-10  1.5852868415044400e-10  1.2851045372000409e-10  1.2609077790387616e-10  8.9860349217654395e-11  2.4732939409252497e-10  2.8664890142357473e-10  1.7726649732677451e-10  4.6911493576458238e-10  4.2341065554779763e-10  1.2153263199065223e-10  2.1036585804867789e-10  6.6379961293949285e-11  8.4772701809685765e-11  6.2690760312518029e-11  2.4017391189984465e-10  4.0117098398686574e-10  3.0802663530268764e-10  3.2611869767382683e-10  8.6131947995449244e-11  2.2798434906845025e-10  4.8040693702087936e-10  1.7062332315202428e-10  4.8153381979224795e-10  1.8421862784811573e-10  1.3787486133022381e-10  1.1191089506175695e-10  5.1205973041299401e-11  5.4133242667983211e-11  3.3614777533721759e-10  6.2866164690555004e-11  6.4385474355328727e-11  1.2903337498678921e-10  3.2250360243839970e-10  3.1883410461243777e-10  1.5783006908081363e-10  1.1769585787367889e-10  5.9174260688124652e-10  6.2888615739188024e-10  1.5969459554159364e-09  2.6775403081441318e-10  1.9861604705572833e-10  4.4268358774226825e-10  4.5713695851497959e-10  1.1668087609883078e-09  2.9706384344462750e-10  2.4561187090677477e-10  3.3229278232054588e-11  1.2925271342619613e-10  3.2470970668888644e-10  4.7214152097922627e-10  2.1115225956452645e-10  6.6751424964654326e-10  3.0476997005785595e-10  2.1624564625261479e-11  4.8565221737976235e-10  3.3276612205699068e-10  3.8866835572486421e-11  3.3509039091024956e-10  4.1410208247810377e-10  5.4594127261830907e-10  1.4596983856343714e-10  6.7321630832574837e-10  1.9637294832086575e-10  4.7599826815326202e-11  1.2785407398996378e-10  1.3305390993592017e-10  3.1663583946501394e-10  7.8952280365223137e-11  2.6326401201598076e-10  1.9631092844054077e-10  8.1981881943883251e-12  2.2429012883776463e-10  5.7846465493951110e-11  9.0554472876187080e-11  1.2380303807304613e-10  6.3344282843957643e-10  4.1164696581972047e-10  3.0446482925035047e-10  1.1753494611579578e-10  1.3184322060180053e-10  8.9956120465840257e-10  5.3962970051944402e-10  1.3447515257840584e-10  1.4268586798814678e-10  9.4418737525618928e-11  4.9062794157223430e-10  1.3846363713458291e-10  1.7460348043482348e-10  9.4892320534098983e-11  7.0721098599003399e-11  6.3358553302509966e-11  1.4954240943484654e-10  9.8560284561921163e-11  1.2851963114428683e-10  4.2953557054865552e-10  7.7326420006318401e-11  5.9542120417185757e-10  1.2571884706345328e-10  2.2483963200678062e-10  2.7918562238347236e-10  5.4939627144988230e-10  1.1678551475443049e-10  4.0717825183740577e-11  6.3061445919451150e-11  1.4256230841526456e-10  1.5962768831442201e-10  5.1547897559146345e-10  8.4219173101333220e-11  1.6340046283560968e-10  2.5285248285866697e-10  1.3937565087435950e-10  2.3675986445875162e-10  3.3867652087425569e-10  3.1235648143282704e-10  1.0462822808933009e-10  1.7465666948146555e-10  1.4943567179023479e-10  2.2859180662048597e-10  4.7367255784551877e-10  3.7401931579712244e-10  2.0186504441236484e-10  2.0377242766830390e-10  1.2571842095797927e-10  1.7228635262870764e-10  3.0043483125447521e-10  3.8092692930777289e-10  3.6172426221850189e-10  1.6647239099160379e-10  2.2059923279591920e-10  1.9595106562392705e-10  1.5347548724025581e-10  3.9845999716386505e-10  3.1890422194186688e-11  1.0553912860992845e-10  1.2704574885870487e-10  8.6368586687849984e-08  4.0792592764516974e-10  1.7583050140990062e-10  6.1258896473871209e-11  2.5729579176818716e-10  1.3763721149132432e-10  6.4613144345195966e-11  1.0546705419505348e-10  2.0272564153287036e-10  2.0653741903754920e-10  1.9626243619978639e-10  1.8906162490076081e-10  3.1055733424767813e-10  6.5580441650404655e-11  8.0320385229736202e-11  1.9124847646552366e-10  1.2292443636377315e-10  3.5151390779360510e-11  4.0333328590415059e-10  6.4791996119207640e-11  6.1700509546616000e-11  1.9447266918985161e-10  9.9492619457146396e-11  2.3689895366768301e-10  2.9173374943376746e-10  1.5880166235973511e-10  8.1401231114953617e-11  1.8794379550625891e-10  9.6509307448414667e-11  3.2378022275509051e-11  9.0015797829965058e-11  5.8456461824404649e-11  7.8952591511616262e-11  2.2503250431270355e-10  4.7126505140488473e-11  6.5999593186494198e-11  9.4725273254260558e-11  9.3629355970506094e-11  9.4226762924254599e-11  2.5268973678651676e-10  8.7971321051250496e-11  1.8485134913815680e-10  2.0454417955043003e-10  1.0105491437550841e-10  1.6085108600065444e-10  3.1543819995496782e-10  1.2429428474264540e-10  6.1522815952848226e-10  1.7067060423993263e-10  1.4973358322066445e-10  1.3887687246519955e-10  2.2691217378930833e-10  4.4044038871772409e-11  3.9756012226017110e-11  7.6877330027080801e-11  4.3271452257774514e-10  2.0043467002728948e-10  6.5056578110051746e-10  4.4379253692398953e-10  1.2138440997352673e-10  5.4886646558282025e-10  3.6418457906330647e-10  1.8858139066138291e-10  7.1296958843243572e-11  9.3588278776907701e-11  1.7517689460712274e-10  1.8808662254990765e-10  4.1673114306608367e-11  4.9048899638547293e-10  2.8164633220361550e-10  3.1277441122328339e-10  5.2960642968056172e-11  3.5179727938648815e-10  2.6814899547145404e-10  5.7745908457818995e-10  7.3088060645771976e-11  6.1923289311949374e-11  2.3984720430018174e-10  7.2609757598711379e-11  4.2715276636851183e-11  1.4732510666532264e-10  2.4435749294966878e-11  6