<?xml version="1.0"?>
<VTKFile type="UnstructuredGrid"  version="0.1"  >
<UnstructuredGrid>
<Piece  NumberOfPoints="4852" NumberOfCells="9430">
<Points>
<DataArray  type="Float64"  NumberOfComponents="3"  format="ascii">-1 0 0  -1 -1 0  0 -1 0  0 0 0  1 0 0  1 1 0  -0.9999999999999999 0.9999999999999999 0  0 1 0  -0.5 1 0  -1 0.5 0  -1 -0.5 0  -0.5 -1 0  0 -0.1608775713298009 0  1 0.5 0  0.5 1 0  0.1967448868031411 0 0  -0.3423474399763763 -0.1762743915549069 0  -0.3391858732005138 0.2259638086946308 0  0.1738396342964344 0.3484128563159654 0  -0.1867896330289832 0.5569220620601848 0  -0.5045946695537105 -0.5388169364477816 0  0.4910408998836396 0.2589734697446543 0  -0.06588835210924054 0.2026643149085784 0  0 -0.5061325913258391 0  -0.25 -1 0  -0.5630198037973724 0.5788993233435966 0  0.6622487370569472 0.6354099835809266 0  -0.1752709404939534 -0.5388640926176433 0  -0.5410124851196619 0.02602242391863574 0  -1 0.25 0  -0.2078940039907318 0.0246302156578767 0  -0.6561461605159022 0.310850701032317 0  -1 -0.25 0  0.0385229603117155 0.5937090562084989 0  0.1949387521966517 0.1303993058837101 0  -0.1370237390480347 -0.2204449876007699 0  0.3717415916004999 0.6162717059802815 0  1 0.25 0  0.5355652144809806 0 0  -0.75 -1 0  -1 -0.75 0  -0.646117847175027 -0.3241564565536953 0  0.25 1 0  -1 0.75 0  0.02757118475249542 0 0  -0.25 1 0  -0.75 1 0  0.9999999999999999 0.75 0  0.75 1 0  0 -0.02898318711980711 0  0.05316190745057899 0.143590354536753 0  -0.0783646668262801 -0.027116097880501 0  -0.7023570771140503 -0.1327387609627731 0  -0.3225264494295659 -0.3484998289041956 0  -0.3424337499263024 0.4393024128496829 0  -0.1009076678559272 0.7654938517669768 0  -0.3848820166238868 0.7038445809288103 0  -0.05627006322973618 0.4011760580765238 0  -0.07980030954841925 0.07270210728554444 0  0.3594920255248995 0.3717314164869824 0  -0.7165402055481153 -0.7308219330107111 0  0.4121994805293085 0.09087057448205393 0  0.6902724032658074 0.19268602922218 0  -0.747876720465621 -0.5281812827073736 0  -0.3880700175779922 -0.7115129522120504 0  0.7219880623600887 0.4202797277407853 0  -0.7771178975136112 0.09755852825423171 0  0.1970085688661341 0.700193636295965 0  -0.2008192506580352 0.2904735377993867 0  -0.7997560826547663 0.5784886674656939 0  -0.7176530137519037 0.7671142630124621 0  -0.04805668375519277 -0.3743561516307958 0  0.5854258898146931 0.8173689452916064 0  0.8208383273627838 0.8066621464321209 0  -0.1045712134795508 -0.6973644986847068 0  -0.5167619839139775 0.1640626498999061 0  -0.2037719874625204 0.1269269127521352 0  -0.3615016462037351 0.0763525113081126 0  -0.3672314738495908 -0.05208354901982129 0  -0.4987339081136423 0.3968342658630833 0  0.375 1 0  1 0.125 0  -0.01287430391939291 0.0714450613994614 0  0.06142973176134294 0.3941391130102818 0  -0.1726757938995345 -0.1223509440396234 0  -0.2441663327863483 0.7747149282252569 0  -0.625 1 0  0.5341125002690575 0.4563067008105635 0  -0.5765192394799109 -0.8306173219647198 0  -0.2575824871734592 -0.7841692658716504 0  -0.3201952564032468 -0.5097255908225313 0  0.8342763448853052 0.5963802638843235 0  -0.5499899909048208 0.7915496016248347 0  0.125 1 0  -0.06824564931615205 -0.09316381977175364 0  -0.496296205690579 -0.1435749393827974 0  -0.875 -1 0  0.02853872018370983 0.04199103418509977 0  1 0.375 0  -0.875 0.9999999999999999 0  0.05705246461326071 0.7951382376532942 0  -0.1960119671594019 -0.3749034343490446 0  -0.07411328486042552 0.5730866436323552 0  0.236749563399509 0.5200419241748895 0  -0.7933479255904902 0.2304159070467366 0  -0.4961760141085942 -0.3904121759113508 0  -0.001123299289166533 0.2731862530024832 0  0.5107629602240918 0.6418604938820358 0  0.3994790147301214 0.8083591298340342 0  -0.8070504240023456 0.4255592764100879 0  -0.0643374879488314 -0.2210350442963249 0  -0.710978388567999 -0.01393378296329974 0  0.08994384491169127 0.0534413780183837 0  -0.4795727240733844 -0.2522061437271854 0  0.7239547603835561 0.0832949512050829 0  -0.8090218428690229 -0.4119986130420004 0  0.3378742127128955 0.1551610278411669 0  -0.7951822079426188 -0.2514824708894565 0  0.2364385406718551 0.2564427303326858 0  -1 -0.875 0  -1 0.875 0  0.1841578334888462 0.04880786990905656 0  -0.2486528524547444 -0.2298387485154352 0  -1 0.375 0  -0.1724746508582523 -0.04121827348898932 0  -0.6503868127891453 0.4690121981802235 0  0 -0.07736776745332727 0  0.07968722094150524 0.2619666267060507 0  -0.375 1 0  -0.2189531175038762 0.4269132983634256 0  -0.121681320317666 0.1515074436818749 0  0.1331094629886154 0.556331982369203 0  0.1314416683820353 0.1956676761433427 0  -0.4770478115098638 0.2712443717591134 0  -0.04629667565419446 0.0143748252156802 0  0.8515084853862794 0.3712421500707797 0  -1 -0.125 0  0.2859996733199633 0.8377468943818801 0  -0.1125526424716168 0.3152037275691495 0  -0.125 -1 0  0 -0.7575037395175259 0  0.07821397079968176 0 0  -1 -0.375 0  -0.375 -1 0  -0.625 -1 0  0.7474787146812756 0 0  0.625 1 0  0 -0.2918843213980812 0  -1 0.625 0  -0.9999999999999999 0.125 0  -1 -0.625 0  0.3284075310660084 0 0  0.004929205892015135 0 0  -0.125 1 0  0 -0.006571003003944568 0  1 0.625 0  0.9999999999999999 0.875 0  0.875 1 0  -0.5633567464349273 -0.6774574883814133 0  -0.005975468982505412 0.1615698020291377 0  0.3628483352127707 0.265183082284576 0  0.6534356080785702 0.2955930591109294 0  -0.8549898819924078 -0.6473935871936475 0  -0.8638267584444655 0.7875139693122104 0  0.4312138307754215 0.5035171840972652 0  -0.3995846417238739 0.8564021025454041 0  -0.7790917295154975 -0.8752049705123177 0  -0.8707710976544141 -0.7848716468818172 0  0.1542814551691494 0.8431449207672823 0  -0.6602447203731328 0.1538106886320515 0  -0.5794790994172403 -0.06410348384255496 0  -0.8552786909207013 -0.06261039656365686 0  -0.2979827337080354 0.5640593802203535 0  -0.4257162956815943 0.571647202563793 0  -0.3783961425402095 0.3330239160940119 0  -0.6197709550456871 -0.2171131755202508 0  -0.2746848291932253 -0.08994802226281107 0  -0.6407385050452186 -0.5897988094501152 0  0.859836238976376 0.2666634280128963 0  -0.03317192593545293 -0.03257278290988345 0  -0.05596208656284209 0.1155108347650301 0  -0.1355300558057338 0.4343329389071654 0  -0.1208409568012327 0.03320964094109847 0  0.5379500717051144 0.06518811111045271 0  0.579831376513996 0.3614082826335057 0  0.6921407439647733 0.7758309553342481 0  -0.7939100159344888 0.881442755552571 0  -0.6441133689000471 -0.4305257343318485 0  -0.1150414678441939 -0.3984673764530221 0  0.872265996925191 0.4897145020115583 0  0.07502327797767942 0.09503993478992329 0  -0.6654237798933812 0.8685433369446782 0  0.4552911812337918 0.3528830771223971 0  -0.02655514541095809 0.03583902063995762 0  -0.4099627385777953 -0.4416627294811212 0  -0.3631846183396301 -0.2698128096412483 0  0.3240761703828604 0.4840577864756698 0  -0.1981728418498977 0.2032744506636989 0  0.7062284950268722 0.5326322645188976 0  0.2620875594772455 0.358476361908302 0  -0.3770057331630702 -0.8522750803237491 0  0.1090428472862715 0.683823486240375 0  -0.2850336898115984 -0.6131202483241289 0  -0.4419408224134571 -0.6213086116232882 0  0.2967375341172967 0.6939834836362803 0  -0.8754900810376502 -0.1751281976650597 0  -0.1808689913864516 0.8556588497556232 0  0.4551947528990731 0.1650016097833689 0  0.2803823488362273 0.04736628047876454 0  -0.1437646770493391 0.6593155073861594 0  -0.0121237618163747 0.7103451152065754 0  -0.05376351914033346 0.8757182417991891 0  0.004395221670346278 0.4722921835714055 0  -0.3901476965349624 0.1549970261092887 0  0.5495132186975104 0.1343872607818524 0  -0.4776666948655994 0.6838112667832418 0  -0.8522623255733488 0.3338238552764677 0  -0.08890824261367079 -0.5371734548269473 0  -0.02531130978968891 -0.552768899203223 0  -0.2143469473608687 -0.2886806782092075 0  0.8685129549279312 0.1519135678424843 0  -0.1688217656597896 -0.6616992315946914 0  -0.8895021110996504 -0.5292412641480521 0  -0.2840760074835826 0.3404603436614133 0  -0.6777281157815832 0.5755904863487968 0  -0.8979374132870487 0.5321891513820727 0  -0.8987604572880524 0.6615481981186584 0  -0.6462421017042689 0.07313054683625832 0  -0.8598887271988256 0.02877949891840301 0  -0.8888296514174016 0.1683791341784602 0  -0.132039546422705 0.2308891249339688 0  0.1602971651498163 0.4486491514340414 0  -0.04407275400500012 -0.1257943374369756 0  -0.7544797218763035 0.6712035933922877 0  -0.6039699995741659 0.6992605975569393 0  -0.2565780121230123 0.07969011476463124 0  -0.2511038353079679 0.6505398715009287 0  -0.02746964682277346 -0.006015907591836212 0  -0.4954420777115077 0.8774713617630068 0  -0.4789998829827706 0.4924306507004335 0  -0.2928553107952709 0.1455817748257826 0  0.001639778362760198 0.02330763409493097 0  0.7800869986178559 0.684926906099483 0  -0.47039764250256 -0.8252978374316253 0  0.272154940230568 0.1969723280927637 0  -0.1483366466719092 -0.8633744374181137 0  -0.06523548168159865 -0.8296336864582302 0  0.4441882640957802 0.70757939394599 0  -0.1172380876221762 -0.2891931649975062 0  -0.2669322120046733 -0.02565608781214095 0  -0.8940268076556084 -0.8967679289978234 0  -0.57506806124156 0.2388243597915265 0  -0.4785823807966931 0.0886654236545793 0  0.4919168010517513 0.8267995874195005 0  -0.02726093513846672 -0.2609627268155685 0  -0.3109817284543931 0.8758927503313013 0  -0.1445307873112936 0.08161103452698312 0  -0.4715030045603114 -0.03458340560184361 0  -0.390337651658732 0.01277169474905898 0  -0.2939547853655754 0.02839386822576751 0  -0.3869219509492932 -0.1206245708020672 0  0.8884222828711801 0.6988907882130811 0  0.7931614895890404 0.9111199775348352 0  0.5770789798637851 0.2095319089013514 0  -0.5610197516916633 -0.4708071963325259 0  0.599765600945439 0.7075044230340518 0  0.6788366441967845 0.8888615178681135 0  -0.05258907405945943 0.3054374371406673 0  -0.9024097513430274 0.9048721337446411 0  -0.1286783139066789 -0.06666149176739851 0  -0.1701458677833937 -0.1829507011521688 0  -0.253999952728002 -0.143941070130989 0  0.035976631196537
[...]
<PointData  Scalars="w"> 
<DataArray  type="Float64"  Name="w"  format="ascii">1.7033339093578291e-10  1.0301435588212509e-11  4.4498789989151902e-10  1.9749595217724639e-09  6.2447321982651860e-10  1.5638384795429669e-12  8.6489993396460797e-12  7.3719232098342289e-11  3.9651307271218136e-11  2.0886546849606230e-11  1.0507429767287711e-10  9.4305063378389850e-11  4.0916734520768195e-10  2.7030098110795286e-10  9.0198480952253999e-12  5.4551046927782732e-10  9.0975611717082820e-11  7.1659634287099382e-11  1.3132329309211000e-10  3.4690947590390320e-10  6.6595465656114616e-11  1.0477330140910862e-10  5.8236678249048723e-10  1.9262154762891692e-08  5.7440740180360144e-10  1.0542835391716997e-10  8.7315149509445663e-11  1.7388967684676595e-10  7.5813584470890628e-11  1.8710693076492165e-11  4.7411891209786312e-10  9.5599546708273678e-11  2.3732205229815858e-10  1.7663592528815712e-10  4.6604265666329241e-10  2.3025050636556712e-10  7.6230262944109908e-11  4.7160400242812338e-10  5.9162750480731500e-10  3.0857964637934837e-11  5.1436056281139584e-11  1.0641669921898327e-10  9.0458294069664351e-11  1.9248188079639927e-11  1.0568326323440016e-09  8.7508733472632974e-11  3.1719089689512968e-11  9.3988346304837671e-11  1.2698456130090147e-12  5.9876419189163029e-10  2.2650105618292880e-10  2.2160842706964781e-10  8.1234302862171233e-11  2.5330510293834832e-10  2.5575981872146723e-10  1.9687140152256302e-10  3.4582010334279948e-10  8.8387786778567020e-11  6.0618191142727626e-10  2.5068211571772494e-10  3.0770577755653030e-11  3.1795183858315816e-10  3.7658237947631336e-10  1.4173710928277957e-10  5.3430337004670795e-11  1.7629522193979851e-10  6.8926634401640878e-11  1.7448499837735949e-10  2.3185107811005420e-10  4.4872754330128373e-11  6.2911747578859726e-11  4.5814182460820802e-10  5.5234123249292502e-11  8.6284176486337033e-11  1.7452627803334368e-10  1.6744986475365483e-10  2.5987633079496392e-10  2.8655676525344788e-10  1.8229519507746397e-10  1.8972548223629998e-10  6.3826894932443150e-11  2.5174363302734305e-10  2.7859475392252663e-10  1.9815861945885288e-10  2.3720254832740017e-10  1.2133799773706561e-10  4.5213505799687338e-11  1.0865168824392013e-10  9.3019422410418348e-11  2.5323207098687432e-10  6.9330930234910830e-11  9.7262947730579860e-11  7.6014248144412346e-11  9.2129422533982747e-11  3.9907277377903991e-10  2.0713318397010628e-10  2.5135304949430094e-11  6.9202703014191942e-10  2.5396665365440037e-10  3.1054041741217876e-11  2.6868749607201257e-10  4.1959145628738401e-10  7.1097041619860778e-11  9.6335569959764063e-11  1.5331836758768865e-10  6.3665641197039626e-11  2.7559576181565017e-10  8.1546352174728676e-11  1.4268267818819579e-10  6.4227770589724278e-11  3.1670779749959096e-10  2.4005728559811295e-10  2.4227657845257542e-10  6.3678219657820168e-10  1.2138024150058091e-09  1.4723904288442741e-10  1.6861459716577835e-10  1.0131534640330178e-10  4.6403317733218707e-10  2.5560766086113647e-11  2.5402648771147160e-11  2.8719943818095517e-10  9.2920683945908664e-11  5.9569184649392837e-11  5.1066591773391729e-10  5.5871514080431765e-11  6.1742327287620358e-10  1.1954625125435941e-10  7.5692712988568385e-11  8.1883442014807492e-11  3.4814596765281175e-10  1.6912716165588957e-10  4.7120867833973848e-10  1.3240236251949371e-10  6.5542294451083401e-10  4.3193324091519148e-10  1.0677114961457233e-10  5.1023919760295476e-11  1.3041201154758839e-10  2.5821998743237438e-10  3.7872526594827375e-10  6.2623418804777824e-10  9.0151405982263339e-11  1.1775460866838701e-10  6.7402680330700299e-11  6.5863166893704295e-10  8.3644223578369528e-11  2.5897790470625704e-10  1.4369972476787404e-10  1.2143707381110168e-10  1.9689983199218694e-11  2.8632641280768857e-10  1.5022979658985105e-09  5.6345658172893109e-11  9.6813951400281034e-10  7.7192221993585716e-11  2.3752501193942445e-11  2.3816279565234891e-11  1.2026955420425804e-10  5.7782455343626923e-10  4.4999943721362617e-10  1.6101126908442828e-10  1.1221378926027670e-10  1.6319578144007234e-10  1.8561127069235856e-10  5.7308678470715037e-11  7.6363124523282872e-11  2.0156805558035391e-11  5.8625804792642193e-11  2.8581310988970158e-10  9.1731346206373024e-11  1.0404109669688263e-10  8.2072861535130860e-11  9.3894427020825527e-11  5.2690753689981259e-11  9.4482180781148875e-11  4.5833000448767889e-10  5.6128271656434670e-11  1.6368310234265307e-10  1.7594025962062430e-10  4.7622356778462970e-10  1.9546044123477408e-10  2.8994941996479769e-10  1.4444104006647332e-10  1.4401404421475026e-10  1.4637600736612755e-10  2.0759684495740333e-11  2.8074937006784481e-10  6.7256061075328384e-10  2.5045584155077443e-11  2.6110293843110827e-10  8.6859692212618544e-11  1.5717017177465497e-10  1.1882267369229664e-09  1.3698551013745784e-10  1.6539791222524594e-10  2.3131958400220325e-10  2.8812568870896778e-10  1.0405397460811299e-10  2.0479372004499007e-10  4.1257101368108918e-10  2.1487098164055119e-10  2.3734508794339724e-10  1.0896270570757701e-10  1.1069662584611651e-10  1.1074002205435652e-10  6.9212240374432649e-11  2.0925751318987498e-10  9.0278472288661207e-10  7.6657512347755656e-11  1.0633994023923297e-10  7.7244859904155627e-11  9.6018395979956677e-11  1.6147004727413954e-10  3.7826416183356263e-10  7.7644912407438404e-11  8.1824419568900323e-11  8.2129258019921226e-10  7.6103615878061454e-10  2.9478928760962061e-10  2.0029896344321725e-10  7.9104651003546311e-11  7.9226605152512995e-11  3.3144831807454878e-10  5.7078655302742020e-11  8.0879027815455815e-11  4.9332701219113980e-11  9.1673178848972238e-11  4.0195118668182217e-10  8.8535399441656957e-11  1.9823117410858831e-10  1.6404715282530173e-10  9.2857352716818423e-10  6.0338518134518056e-11  1.9303427531292322e-10  1.1631646552435500e-10  1.0944307133278106e-10  7.6680559354489323e-10  7.2830619521864252e-11  8.3224116201392716e-11  1.1762673512785001e-10  1.2078743665722569e-09  4.0120622659508618e-11  7.6978900021253928e-11  2.8410750288625478e-10  2.5436389847592049e-10  3.4614686338821840e-10  1.7775718533225145e-10  2.0338177284410045e-10  4.0607793959871073e-10  2.9032272647777541e-11  1.0355641173558255e-10  1.2649118259267294e-10  3.6931853740331345e-11  2.8315299307266049e-10  4.3051563702498322e-11  3.4243351289060963e-10  1.3558935872758047e-10  1.1007910286677256e-10  1.9322139011573156e-10  5.0075312914364787e-10  7.1980815205210771e-11  2.6414355521633803e-11  1.4491835310134154e-10  8.1386163110120530e-11  5.8220117466499173e-11  7.3959814347910400e-11  1.7988918827721954e-10  4.8501715072667017e-11  2.6913267789488601e-10  2.5749346874079832e-10  1.3105684167374796e-10  1.3215987651017005e-10  1.3361234123452164e-11  7.1736651723635192e-11  1.5064779972693901e-10  1.6389846613009582e-10  5.2014557196897143e-10  3.6590094144050301e-11  8.1379548638879155e-11  3.3220779849382728e-11  2.4691939644510030e-10  1.2359738261290926e-10  1.8041307461554108e-10  7.5304406248530704e-11  8.4755017575703475e-11  1.2033299257651840e-10  1.9943755705368872e-10  2.2588771600576075e-10  2.6138775496716082e-10  4.4959770258437390e-10  2.1294887250616153e-10  2.1329668513409125e-10  1.4259186838638862e-10  7.9725508436960612e-11  1.6959928620430216e-10  1.6604329426181001e-10  6.4406311268631903e-10  1.2770028621340120e-10  6.1805018036646464e-11  4.1207947321769293e-10  1.9617456484628371e-10  2.0160265921568902e-10  1.1663654012034818e-10  3.2026542140660892e-11  4.4342478055076504e-11  9.6379992509406478e-11  7.0496614244104583e-10  3.0162073601030941e-10  1.7953553994893444e-10  1.3321163474662723e-10  3.3677322832878764e-10  6.7280408913977025e-11  1.1063949528136227e-10  3.5957024902920518e-10  1.1318359466297866e-09  9.7590756257359611e-11  2.8916876874237708e-10  6.3357676812725077e-10  1.2664901968286664e-09  2.0490906527644952e-10  1.5823933639137999e-09  4.2870070680667218e-10  2.2613002367179835e-10  1.2140068968679619e-10  4.0652602910168974e-11  6.4478608771271272e-11  1.2642723838727626e-10  1.5458664081571290e-10  6.2363622847294623e-11  1.0038320675603612e-10  1.0741501440512995e-10  1.2653777391932722e-10  1.9870680142709846e-10  5.1936003400583169e-10  3.2240040164928768e-10  1.6493397281593161e-10  9.4676463209562573e-11  6.1181322926747182e-11  5.9049634512951462e-11  6.9705794466528211e-11  1.7913205658925620e-10  2.2123673072096847e-10  1.0313498976282970e-10  1.0197375299837234e-10  2.3438209876541843e-10  1.3481304466596861e-10  6.8081591093165023e-11  5.8593243111739066e-11  1.0532806375423950e-10  3.3561105444941947e-11  1.8052386740871152e-10  3.2250092182021255e-11  1.6148852331990462e-10  1.8030824534029529e-10  1.5339854844060525e-10  3.9211500786806624e-10  7.8947917817342310e-11  8.1631611838634660e-11  1.4128487258513213e-10  3.0137698652203431e-10  1.4506553876421562e-10  2.6267821604840984e-10  1.0934553420307249e-10  1.3254862956982278e-10  1.5105554831870983e-10  2.8869077475757740e-10  1.2937753114282374e-10  3.3066174563095631e-11  1.1435281498412652e-10  1.1117477889475921e-10  1.4493819508849128e-10  2.4469990125506968e-10  1.6696673103995530e-10  3.4342406630526720e-11  1.2769858436003594e-10  2.3797437043696279e-10  2.8830970715966312e-11  3.2963367979199223e-10  1.6761416098988417e-10  4.0881803290955094e-10  1.1227676336547613e-10  2.3105639774968145e-10  3.2177603567116273e-10  7.4025182360382352e-11  1.0441185034070763e-10  2.1493447551351655e-10  7.1624951314578521e-11  4.9043756152003216e-10  1.6264764921488525e-10  9.5935381144537401e-11  1.0663215517721110e-10  2.0610224071694705e-10  5.5304887576743265e-10  4.9401851654259849e-10  1.7683613482680240e-10  1.6835131275789338e-10  2.0241055752821806e-10  3.9216625313460946e-10  4.5045158898225332e-11  2.2095507673004108e-10  8.0796141569221169e-11  1.2734400387258807e-09  1.1726931960445138e-10  4.5588679192566872e-11  5.7897335873405683e-10  3.3901958607224812e-10  2.4649550786379519e-10  2.0495249901071491e-10  6.2857097370469847e-11  1.5057142322269664e-10  3.2646636818208374e-11  4.3608605673084694e-10  8.0106618782786909e-11  1.3400283701912512e-10  1.2569990547452907e-10  6.4767099308059779e-11  3.4533577825794573e-10  4.2316636458468602e-11  1.1453858606841692e-10  2.4701704937284208e-10  1.7959239821165822e-10  7.3441721625053220e-10  9.0961402443114085e-11  5.8246746524831635e-10  1.4420100995134346e-10  3.6543375959877806e-10  5.2740727233125727e-10  2.4753552942279621e-10  1.5415427400824785e-10  2.7759462819277468e-10  4.9697099512946636e-10  3.4437269647353115e-10  7.3962115115078926e-11  4.8634294106496746e-11  1.6657177454551623e-10  3.6805626936786227e-10  1.8072450565562644e-10  1.2434382772576248e-10  1.6599856251557767e-10  7.9723743300423099e-11  6.9493895671068241e-11  1.9777947696018151e-10  5.6770347694936904e-11  2.0372364177683853e-10  8.9947924024415425e-11  4.8819397131889518e-10  4.8027658950192315e-10  8.0795523222953999e-11  4.1342564119553658e-11  4.0218618879690066e-10  6.5785663024056586e-10  2.5870044695079873e-10  1.0320792268397218e-09  2.9201238636535816e-10  3.1958213967016516e-10  2.8459105898480145e-10  2.7359419524905525e-10  9.6017191159609212e-11  3.0977565804527550e-11  1.9189701567898885e-10  1.0325604821918797e-10  2.1067078909478610e-10  7.5386303638725943e-11  1.1924064340744346e-10  2.0522145198701651e-09  1.7719200175088747e-10  8.0051628620782655e-11  8.1045804845405148e-11  4.1513010449220990e-10  2.4459836811218281e-10  1.8968471529797261e-10  2.0852486607425138e-10  4.3735928168267727e-11  7.9116631229774362e-10  2.4116809502551919e-10  5.3472377122634461e-10  2.4941162413490724e-10  2.3671325973511014e-10  3.0731569304657915e-10  9.4504796220895364e-11  3.2803260382749427e-11  3.5769151883464919e-11  3.7861862091358938e-10  3.5347912461927778e-11  1.1378211592266261e-10  1.0373729938214764e-09  7.4560162702009150e-11  3.4249155959588623e-10  2.5945393536577846e-10  6.1399023263483470e-11  5.9110976102071397e-11  1.8397755117940985e-10  2.4748851774703310e-10  4.7185881758441420e-11  1.1277707089564161e-10  1.5743672897120687e-10  7.5779494306323904e-11  1.6634725117258865e-10  2.1820543341663722e-09  3.5525566333961529e-10  3.2069957571574130e-10  1.0825181536971355e-10  1.0552021752889825e-10  1.8244333147642774e-10  7.8304008876464580e-11  1.3273997313087595e-10  4.9274753632124666e-10  8.5821953486903599e-11  2.3471625244033985e-10  2.0932428374515703e-10  1.4048750927993284e-10  5.0174788616388766e-11  7.5500144312360140e-11  5.3405245843876052e-11  7.2795653832275847e-10  1.0422495932835506e-10  2.2022197567728531e-11  5.7424916606720140e-10  3.0056123819446456e-11  6.2253298502615574e-10  1.1698649717888322e-11  1.0021157872378741e-10  1.8009666861646568e-10  2.4985922084829206e-10  1.0171088455011336e-10  2.8476444607488173e-11  8.2490286676211260e-11  2.7432071888052759e-11  2.0181593665222115e-10  3.7286784646722628e-10  2.7061225529438813e-10  2.9722115582676248e-10  1.2948084378458221e-10  9.2338187712036355e-11  6.2356800013776492e-11  3.6792806972907909e-10  4.9755486306994016e-10  1.0368561107801259e-10  9.8515001744026345e-11  1.4382334359275837e-10  7.5192075535999857e-11  4.5052012755182722e-11  5.3391188113119156e-11  3.1496389525052193e-11  8.7953147680811160e-12  1.7621301485182308e-11  9.6367390949151475e-11  2.2186885998044704e-12  1.0885098244937689e-11  1.8942992902443046e-10  3.4979472762974186e-09  2.1735694372462455e-10  4.1464982811477925e-11  2.1937587153709157e-10  9.0809580397124408e-11  1.1119168515822359e-10  4.3228679119117209e-11  1.6807065572797258e-11  8.6244976033333344e-11  7.9005296418394450e-10  7.8846499368115140e-11  1.8419358425560451e-10  3.2346542559534599e-10  4.8380502932690162e-10  9.6414353150182193e-11  1.0169624116447207e-10  5.7738223732718604e-11  7.6646131680090126e-11  1.0912184493413864e-10  5.5627111662771498e-11  6.1345535161405378e-10  5.8842216949336823e-11  2.8600210031438746e-10  8.6960309590445082e-11  1.2718407939924844e-10  3.0220345290101807e-10  4.1098173889074367e-11  6.1343328948870952e-11  2.7504501449440004e-10  1.1624238553979548e-11  1.1137546402037922e-10  8.7670245464749474e-11  7.5999866376031611e-11  5.6615517259784656e-10  1.6297035632897186e-09  2.9545047340816814e-10  2.9389049736501896e-10  9.0079506640299845e-11  6.7963118540628621e-11  2.4914178638718749e-10  1.1566016034887937e-10  9.6698963947883973e-11  1.0273351395905765e-10  1.9289796796325621e-10  7.2430328733208576e-11  5.1666825804511072e-11  6.9487727513550453e-11  3.9123275378903030e-11  8.5166370559978114e-11  1.9493851013663543e-10  1.6298211947899907e-10  1.1269185519168320e-10  2.7985886682839001e-10  4.5846437702124598e-11  1.3527884799698865e-10  5.3405232972929446e-10  6.5216447237675569e-11  1.1693652304823365e-10  1.3596271635877143e-09  5.7129365634197330e-11  3.4595149372324912e-10  5.2803007422225719e-10  1.5920272545222623e-10  1.2683406716372915e-10  1.2558999224245281e-10  8.8779826128054983e-11  2.5912496248613290e-10  2.9138787674330445e-10  1.7686151289226757e-10  4.7889655054121280e-10  4.2817305919980834e-10  1.1839408661399516e-10  2.0504947683220386e-10  6.5328385878740900e-11  8.3050955187470161e-11  6.1879580817219032e-11  2.3588975665158024e-10  4.0144099435997226e-10  3.0872687695933224e-10  3.2628155215824286e-10  8.4512685938689722e-11  2.3556043140484655e-10  4.9115947169968018e-10  1.6797680045374262e-10  4.6664603398907719e-10  1.8058804584517954e-10  1.3697007754336265e-10  1.1052474154696153e-10  5.0522462276483979e-11  5.3047811700827970e-11  3.3183509090871974e-10  6.1431470890805817e-11  6.3839379625644848e-11  1.2778016561213987e-10  3.1991529049281702e-10  3.1681539039578657e-10  1.5722192696801849e-10  1.1734391915540379e-10  6.2591923438113402e-10  6.4565499298760787e-10  1.7092181384190124e-09  2.7828539115752002e-10  2.0451260088356233e-10  4.5627108233347203e-10  4.5347592728333139e-10  1.2319950592096833e-09  3.0444709421550672e-10  2.4097633389547663e-10  3.2493640179242352e-11  1.2553459985943283e-10  3.3341980896731655e-10  5.0073039798276654e-10  2.1604888449954251e-10  6.7101877096675341e-10  2.9645483530431455e-10  2.1188042248869712e-11  4.8002160847912370e-10  3.3722868634842911e-10  3.8414041479359527e-11  3.3707022849400199e-10  4.1325395104810449e-10  5.4845959870244010e-10  1.4555633054154047e-10  6.7057905547397398e-10  1.9353403561355616e-10  4.6679989670453436e-11  1.2651063311221068e-10  1.3098484986914540e-10  3.1619562091916391e-10  7.6811524016950254e-11  2.5716044618975040e-10  1.9218212029015256e-10  7.9992256494834810e-12  2.1639779932295282e-10  5.7015076888401531e-11  8.9233824624136151e-11  1.2223852800699426e-10  6.5606709372050976e-10  4.2180985767312802e-10  3.1303521729102826e-10  1.1653029536310231e-10  1.2934524926576823e-10  9.7425965135028115e-10  5.8084595173404422e-10  1.3306783643260063e-10  1.4205068953388413e-10  9.4086969118883312e-11  4.8825726069241358e-10  1.3458685808274337e-10  1.6996728966387739e-10  9.2538730450316183e-11  6.9861214923185141e-11  6.2764693080872802e-11  1.4657923159925110e-10  9.6628292304473218e-11  1.2646164643704830e-10  4.1331786986834469e-10  7.5112895932310587e-11  6.1324605525750301e-10  1.2255516551912460e-10  2.2502522628115631e-10  2.7233430683422154e-10  5.7725618255840891e-10  1.1500303919538868e-10  3.9832908404975651e-11  6.1488768583581091e-11  1.4195890601198799e-10  1.5823093310842546e-10  5.0452721635116305e-10  8.2699584605544290e-11  1.5699497550390419e-10  2.4704873990329464e-10  1.3837589100192573e-10  2.3406773338018519e-10  3.3704919203686546e-10  3.1653352200393303e-10  1.0159375117352567e-10  1.7298208580493792e-10  1.4802696725473093e-10  2.2686549792461886e-10  4.5458906773806476e-10  3.7758708267436995e-10  2.0265727579004688e-10  1.9629306618489201e-10  1.2211999589436729e-10  1.7004131384300889e-10  3.0726279607306654e-10  3.8233125237120256e-10  3.6433065154819179e-10  1.6665961756390363e-10  2.2052352899274970e-10  1.9336725525020988e-10  1.4883715336544357e-10  3.9546998383209099e-10  3.1172088813156157e-11  1.0405089114513077e-10  1.2656889233491839e-10  3.5478592304604336e-08  4.0448240700033328e-10  1.7274644125938120e-10  6.0661840465504707e-11  2.6072788357281501e-10  1.3568920609535753e-10  6.3045031740485078e-11  1.0333816488247915e-10  2.0393155799035489e-10  2.0322827793573746e-10  1.9138309207146232e-10  1.8528794266673376e-10  3.0495376562654908e-10  6.3369915850804974e-11  7.9102419930635029e-11  1.8782671200916762e-10  1.2272276805613215e-10  3.4796603107284300e-11  3.9641280781514565e-10  6.3339496032968916e-11  6.0599224273019641e-11  1.9313368497188016e-10  9.7078507691827588e-11  2.3486265618762662e-10  2.9093607594579389e-10  2.1671387316764232e-10  8.1985435184492142e-11  1.8297773641701888e-10  9.4757023394177190e-11  3.1964548716902134e-11  8.8825614237938148e-11  5.7863224989156207e-11  7.9678113459399290e-11  2.3423262505776211e-10  4.6066211574577133e-11  6.4959545624119847e-11  9.3463150610675498e-11  9.1541792395815140e-11  9.2859197876537651e-11  2.6490382557560466e-10  8.7392100049003787e-11  1.8249999551456845e-10  2.0637505394111605e-10  1.0215595827560490e-10  1.6113636619194691e-10  3.1497838510470641e-10  1.2162425181931006e-10  6.3985964184944469e-10  1.6733101286189645e-10  1.4731344806924986e-10  1.4067422829137135e-10  2.1961554733870477e-10  4.3527319867165529e-11  3.9184340451974684e-11  7.5325877658480052e-11  4.3371086673668200e-10  2.0454757784802634e-10  6.4614871341743645e-10  4.5139069246378791e-10  1.1951280568345578e-10  5.5974054481071483e-10  3.6255910904496079e-10  1.8538507168618217e-10  6.9500687197967593e-11  9.1645021951825412e-11  1.7577583226865892e-10  1.8947476494305725e-10  4.0851958634607395e-11  4.8383150416856184e-10  2.7744167971460735e-10  3.0935058704721943e-10  5.2213807487130650e-11  3.4893689599095375e-10  2.6569896978525759e-10  6.0042237143503211e-10  7.2005871392685119e-11  6.0489490349994120e-11  2.4135651878116114e-10  7.1095639857479348e-11  4.1675011261685321e-11  1.4304345101778964e-10  2.3995697549107091e-11  6