<?xml version="1.0"?>
<VTKFile type="UnstructuredGrid"  version="0.1"  >
<UnstructuredGrid>
<Piece  NumberOfPoints="4852" NumberOfCells="9430">
<Points>
<DataArray  type="Float64"  NumberOfComponents="3"  format="ascii">-1 0 0  -1 -1 0  0 -1 0  0 0 0  1 0 0  1 1 0  -0.9999999999999999 0.9999999999999999 0  0 1 0  -0.5 1 0  -1 0.5 0  -1 -0.5 0  -0.5 -1 0  0 -0.1608775713298009 0  1 0.5 0  0.5 1 0  0.1967448868031411 0 0  -0.340484010960482 -0.1754754514088627 0  -0.3362956072524871 0.2239637889986191 0  0.1739902003221183 0.3456676405831751 0  -0.1847927419660089 0.5545579840074817 0  -0.5040794169639325 -0.5373377612151252 0  0.4904688602772843 0.2568123401521588 0  -0.06407593754427111 0.2006420316930326 0  0 -0.5061325913258391 0  -0.25 -1 0  -0.5610068667155804 0.5772723388310959 0  0.6615788711740888 0.6339998390294972 0  -0.1751959563459585 -0.5374620587283416 0  -0.5385040172825846 0.02546560922994701 0  -0.9999999999999999 0.25 0  -0.2057273206708846 0.0237120446818754 0  -0.6541304735392065 0.3092761941080686 0  -1 -0.25 0  0.03933240054650108 0.5912684266731704 0  0.1950943258489763 0.1285655154317255 0  -0.1361557528459487 -0.2197770113467628 0  0.371145761130928 0.6141966736848936 0  1 0.25 0  0.5355652144809806 0 0  -0.7499999999999999 -1 0  -1 -0.75 0  -0.6450731052788602 -0.3228871024218118 0  0.25 0.9999999999999999 0  -1 0.75 0  0.02757118475249542 0 0  -0.25 1 0  -0.75 1 0  1 0.75 0  0.75 1 0  0 -0.02898318711980711 0  0.05431539655454187 0.1419480545068826 0  -0.07752391886502008 -0.02779404429993132 0  -0.7008859335396024 -0.1322794056443021 0  -0.3216902002463211 -0.3469265898027704 0  -0.3398452581206166 0.4370033636267712 0  -0.09986157375124487 0.7639997896737486 0  -0.3830561502138593 0.7023088383986642 0  -0.05458459162377515 0.3984206922229951 0  -0.07866705676758447 0.07178770101275807 0  0.3589104917867645 0.3691239852652796 0  -0.7162901622553606 -0.730102528819815 0  0.4118096685027938 0.08976453126866474 0  0.6899576259255937 0.1915205992726426 0  -0.7474618210063018 -0.5271266485514531 0  -0.3877322925189996 -0.7104103868422907 0  0.721585924000937 0.4185884575798215 0  -0.7757020602130581 0.09700191742348195 0  0.196819990084742 0.6983112460820218 0  -0.1982792539642452 0.2880453483239185 0  -0.7987489157484505 0.5773407803224684 0  -0.7165262480195114 0.7662564741098522 0  -0.05034148222322386 -0.3738443044425999 0  0.5848641435093525 0.8164322802861392 0  0.8204465020304649 0.8061499828719489 0  -0.1024960826282536 -0.696709258609961 0  -0.5140725291471639 0.1625544490041133 0  -0.2013748277350149 0.125359712449067 0  -0.3586625964122178 0.07521235450649104 0  -0.3647114975944674 -0.0522897716958101 0  -0.4962297806123548 0.3948413988813609 0  0.375 1 0  1 0.125 0  -0.01173963746813422 0.07106766208720364 0  0.0622981847141662 0.3913270804068887 0  -0.1711543639405874 -0.1222332204458446 0  -0.2427244029231214 0.7734156644864232 0  -0.625 1 0  0.5333840702430612 0.4540423620005853 0  -0.5763444271565173 -0.830028275170943 0  -0.2571506478296729 -0.7833015244320406 0  -0.3197921065901888 -0.5081407372898495 0  0.8339319704886904 0.5955290355311941 0  -0.5486364168262915 0.7905914748765349 0  0.125 1 0  -0.06732657137768765 -0.09337150338666467 0  -0.4942288421367336 -0.1430577169965944 0  -0.875 -1 0  0.02959259810031897 0.04150855746948356 0  1 0.375 0  -0.8750000000000001 1 0  0.05739596956608604 0.793702447844109 0  -0.1957022248381732 -0.3734744899485599 0  -0.07260032358018075 0.5706362440386326 0  0.2365106868047121 0.5175048657188405 0  -0.7920434150170831 0.229473858933382 0  -0.4952478826670561 -0.3888071703014829 0  0.0003222452205218511 0.2706924467620532 0  0.5100002090850773 0.640111022497671 0  0.3989789310151507 0.8072075041617098 0  -0.805968848004279 0.4243782318001978 0  -0.06400152486195784 -0.2205932400041537 0  -0.7093141660550421 -0.01408216941021342 0  0.09052310158574516 0.05233789981301945 0  -0.4780331444719121 -0.2509783195148012 0  0.7238582571091522 0.08282742425355791 0  -0.8085489973937147 -0.4110593804336105 0  0.3374911741831075 0.1533017669727737 0  -0.7943796448652306 -0.2506703874886037 0  0.2363100670586671 0.253945145009669 0  -1 -0.875 0  -1 0.875 0  0.1843073623331445 0.04777012573790806 0  -0.2473917602872671 -0.2288056312512944 0  -0.9999999999999999 0.3750000000000001 0  -0.1707314629661144 -0.04172189956462022 0  -0.6485303966646635 0.4673940497630588 0  0 -0.07736776745332727 0  0.08053320226410196 0.2594623411203878 0  -0.375 1 0  -0.2164948180472853 0.424378312171892 0  -0.1197046205482373 0.1498518967228333 0  0.1333177865596734 0.553815376780792 0  0.1319879564113687 0.1934270029709005 0  -0.4743214798417861 0.2693552332586473 0  -0.04605629199802658 0.01387552111510892 0  0.8513705319564592 0.3702679948037939 0  -1 -0.125 0  0.2857126411860432 0.8366856882644972 0  -0.1104180077656996 0.3126183537758405 0  -0.125 -1 0  0 -0.7575037395175259 0  0.07821397079968176 0 0  -1 -0.3749999999999999 0  -0.375 -0.9999999999999999 0  -0.625 -1 0  0.7474787146812756 0 0  0.625 1 0  0 -0.2918843213980812 0  -1 0.625 0  -1 0.125 0  -1 -0.625 0  0.3284075310660084 0 0  0.004929205892015135 0 0  -0.125 1 0  0 -0.006571003003944568 0  1 0.625 0  1 0.875 0  0.875 1 0  -0.5630256011814788 -0.6763921506047924 0  -0.004513637038576082 0.1599246004455543 0  0.3623289236576668 0.2628006485426053 0  0.6529650674833888 0.2938424037896454 0  -0.8548514748795385 -0.6467871378931463 0  -0.8632103748578804 0.7868911192551661 0  0.4305069594523689 0.5011556701382016 0  -0.3985603442893754 0.8555973879617546 0  -0.7789209127112521 -0.8749451217272612 0  -0.870679220026976 -0.7845159240598365 0  0.1542031340503773 0.8420568558788623 0  -0.6581906068895592 0.1526854456552586 0  -0.5773497931305116 -0.0640089699232812 0  -0.8544250508619899 -0.06252561998720185 0  -0.2957075800052004 0.5619146704106293 0  -0.4234712047228577 0.5697248388661205 0  -0.375610374491505 0.3307815138631343 0  -0.6182884661436322 -0.2161829472424513 0  -0.2725306196142107 -0.08989485262936263 0  -0.6403393875603954 -0.5886069221263562 0  0.8596853496490734 0.2660615941080658 0  -0.03274471923736751 -0.03293645500052404 0  -0.05452593706159964 0.1143539140169339 0  -0.1334144707384012 0.4316599910631882 0  -0.1195021170572151 0.03231108512779374 0  0.5377654827036275 0.06456198540983847 0  0.5792278425780767 0.3591949041866653 0  0.6915681760696863 0.7749536302534417 0  -0.7932326942616099 0.8810002810789492 0  -0.643383892686797 -0.4291615357659389 0  -0.1153589853256302 -0.3973265560347501 0  0.8721249268205757 0.4888652491513827 0  0.07599995886619257 0.09367410890613692 0  -0.6645655276436842 0.8679139125977364 0  0.4546196274779764 0.350420015685982 0  -0.02619209825264941 0.03575449550600419 0  -0.409299805020868 -0.4399875108105296 0  -0.3618362047377318 -0.2684616614146529 0  0.3235675205856486 0.4815090132877697 0  -0.1956660491605031 0.201236441443228 0  0.7056680632043352 0.5310851443751966 0  0.2618041772374369 0.35577351804473 0  -0.3767505593459523 -0.8516449922350888 0  0.1093409584972143 0.6818266668300305 0  -0.2846590547436531 -0.6117694207018386 0  -0.4415349366187128 -0.6199763554459883 0  0.2962783105651041 0.6921783175244035 0  -0.8749060028873753 -0.1747208951482602 0  -0.1799730742274859 0.8547093957666244 0  0.4547157249344674 0.1632447619632663 0  0.2802640064864653 0.04662025689457322 0  -0.1421874418594499 0.6573252132171234 0  -0.01122776895138362 0.7085106551805804 0  -0.05330909768252647 0.8748136218695955 0  0.005585893509826124 0.4695442989658546 0  -0.3872337623278589 0.1533728275629371 0  0.5491573161825584 0.1331504733787242 0  -0.4758119583533124 0.6823093197610637 0  -0.8513498637707035 0.3329012913629402 0  -0.08970840570404712 -0.536033504718824 0  -0.02723324710483867 -0.5521476578680797 0  -0.2135750326682405 -0.2874377535605064 0  0.8684939321768036 0.1515413980441008 0  -0.1680432397302182 -0.6606400597869715 0  -0.8893607178357571 -0.5286300934633755 0  -0.2813678379512208 0.3380496678797285 0  -0.6761564022622283 0.5741431663893201 0  -0.8973954744787082 0.5314423372712137 0  -0.8982377939768914 0.6608554799187314 0  -0.6441410761769237 0.072409564241941 0  -0.8589834882374816 0.02858613977127372 0  -0.8880476122144833 0.1680074086596124 0  -0.1298233431852681 0.2286866989048164 0  0.1604416328522555 0.4458893636082062 0  -0.04347420177000148 -0.1257774855304231 0  -0.7533354343258217 0.6701445187150034 0  -0.6023708585067774 0.6980362689072998 0  -0.2540188141381375 0.07843298880512363 0  -0.2491899336735883 0.6486578237813914 0  -0.0273639491362098 -0.006374357275248706 0  -0.4944386200946031 0.8768524157042763 0  -0.476617932617136 0.490438543708074 0  -0.2900599492967736 0.1439125916267778 0  0.002319522602787283 0.02357618883155659 0  0.7795875045527383 0.6840489509170078 0  -0.4702046710231934 -0.8246070843950046 0  0.2719138511865417 0.1947806025104353 0  -0.147843003974439 -0.8628473689510209 0  -0.06351019979497646 -0.8289883786885874 0  0.4435492097461043 0.7059840636890991 0  -0.1168137230482831 -0.288388815101622 0  -0.2645696339302636 -0.02613867606200177 0  -0.8939287108612697 -0.8966336291213276 0  -0.5726403723030181 0.2371974966483154 0  -0.4758235920641276 0.08756713435307609 0  0.4913697247178337 0.8258044806604464 0  -0.02779980973632348 -0.2602415305743986 0  -0.310008437510073 0.8751581975355981 0  -0.1427172468363873 0.08039687735465594 0  -0.4690096699729331 -0.03483766674760188 0  -0.3876105869383016 0.01212722911054927 0  -0.2913536873476922 0.02753882867226073 0  -0.3846956700342158 -0.1202768175542145 0  0.8881537115711704 0.6984120944055677 0  0.7928269887615274 0.9108276185831768 0  0.5766249712893347 0.2078656920340206 0  -0.5603888862075119 -0.4692894989266042 0  0.5990541379898666 0.7061810116138481 0  0.6784396829770047 0.8883663480066377 0  -0.05080008729275878 0.3028396509298955 0  -0.9021029225082756 0.9046124702766222 0  -0.1273034876545489 -0.06706698739919151 0  -0.1689281946525196 -0.182392211251865
[...]
<PointData  Scalars="w"> 
<DataArray  type="Float64"  Name="w"  format="ascii">1.7559663150584467e-10  1.0349438730251518e-11  4.4421204820834384e-10  2.5812272910317605e-09  6.2417541681225104e-10  1.5711048920770270e-12  8.6849173842399033e-12  7.5463297913779870e-11  4.0862102243303306e-11  2.1237582814834027e-11  1.0663821102713456e-10  9.6123409592926821e-11  4.0292800611002213e-10  2.7676238589547322e-10  9.1542782050376622e-12  5.2395153327773185e-10  9.1007062241120707e-11  7.2410989387827269e-11  1.3079760027540179e-10  3.5714389752001396e-10  6.7666885159018017e-11  1.0504208148479922e-10  5.7466345870404628e-10  2.3357337835445873e-09  5.8681951222135873e-10  1.0872756465017643e-10  8.8876366364243790e-11  1.7506544138229904e-10  7.6764168358245219e-11  1.8992961250804044e-11  4.6867955502118406e-10  9.8330654819457693e-11  2.4203469674711006e-10  1.8112225340804103e-10  4.5302473057599247e-10  2.2704848628401443e-10  7.8190404125638916e-11  4.7711263925593097e-10  5.8665358775471677e-10  3.1225230557188826e-11  5.2048298313329266e-11  1.0769968171643960e-10  9.2674272781653172e-11  1.9914205694159775e-11  1.0462006396085175e-09  8.9019724089167151e-11  3.2303445734312766e-11  9.5613376868398173e-11  1.2553425742061288e-12  5.8759127695416046e-10  2.2049700753757814e-10  2.1323511258864672e-10  8.2354024163776296e-11  2.5381309358842855e-10  2.6280354211076693e-10  2.0347809777343371e-10  3.5641744504004742e-10  8.9619120986545416e-11  5.7764434638039777e-10  2.5262876497011848e-10  3.0915290140463246e-11  3.1467957138757334e-10  3.7904639528596799e-10  1.4414972871860857e-10  5.4450081849414185e-11  1.7846133162013552e-10  7.1117441049371850e-11  1.7754134743934677e-10  2.3333043477199432e-10  4.6021877979254192e-11  6.4023416100995777e-11  4.2472979108416633e-10  5.6683775321539909e-11  8.7430930400685509e-11  1.8036766421618057e-10  1.7097769499384338e-10  2.5749788976552077e-10  2.9180485674657018e-10  1.8278095333614114e-10  1.9485595147107086e-10  6.5355008290961254e-11  2.5225791810420244e-10  2.6169957596901423e-10  2.0183587906270805e-10  2.3458451608146791e-10  1.2458745331998327e-10  4.6993190470390515e-11  1.1055169232152667e-10  9.4240205659838780e-11  2.5900392366012736e-10  7.0086990784712379e-11  9.9467655633493626e-11  7.8156108617715107e-11  9.4953370623842944e-11  3.9010059256393034e-10  2.0966192670817829e-10  2.5338457579742112e-11  6.5035996756609424e-10  2.5734155735308199e-10  3.1723576443359591e-11  2.7751717888784020e-10  4.1797911627319022e-10  7.1549845024428203e-11  9.7813371686231683e-11  1.5801751237129491e-10  6.4207581943155183e-11  2.7400664141322794e-10  8.3798719138911673e-11  1.4635575961736293e-10  6.5968122678507157e-11  3.1165808640726939e-10  2.4640168656974815e-10  2.3111091887103079e-10  6.4281945006840131e-10  1.2093197299809035e-09  1.5052649730052326e-10  1.6483223394765280e-10  1.0344668821358547e-10  4.5862486599027279e-10  2.5687025207566252e-11  2.5798619191443122e-11  2.7743600269655285e-10  9.1776702495896187e-11  6.1447793748306244e-11  5.0186354022625139e-10  5.7790437279104441e-11  5.9607497086318675e-10  1.1892266532420708e-10  7.7554591582741608e-11  8.3110847093958285e-11  3.4233381397913084e-10  1.7425073258352596e-10  4.6449087435090691e-10  1.3607439379011454e-10  6.1769626177708250e-10  4.4407084939885606e-10  1.0937824766577320e-10  5.2282914132777444e-11  1.3038484139652494e-10  2.6292733599507714e-10  1.6629428551806793e-09  6.0208650164187923e-10  9.2309395875882547e-11  1.2024501906163933e-10  6.8465773164834187e-11  6.5609961924958320e-10  8.5931493883812845e-11  3.1774875903959194e-10  1.4827088360525717e-10  1.2501392267643200e-10  1.9924216656014272e-11  2.8298562006747245e-10  1.5696980942254136e-09  5.7665095841647354e-11  9.5736409672270396e-10  7.8856803758250692e-11  2.4276160065268740e-11  2.4173928040428367e-11  1.2220745009318420e-10  5.5956873028845348e-10  4.4669945762199325e-10  1.6115893298858143e-10  1.1395117963270336e-10  1.6759659399394970e-10  1.8804256892688109e-10  5.8982272897500160e-11  7.7061542433148683e-11  2.0372121953946968e-11  6.0382220326266068e-11  2.9486956290334686e-10  9.2653017371625923e-11  1.0637544825902779e-10  8.3636999341164014e-11  9.6732972374376564e-11  5.3600183104344178e-11  9.5868488570575377e-11  4.5624702486168763e-10  5.6709759200876754e-11  1.6420506953413227e-10  1.7109076906812158e-10  4.6348743304148066e-10  1.9877988137308290e-10  2.8250107821778887e-10  1.4290973862853000e-10  1.4533534781978096e-10  1.4960146709998096e-10  2.1069431121771952e-11  2.8462563479108377e-10  6.5326848277790474e-10  2.5622537074260616e-11  2.5117414803284792e-10  8.9045437148895148e-11  1.5824076921154522e-10  1.1033667813755158e-09  1.3812327275576379e-10  1.6377058458587202e-10  2.3399049171901800e-10  2.8842606742586204e-10  1.0576517649395299e-10  2.0489694039525376e-10  4.2129832820298966e-10  2.1840181379524898e-10  2.4141023855777574e-10  1.1074870952447851e-10  1.1269368517624332e-10  1.1346014756241379e-10  7.1291784552399630e-11  2.0836726426558761e-10  8.8273563491011141e-10  7.8663578128205706e-11  1.0946359535578248e-10  7.7933814906636558e-11  9.7223893392598653e-11  1.6296081487943965e-10  3.7744633527922778e-10  7.9039091892032766e-11  8.5041481853772718e-11  7.8612344967123100e-10  8.9159962234071575e-10  2.9479959398982694e-10  1.9994479197048181e-10  8.0868931747357617e-11  8.0518742166619153e-11  3.3716644809560636e-10  5.8834885777451717e-11  8.3241913441768305e-11  5.0270105902887065e-11  9.3477838436686949e-11  4.1594306976528852e-10  9.1030509681281124e-11  1.9795419735438474e-10  1.6625383124981678e-10  9.0225675731773450e-10  6.1775331586836738e-11  1.9928440739577514e-10  1.1550342855791628e-10  1.1284815753210991e-10  7.4413087758527945e-10  7.5023429997645837e-11  8.5271171138727317e-11  1.1822419717341980e-10  1.1043007752291942e-09  4.0956842580828900e-11  7.8324682654078331e-11  2.7868241777600993e-10  2.6360844531160063e-10  3.6023469740152817e-10  1.8258281874493840e-10  2.0414545505298217e-10  4.0466205015503780e-10  2.9269623408070700e-11  1.0561839823505078e-10  1.2865996956207450e-10  3.7708631757633602e-11  2.7295737841142690e-10  4.4408048023171684e-11  3.3245128032795911e-10  1.3648206854036301e-10  1.1065283720317326e-10  1.9171687878013625e-10  5.0299036174034715e-10  7.2992925756922657e-11  2.6789275589053745e-11  1.4515172524680758e-10  8.2258746760537445e-11  5.9431419989007042e-11  7.5946415450173052e-11  1.7969432955179199e-10  4.9767334184624579e-11  2.6298427880904143e-10  2.5479340081551597e-10  1.2893791411556209e-10  1.2844244732708502e-10  1.3524894486002222e-11  7.1523612311795166e-11  1.4619192656023446e-10  1.6920496767956622e-10  4.9614353087749606e-10  3.7170109166671211e-11  8.2622296222281501e-11  3.3545930542277159e-11  2.3825996627198077e-10  1.2641679608281324e-10  1.8522041619629507e-10  7.5289210701003699e-11  8.7921916890696141e-11  1.2165758625557284e-10  2.0385491200166322e-10  2.2382954439506222e-10  2.6230461093838385e-10  4.3709117034779913e-10  2.1476503220952314e-10  2.0971403769282057e-10  1.4629713790156002e-10  8.1116597631634825e-11  1.7342076268461916e-10  1.7017726481884291e-10  6.2372144681128713e-10  1.2880580274644162e-10  6.2928392319392489e-11  4.0686944634233192e-10  1.8952389453876379e-10  2.0810349333915882e-10  1.1913305284823855e-10  3.2498063615234371e-11  4.4949425159293836e-11  9.9184558893468212e-11  6.8241856019342440e-10  2.9263677180232902e-10  1.8179529126453669e-10  1.3710967189832722e-10  3.3983538636398552e-10  6.7970679581070014e-11  1.1101126005330069e-10  3.5119405332551603e-10  1.2741152508354285e-09  9.9044906256121797e-11  2.8218592621446624e-10  6.1200889099447082e-10  1.2252581924309973e-09  1.9691855159456954e-10  1.5225087482396269e-09  4.1786777357081485e-10  2.2587646613785375e-10  1.1911829541591988e-10  4.2003838610562227e-11  6.6438524360336593e-11  1.2632717277939518e-10  1.5710554630550596e-10  6.4231823340969826e-11  9.9004273252854921e-11  1.0747144631075207e-10  1.2863740752672206e-10  1.9224427309819898e-10  4.9588876860268984e-10  3.1888437202533370e-10  1.6648886013792435e-10  9.6881381261033329e-11  6.2157750829113477e-11  5.9599884782465598e-11  7.0470721065642791e-11  1.8303944390512643e-10  2.2479142971360468e-10  1.0645569047293027e-10  1.0607026532895407e-10  2.4041600137015158e-10  1.3705240638495333e-10  6.9717120137475903e-11  6.0057262983301628e-11  1.0573279206566307e-10  3.4373386071939843e-11  1.8657400176623946e-10  3.2855415089757271e-11  1.6116946739588984e-10  1.7936661566410722e-10  1.5329735458873144e-10  3.9712649699514775e-10  8.0041331478191265e-11  8.3923105086757709e-11  1.4449399982452141e-10  3.0569096899268115e-10  1.4649278703009579e-10  2.6353291319266566e-10  1.1138881901928201e-10  1.3588956969484393e-10  1.5689876495789400e-10  2.9239512724093086e-10  1.2767395590793140e-10  3.3728084639027902e-11  1.1712075846580271e-10  1.1257074373905310e-10  1.4933530302312477e-10  2.5245225857161958e-10  1.7047258756693582e-10  3.5265284193255476e-11  1.3052515978457349e-10  2.3649982151616125e-10  2.9259504637094794e-11  3.3062704605204066e-10  1.6383361087083620e-10  3.8769421139959980e-10  1.1404037145362646e-10  2.3547921672974288e-10  3.2622471769637150e-10  7.6088539428901040e-11  1.0600512068658711e-10  2.1874504955331980e-10  7.3222504183123782e-11  4.8497263431420025e-10  1.6012316084474952e-10  9.8707024129576733e-11  1.0872924611802687e-10  2.1038431182745701e-10  5.4002104512814068e-10  4.7644497438665498e-10  1.8023115480987640e-10  1.7179184729337007e-10  2.0805078579077505e-10  4.0383875269607468e-10  4.5800979103817393e-11  2.2516916190738274e-10  8.2374118284458864e-11  1.2385426606585185e-09  1.1869001747353002e-10  4.6316402549255041e-11  5.4813459046348917e-10  3.3426600009187050e-10  2.4760308692914173e-10  2.0997974567049186e-10  6.4476803710891235e-11  1.5439128848365911e-10  3.3576568037761459e-11  4.3839162316684180e-10  8.2453999047637369e-11  1.3939452168201816e-10  1.2819142682503305e-10  6.6292812730807834e-11  3.4986996508636060e-10  4.3710392246065311e-11  1.1846459259279256e-10  2.4550883309369413e-10  1.7939537681071319e-10  7.1115009754867280e-10  9.2756528465603976e-11  5.7499297695480544e-10  1.4720711719716895e-10  3.5322356731907830e-10  5.4748916065438333e-10  2.4401704730447418e-10  1.5581537402672570e-10  2.7190651070315709e-10  4.7907807723516151e-10  3.5242642172594375e-10  7.5958058749292232e-11  4.9108468857410413e-11  1.6350108529306741e-10  3.5601251145144887e-10  1.8628639588231567e-10  1.2675506925897645e-10  1.7220615121140110e-10  8.0689160446478091e-11  7.1244850799870055e-11  1.9980876217823938e-10  5.8209544047460709e-11  2.0804107567433761e-10  9.1096875525230440e-11  4.7905980709745878e-10  4.9410260101564935e-10  8.2197877436471098e-11  4.2179114463144508e-11  4.0185235915268409e-10  6.4792336431115446e-10  2.5935119590753442e-10  9.8181564929043339e-10  2.8820075114590889e-10  3.1705023042518546e-10  2.7163734774897240e-10  2.6554586143798985e-10  9.7890161435701742e-11  3.1310479832253341e-11  1.9496374314047911e-10  1.0747820505261044e-10  2.1645561423899686e-10  7.5354809009934395e-11  1.2211180344326212e-10  2.0349345776389596e-09  1.7712896195509810e-10  8.1178078156601665e-11  8.2097158376372239e-11  3.9859123797312141e-10  2.4351713118343245e-10  1.9000941690773844e-10  2.0887412455912369e-10  4.4522384949365062e-11  7.5510337302838156e-10  2.4201964617363759e-10  5.3005488580345768e-10  2.5484182039912024e-10  2.4368107358164877e-10  3.1288226498228775e-10  9.4707937007286783e-11  3.2961656424489213e-11  3.5964427439886676e-11  3.6698584024754075e-10  3.6532176941133251e-11  1.1781460634544483e-10  1.0189448950072616e-09  7.5212967441582090e-11  3.5061715534762505e-10  2.6315561779276074e-10  6.2060341935685616e-11  6.0025062166797563e-11  1.8024393854675349e-10  2.4499318993382549e-10  4.8093808414223927e-11  1.1382009520236476e-10  1.6117542946983882e-10  7.6411901091902974e-11  1.6937207080678619e-10  2.1191277702304162e-09  3.4079809710134982e-10  3.1948652728839261e-10  1.0713931695241990e-10  1.0721759226439576e-10  1.8855485485890899e-10  8.0350994662612439e-11  1.3423590472318517e-10  5.0092832492649314e-10  8.7591668329322637e-11  2.4298995525458594e-10  2.1450566166085146e-10  1.3890006743984429e-10  5.1052619669245028e-11  7.7950546009690102e-11  5.5369581014555583e-11  1.2097902317772323e-08  1.0719678637145092e-10  2.2094586543040155e-11  5.7061605082106932e-10  3.0675271667070378e-11  6.2086435881387103e-10  1.1766362356295388e-11  7.9866756647197493e-10  1.7560174054424353e-10  2.5513335155310699e-10  1.0485193538918457e-10  2.8885036227233067e-11  8.4792560796519758e-11  2.8118676589850824e-11  2.0434159511097539e-10  3.7255077666665660e-10  2.7168115260895370e-10  3.2709402483589972e-10  1.3421960804275703e-10  9.5316816872995507e-11  6.4003491400110924e-11  3.6034144371982514e-10  5.0290263214195248e-10  1.0503467032435011e-10  1.0068940557579060e-10  1.4747376599661417e-10  7.5749982769170862e-11  4.6174893942071419e-11  5.5369659346320459e-11  3.2458761199535970e-11  8.8267931375402968e-12  1.7770867853594212e-11  9.7956147800315359e-11  2.2534729680936718e-12  1.1065854295179710e-11  1.8570123502734965e-10  3.4879846883707720e-09  2.2611848619257701e-10  4.2161885177182697e-11  2.2222875912702333e-10  9.3096318036689662e-11  1.1225091634774421e-10  4.3565453735795867e-11  1.7224836357311645e-11  8.8775072231497663e-11  7.2451365970725135e-10  7.9369468181463971e-11  1.8347057026806478e-10  3.2440488518853264e-10  4.8346758339681766e-10  9.6553020733215988e-11  1.0220437574107322e-10  5.8766569512997846e-11  7.7410145154946019e-11  1.1255541990459215e-10  5.7088646824754072e-11  5.9962609395267923e-10  5.9264675725841554e-11  2.7723437031559371e-10  8.8519076842484725e-11  1.2814964081759862e-10  3.1177602333681933e-10  4.1728219820821655e-11  6.3717205491561872e-11  2.8738997067971075e-10  1.1903295327676616e-11  1.1310374996478706e-10  8.9045570687738454e-11  7.7182694792678835e-11  5.6137814029013274e-10  1.6137978134790041e-09  3.0839503868437065e-10  2.8903548166110207e-10  9.1196092085743253e-11  6.9414677895008558e-11  2.5560600526093242e-10  1.1693519055326713e-10  9.9317021819889874e-11  1.0484961383755657e-10  1.9837386271708086e-10  7.4155045759627908e-11  5.2115294355306715e-11  7.0182928248853145e-11  3.9491144515086142e-11  8.5927219699249852e-11  1.9111975601211251e-10  1.6180570222335267e-10  1.1172156327684127e-10  2.7867336610493011e-10  4.6979315612242229e-11  1.3701942235421931e-10  5.2091544869703119e-10  6.6988771770865278e-11  1.1888740283933813e-10  1.2937912383410019e-09  5.8246709291873664e-11  3.3712806063195058e-10  5.1067997812329340e-10  1.5830362594476390e-10  1.2831583989889873e-10  1.2610448692565161e-10  8.9633274680514842e-11  2.4701086686690149e-10  2.8602242297077666e-10  1.7732777152895409e-10  4.6715906081229541e-10  4.2272502159390145e-10  1.2189785071556081e-10  2.1070131214457213e-10  6.6475515064477671e-11  8.4931851109318923e-11  6.2778762141653605e-11  2.4041941314838108e-10  4.0111711095320143e-10  3.0774046421526215e-10  3.2629399739471127e-10  8.6268107926609082e-11  2.2708742919666237e-10  4.7875810001046386e-10  1.7033615826885099e-10  4.8315734121099961e-10  1.8468485199203377e-10  1.3865360023787734e-10  1.1258348324729043e-10  5.1318234554569385e-11  5.4280054014674402e-11  3.3880947596272375e-10  6.3001624708514196e-11  6.4309625870576697e-11  1.2914315305819550e-10  3.2259327868255120e-10  3.1967375321502610e-10  1.5750295135532293e-10  1.1775289001266319e-10  5.8882585456189451e-10  6.2652509814400915e-10  1.5917561085991154e-09  2.6700017563899388e-10  1.9845366025066950e-10  4.4192479219043263e-10  4.5739377331698650e-10  1.1619148814145196e-09  2.9617592872627050e-10  2.4651179383746521e-10  3.3308668299627119e-11  1.2969304519741021e-10  3.3467971524619552e-10  5.0148735516483786e-10  2.1106774298016547e-10  6.6895615923842286e-10  3.0572080605029606e-10  2.1665300476736527e-11  4.9029722461932889e-10  3.3324917654651074e-10  3.8856401548663904e-11  3.3460691171983933e-10  4.1403614941513839e-10  5.4542652772454256e-10  1.4595236740430908e-10  6.7306290143092128e-10  1.9664624583882503e-10  4.7714847677504881e-11  1.2795816381725522e-10  1.3325347332767143e-10  3.1578849566636633e-10  7.9212411132414936e-11  2.6377668694319420e-10  1.9630342206405046e-10  8.2141909041761496e-12  2.2045428644746625e-10  5.7913074516723948e-11  9.0815424568950359e-11  1.2416494107123849e-10  6.3102267655678088e-10  4.1119206223359618e-10  3.0333122633744642e-10  1.1783319806466158e-10  1.3183191996982595e-10  8.9521544680557265e-10  5.3735945094749581e-10  1.3485544053964911e-10  1.4292923762766272e-10  9.4741918639772385e-11  4.9099711787108097e-10  1.3890071562534858e-10  1.7515530609103630e-10  9.5113312848359390e-11  7.0954834061572918e-11  6.3489671186635136e-11  1.5035908489753036e-10  9.8833959551440124e-11  1.2875626107795413e-10  4.3088150337480790e-10  7.7571218495251142e-11  5.9422958577529999e-10  1.2586040327127600e-10  2.2466508210933064e-10  2.7924943544352846e-10  5.4739024736039696e-10  1.1697350928376960e-10  4.0765083135474636e-11  6.3222695242037093e-11  1.4259431081779404e-10  1.5981064593028916e-10  5.1649872331528686e-10  8.4443711898672254e-11  1.6407455764564246e-10  2.5306520558419892e-10  1.3983549963535288e-10  2.3809135378698238e-10  3.4098068742400915e-10  3.1171199693904954e-10  1.0494005729039553e-10  1.7528096699774313e-10  1.5000271639192460e-10  2.2855519040107714e-10  5.1209354410147890e-10  3.7388942687823948e-10  2.0194470388201846e-10  2.0435844266752708e-10  1.2611394114079693e-10  1.7260896461645295e-10  2.9972801218268436e-10  3.8101295542134000e-10  3.6169777717024122e-10  1.6630131944421615e-10  2.2036425713923060e-10  1.9758900620091343e-10  1.5391806485011581e-10  3.9899602233058502e-10  3.1965969267120802e-11  1.0583766048958414e-10  1.2804718975189132e-10  3.9751925327376841e-08  4.0765486651309857e-10  1.7623155169961803e-10  6.1323263599575861e-11  2.5670888997702015e-10  1.3799142764097751e-10  6.4743235889407601e-11  1.0569886426678182e-10  2.0258790308407919e-10  2.0690521969412610e-10  1.9687736726867590e-10  1.8943491587773677e-10  3.1110538802666750e-10  6.5823263288525162e-11  8.0482479385681367e-11  1.9153467792879377e-10  1.2287476033248501e-10  3.5037817683459283e-11  4.0399248661954723e-10  6.4928060339564679e-11  6.1845305843386770e-11  1.9523973204330954e-10  9.9713302668295699e-11  2.3767457474145180e-10  2.9183337362096218e-10  1.3444973839611863e-10  8.2498607702734007e-11  1.8832688988763887e-10  9.6677123747645913e-11  3.2371996504958023e-11  8.9779990312119744e-11  5.8696472250038935e-11  7.8818364266373836e-11  2.2445479094221667e-10  4.7210416554606078e-11  6.5823268309878619e-11  9.4546757918521729e-11  9.3787570859843855e-11  9.4325383075050281e-11  2.5230543751309926e-10  8.8040073251959057e-11  1.8645581822773153e-10  2.0526535133892156e-10  1.0134360653477061e-10  1.6078502576870030e-10  3.1546853121399582e-10  1.2450248594043502e-10  6.1377532361739499e-10  1.7095165529946181e-10  1.4992666756184572e-10  1.3822356414154250e-10  2.2749036113073313e-10  4.4092766144562511e-11  3.9792095249036760e-11  7.6996910854434965e-11  4.3271190579326668e-10  1.9965811335440117e-10  6.5705989523391701e-10  4.4249883709962578e-10  1.2156837118036184e-10  5.4744995662765788e-10  3.6457585335343215e-10  1.8889335228081981e-10  7.1504435979906982e-11  9.3769201764024133e-11  1.7511877203540470e-10  1.8772270910339053e-10  4.1751673691261733e-11  4.9575113247350416e-10  2.8382264666850840e-10  3.2649947805408224e-10  5.2953754053759991e-11  3.5191502030206320e-10  2.6801605369578389e-10  5.7633885935563539e-10  7.3143316296731406e-11  6.2080254065726684e-11  2.3955303897513259e-10  7.2728693895348999e-11  4.2824620709790234e-11  1.4767404887154813e-10  2.4479149215931010e-11  6