<?xml version="1.0"?>
<VTKFile type="UnstructuredGrid"  version="0.1"  >
<UnstructuredGrid>
<Piece  NumberOfPoints="4852" NumberOfCells="9430">
<Points>
<DataArray  type="Float64"  NumberOfComponents="3"  format="ascii">-1 0 0  -1 -1 0  0 -1 0  0 0 0  1 0 0  1 1 0  -1 1 0  0 1 0  -0.5 1 0  -1 0.5 0  -1 -0.5 0  -0.5 -1 0  0 -0.1608775713298009 0  1 0.5 0  0.5 1 0  0.1967448868031411 0 0  -0.3415570460557474 -0.1762961980690889 0  -0.3398007908892309 0.2265625879275721 0  0.1747248494007929 0.3481261390717564 0  -0.1875431786233451 0.5575978252347729 0  -0.5074230564722392 -0.5406082738091079 0  0.4903721389146631 0.2598715395705719 0  -0.06551686956797212 0.2023434568415456 0  0 -0.5061325913258391 0  -0.25 -1 0  -0.5687192522198825 0.5799898267902576 0  0.6643286152412743 0.6399814516355544 0  -0.1757285714941314 -0.5392361377757988 0  -0.5403368972916156 0.02536831448885588 0  -1 0.25 0  -0.2075546423884668 0.02379605187873814 0  -0.6571684489608576 0.3160572618073655 0  -1 -0.25 0  0.03910079176729819 0.5937868778698818 0  0.1953194789123451 0.1304115431095745 0  -0.1351216789222436 -0.2210648481389693 0  0.3724349376253799 0.6171777636863724 0  1 0.25 0  0.5355652144809806 0 0  -0.75 -0.9999999999999999 0  -1 -0.75 0  -0.6468278214064828 -0.3244866560676047 0  0.25 1 0  -1 0.75 0  0.02757118475249542 0 0  -0.25 1 0  -0.75 1 0  1 0.75 0  0.75 1 0  0 -0.02898318711980711 0  0.05409511856462819 0.1429644752856866 0  -0.07785424293147912 -0.02829067424018806 0  -0.7030053505440974 -0.1331604986941823 0  -0.3225615023956401 -0.3492412212556227 0  -0.3437068353809266 0.4395904192111834 0  -0.1005186244432878 0.7648872747332037 0  -0.3880547094446648 0.7053175577406189 0  -0.05468980669229612 0.4007826861351462 0  -0.07968838638428789 0.07175983831619327 0  0.3593621962369841 0.3735840414383449 0  -0.7228343683611156 -0.7353296443628979 0  0.4118907184435974 0.09179159708690475 0  0.6896469734321592 0.1958439422841959 0  -0.75139917079259 -0.5330998581259917 0  -0.3918674087610692 -0.7125395411946149 0  0.7208078573359495 0.4255900906635093 0  -0.7789343407514704 0.09975422897525321 0  0.2003636923924152 0.7015250625051753 0  -0.2001493640095545 0.2905542145932209 0  -0.8016964184131682 0.5835561877596778 0  -0.724475805626331 0.7692539705062813 0  -0.02804181209158322 -0.372050111308901 0  0.5892421604610668 0.8220818488598963 0  0.8240593898756243 0.813158527108129 0  -0.09833465322675942 -0.697668662027993 0  -0.5157625673435859 0.1672936566425089 0  -0.2033999761935716 0.1270131995236809 0  -0.3607826605716335 0.07602684281065356 0  -0.3668607044585484 -0.05147400785101813 0  -0.5018318019144958 0.3987671965522456 0  0.375 1 0  1 0.125 0  -0.01164411910794911 0.07146542166169777 0  0.06237770228394716 0.3940384714230185 0  -0.1728523160210901 -0.1225439975410637 0  -0.2486859284478448 0.7745180986418381 0  -0.625 1 0  0.5357442159846287 0.4594404382367577 0  -0.5826644272073102 -0.8321770159480733 0  -0.2594192744454838 -0.784006672938187 0  -0.3217447960964738 -0.5101697177279987 0  0.8347752081927539 0.6015986749293425 0  -0.5550698220248531 0.7931683310790927 0  0.125 1 0  -0.0673950507791774 -0.09362427822440755 0  -0.4979388862508732 -0.1433118840719431 0  -0.875 -1 0  0.02963311046324827 0.04170129219901864 0  1 0.375 0  -0.875 1 0  0.05833708943026647 0.7964297407374316 0  -0.1937378266536695 -0.3753154180886359 0  -0.07406728933815471 0.5731954606156288 0  0.2376416556941183 0.5203793275501093 0  -0.7924964118972455 0.2349335568246423 0  -0.4978205465619288 -0.3907293329836722 0  0.0002578916892582159 0.2724063233198894 0  0.5136389567273091 0.6446458489786173 0  0.4022658632636709 0.8099505929868744 0  -0.8062805767802614 0.4318122911186275 0  -0.05646223757524056 -0.2240689418784577 0  -0.7115414629184079 -0.01431460316080464 0  0.09077803518917385 0.05272658906640081 0  -0.4810045047770675 -0.2526234966332472 0  0.7244765449130216 0.08501852344718397 0  -0.8109108014455952 -0.4148782811175848 0  0.3377671012840829 0.1569138099325404 0  -0.7953947998497867 -0.2532109590312944 0  0.2371031771460484 0.255507349601604 0  -1 -0.875 0  -1 0.875 0  0.1848569034843121 0.04950464398976774 0  -0.2484177721753401 -0.2290885054014402 0  -1 0.375 0  -0.1723035066792943 -0.04239080289674221 0  -0.6535679324396956 0.4720321092998053 0  0 -0.07736776745332727 0  0.08132821994741138 0.2616348817358405 0  -0.375 1 0  -0.2217368666945264 0.426449170928648 0  -0.1211100134503438 0.151342095152143 0  0.1354761819362631 0.5556898599374979 0  0.1325973152264258 0.1954343197499425 0  -0.477918459515917 0.2725993934463339 0  -0.04663179204878682 0.01390163714759897 0  0.8488068401370232 0.3771536850329247 0  -1 -0.125 0  0.2873553782834107 0.8395470128379605 0  -0.1124080653007014 0.314564211044206 0  -0.125 -1 0  0 -0.7575037395175259 0  0.07821397079968176 0 0  -1 -0.375 0  -0.375 -1 0  -0.625 -1 0  0.7474787146812756 0 0  0.625 1 0  0 -0.2918843213980812 0  -1 0.625 0  -1 0.125 0  -1 -0.625 0  0.3284075310660084 0 0  0.004929205892015135 0 0  -0.125 1 0  0 -0.006571003003944568 0  0.9999999999999999 0.625 0  1 0.875 0  0.875 1 0  -0.568300785462067 -0.6803933602133311 0  -0.00425768101983425 0.1611532521336767 0  0.3634279343991479 0.2640081747231233 0  0.6532579437791324 0.2970859841460495 0  -0.8562297431831961 -0.6534961022227077 0  -0.8694516548504539 0.7927424279957556 0  0.4310161824539984 0.5055601433816634 0  -0.4003418313398034 0.8576458247733716 0  -0.7847198713713734 -0.8763336861986415 0  -0.8726319694634674 -0.7894808304633503 0  0.1585134268334626 0.8436203391271205 0  -0.6603305596284843 0.1571736625352471 0  -0.5794853263241524 -0.06601263200252115 0  -0.8561244427179049 -0.06193378267515914 0  -0.3012870977660852 0.5642471408666829 0  -0.4292744198442499 0.572446704606467 0  -0.3797722987277063 0.334746294821599 0  -0.619938914328611 -0.2173902112275558 0  -0.2736547713631431 -0.09055246795412059 0  -0.645398097246882 -0.5943084527947865 0  0.8584901628615806 0.2673357992369817 0  -0.03266119587439183 -0.03330129296593379 0  -0.05498825084115543 0.1151996087404687 0  -0.1357369981897448 0.4339256242402642 0  -0.1199722175791498 0.03278644808470958 0  0.5384248647262395 0.06645864446448319 0  0.5808665651941606 0.3654937755838538 0  0.6959374933244123 0.7807941743449883 0  -0.8025476490512231 0.8837194411518305 0  -0.6471750285540733 -0.4316769200778946 0  -0.1093501016943747 -0.3978505332773026 0  0.8703939139663873 0.4962024969493959 0  0.07657944433276058 0.09460258557599537 0  -0.6709413714440403 0.8716592782391016 0  0.4551980750221099 0.3545681192669233 0  -0.02645884779362183 0.03590842553690863 0  -0.4107524059528339 -0.443584121926668 0  -0.3638911108015968 -0.2698905860191322 0  0.3250201997356046 0.4857906078886755 0  -0.1976308402023159 0.2023615307227503 0  0.7071862531212394 0.5368002453748056 0  0.2624090231020918 0.3594791276170293 0  -0.3834551114994923 -0.851091573760289 0  0.1109107860275925 0.6835316980043237 0  -0.2864457557071692 -0.6124781936260735 0  -0.4458380307737304 -0.6226929066411151 0  0.298974159661658 0.6959260053078966 0  -0.8744316665937502 -0.175929494013478 0  -0.1833619784349479 0.8573097840998154 0  0.4548621839429797 0.1672445310426618 0  0.2804612814451498 0.04809175179066906 0  -0.1449068550298781 0.658498855003946 0  -0.01246791788564972 0.7096537574885766 0  -0.05365900411367268 0.8777243599727867 0  0.00539615198969776 0.4716650949328858 0  -0.3901918389109957 0.1558766838641144 0  0.5502210857931804 0.1361310226835592 0  -0.4822525211256515 0.6852909437177671 0  -0.851624453367103 0.3394632087890942 0  -0.08033394300953479 -0.5374707896522465 0  -0.01359047456269254 -0.5527165262738466 0  -0.2125408412374042 -0.2891943255643358 0  0.8681947915212276 0.1547124983404136 0  -0.1695145520164711 -0.660763124906028 0  -0.8889417590018129 -0.5336792978344584 0  -0.284657350580631 0.3412649053745203 0  -0.681635236386063 0.5791070739226031 0  -0.897711767045794 0.5366333042866697 0  -0.9009410063544774 0.6663442530689108 0  -0.6460240303585696 0.07419912796026452 0  -0.8609991800120657 0.03040458259719891 0  -0.889242439566826 0.1688730961063062 0  -0.1310838389200542 0.2305136903503665 0  0.1623037555130145 0.4493267582973056 0  -0.04337927495531235 -0.1265077692903958 0  -0.7592261826812597 0.6738316193318966 0  -0.6107006551936542 0.700446738385306 0  -0.2559666671516038 0.07954901105402973 0  -0.2550076479836286 0.6513105400884863 0  -0.02740573772981925 -0.006623031497346182 0  -0.5012180266134475 0.8778151924703732 0  -0.4834722486608085 0.494474637340949 0  -0.2917747147898166 0.1455372625499102 0  0.002458928600831438 0.02376400306944882 0  0.7820350027022546 0.6910420933771994 0  -0.4754315461560215 -0.82654901809723 0  0.272200206635504 0.1978091612870642 0  -0.148219819287345 -0.8637706208372479 0  -0.06144020041769567 -0.8288780488211955 0  0.4462510027942519 0.7104644703939987 0  -0.1115978964156695 -0.2898799152645949 0  -0.2663669314913533 -0.02587606846925981 0  -0.8969561768870646 -0.8987574182795375 0  -0.5748122543626559 0.2429689381028833 0  -0.4771829606556667 0.08927849514633915 0  0.49606161842252 0.8299276034699052 0  -0.0177440006212351 -0.2651770439406287 0  -0.3153553015695777 0.8776425734244997 0  -0.1437513588440711 0.08104544100279985 0  -0.4709600269402717 -0.0343294411800625 0  -0.3900197248791126 0.01279998357036373 0  -0.2939878124297046 0.0281384190529249 0  -0.3869997768682041 -0.1207021614168148 0  0.8893437313931474 0.7041202713730407 0  0.7982352155041028 0.9143032995251762 0  0.5780667116271521 0.2117778087652622 0  -0.5619891171057726 -0.4730168656649574 0  0.6030924322687576 0.7116563833959463 0  0.6819500802750412 0.8921440038962588 0  -0.05197085923702933 0.3051917929113568 0  -0.9064454550453771 0.9078786477168931 0  -0.1282895348352731 -0.06709254741949923 0  -0.1698768336892128 -0.1828177306624732 0  -0.2530200036770804 -0.144544932505209 0  0.03731717836805205 0.202989492457139 0  0.9049981610686764 0.9007799799008472 0
[...]
<PointData  Scalars="w"> 
<DataArray  type="Float64"  Name="w"  format="ascii">1.5449851428881152e-10  9.1877122858281459e-12  4.5387515442692582e-10  2.5243262945815250e-09  6.3775462058159586e-10  1.4416727329938280e-12  8.1265178908783482e-12  6.6520388103020910e-11  3.5813710082989971e-11  2.2379979263736520e-11  1.1703916934824179e-10  9.9004500626554024e-11  4.6200236669880300e-10  2.3727213338936995e-10  7.9754554458951807e-12  5.6491917114943485e-10  9.2457842277280471e-11  7.0636058034238014e-11  1.3193120392629702e-10  3.7244008911163573e-10  6.4573430974314633e-11  8.7759076209958110e-11  6.0419263900883490e-10  2.4077170066324558e-08  5.9320349325882538e-10  1.0712163968776579e-10  8.6399356850095425e-11  1.6187581604521731e-10  8.0094720527226908e-11  1.9033496776086939e-11  5.1168725990621252e-10  9.7079939331271734e-11  2.5443274250729572e-10  1.8594448799390286e-10  4.9424693836540306e-10  2.3374284453562884e-10  7.9034703385359864e-11  5.0463566926870965e-10  6.1748893588957548e-10  2.7120657080313086e-11  4.1600215252799713e-11  1.1389601194039299e-10  8.3984167813262871e-11  1.4009357782356741e-11  1.0745369262303130e-09  8.7150548361009301e-11  2.8219525032706984e-11  7.8299076964064257e-11  1.7647250509422917e-12  6.1382468656932865e-10  2.1919219281124448e-10  2.0648441276811488e-10  8.3307390822997793e-11  2.6584849263874840e-10  2.3462615843529585e-10  2.4358294542265356e-10  3.8074735582107432e-10  8.8528927345383989e-11  5.5883495380710275e-10  2.5616798140239178e-10  2.9599557467435431e-11  3.3218042349521600e-10  3.6619116757248432e-10  1.3054912879676210e-10  4.7972714878388721e-11  1.7370672794671438e-10  6.3275063896206056e-11  2.0309248767086991e-10  2.5547185087188359e-10  3.7949572515172487e-11  6.3747864340533476e-11  4.1857624699661246e-10  5.1703515493298322e-11  7.8850792615172667e-11  1.9385766345262092e-10  1.7478080734879184e-10  2.4656214922338038e-10  2.8519437286920965e-10  1.9581910812392753e-10  2.1341486723476279e-10  5.7980802530718377e-11  2.3579760916186788e-10  2.6441284029455380e-10  2.0268588962579664e-10  2.2356867106189565e-10  1.2636412914637699e-10  3.3563346003821372e-11  1.0507008807347735e-10  9.5511636947398457e-11  2.6954120138955068e-10  6.1252243257369161e-11  9.6259368526577487e-11  7.4150913741139729e-11  8.6218432657153987e-11  3.6444319144969232e-10  2.1690078542571732e-10  2.1426715888496385e-11  6.3195281671596995e-10  2.6993287017587450e-10  2.5018313417327928e-11  2.9003824400266001e-10  4.7634605457666635e-10  7.1445631211441130e-11  8.6123888518255658e-11  1.4760438289783375e-10  5.9246868327320296e-11  3.0099661588120234e-10  8.3788048184862860e-11  1.6036808862920762e-10  6.0081275364005992e-11  2.8902889189057010e-10  2.8798432818391279e-10  2.2374960799070640e-10  7.3034861894187327e-10  1.3538600698520362e-09  1.2212656975720573e-10  1.6300309667771046e-10  8.6231300190360532e-11  4.7573430058365564e-10  2.3728782508718490e-11  2.1133692619837036e-11  2.7336898972650075e-10  9.0138139617463421e-11  5.8492150064700462e-11  5.1181800900326724e-10  5.0364159562622686e-11  5.9352139886411824e-10  1.0881013134945401e-10  7.1413364380133764e-11  7.8182389690819809e-11  3.4700229518947412e-10  1.5778511269146297e-10  5.0756309718441317e-10  1.1822225967645747e-10  6.5113533033353904e-10  4.6005400888010349e-10  1.0075467206802932e-10  4.4656994294919125e-11  1.3522728058362595e-10  2.6276100978858854e-10  8.4385639479251176e-10  6.2062950769248926e-10  9.3485014826593504e-11  1.0774221801223892e-10  5.2338653301796318e-11  6.6968681815239883e-10  7.5600001739874888e-11  3.8289717749817967e-10  1.3716223769709451e-10  1.1516912698721739e-10  1.7483039324847724e-11  2.9129535073626652e-10  1.5836718092454814e-09  4.9408621676415352e-11  9.9763429971832610e-10  6.3618429992213019e-11  1.6273490667381879e-11  1.8476825727851414e-11  1.3311583254157004e-10  5.7202766552997522e-10  4.1227382568704489e-10  1.5894487583536096e-10  1.0217199528633341e-10  1.4536332860739243e-10  1.9384141208855882e-10  5.2276463115179814e-11  6.8837007650473291e-11  1.6134660224744457e-11  5.0528099615547862e-11  3.2062122316960502e-10  8.1081450996641967e-11  1.0490401635446413e-10  6.9351206512870278e-11  9.3360866884747572e-11  4.7604250991432284e-11  8.8805123561489318e-11  4.8094126383268297e-10  5.1949524991905724e-11  1.6109479201274436e-10  1.6031799191969968e-10  4.9428184894780459e-10  2.1588861630397013e-10  2.9551775663071023e-10  1.3970905608926933e-10  1.4837516507860811e-10  1.5266850136873802e-10  2.0795764246483537e-11  3.3080989120002803e-10  9.1224389591005173e-10  2.0964011669342021e-11  2.3934407085899135e-10  8.6016160663809453e-11  1.6364754056333274e-10  1.1431791720855694e-09  1.4107083464021418e-10  1.6292561216211230e-10  2.5552596219766487e-10  2.9823483816675023e-10  1.0147220018714160e-10  2.0555918030450067e-10  4.0460747758032481e-10  2.5470965875016450e-10  2.4688327225771676e-10  1.2139579939613431e-10  1.0889045676907675e-10  1.0851840684954146e-10  6.8542284387777544e-11  2.2029176691270808e-10  9.2972728786323891e-10  7.3931027919556720e-11  9.5028062090670717e-11  7.8450414374115933e-11  1.0149649225811136e-10  1.5704646716979262e-10  3.8627122685023561e-10  8.4425611668715470e-11  8.2399781649814365e-11  1.2276274108122220e-09  4.2499119509505509e-10  3.0333359433042212e-10  1.9419312591177006e-10  7.7437196892190187e-11  7.5013114368409710e-11  3.7669998812001431e-10  5.3841811979202234e-11  8.1628305740373310e-11  4.3779961971439535e-11  9.7627271557303475e-11  4.1323695062464551e-10  8.3236717071938864e-11  1.8983408593236718e-10  1.7267464465605995e-10  9.8216961808023818e-10  5.4821725830001730e-11  2.0469948886150317e-10  1.1739339993399734e-10  1.0635119179012703e-10  8.0631278821935994e-10  7.6001468529747910e-11  8.4131167689591454e-11  1.1131410536066097e-10  1.1347393260368965e-09  3.5858850879200006e-11  6.7368761532272640e-11  2.7750382513231385e-10  2.7276808759229401e-10  3.6807664531250959e-10  1.9893445828221203e-10  2.2485609286629946e-10  4.3640458823245486e-10  2.4457025353725520e-11  1.0242030138443075e-10  1.3700250039982549e-10  3.3652916272630915e-11  2.3299392617708106e-10  3.3453320424978201e-11  3.9383251474982797e-10  1.2771407520318903e-10  1.0841604095895099e-10  1.7911074051859032e-10  5.6511252136810605e-10  7.4114044026319696e-11  2.2334166199234463e-11  1.3348738871492193e-10  8.5974393468768692e-11  5.6938050930794469e-11  6.3832248443021618e-11  1.7398249782881806e-10  3.6355605445554821e-11  2.8117377722593024e-10  2.5767394130256392e-10  1.1920387110661968e-10  1.2995807691704403e-10  1.0131092540567238e-11  6.6960227251369062e-11  1.4904523018308259e-10  1.6556404681690774e-10  5.0995957795117242e-10  3.3814953994464741e-11  7.7355238223867084e-11  2.7160524804674885e-11  2.3294212231853045e-10  1.1830328891962976e-10  1.8874652418905226e-10  7.4126620146177491e-11  8.6199314132653225e-11  1.1795842265719555e-10  1.9633433691387132e-10  2.2990332182224147e-10  2.4581157025796673e-10  4.8105556953239491e-10  2.3616991048855648e-10  2.0198179735887138e-10  1.4909966249522702e-10  7.8028484830233185e-11  1.5662545700934883e-10  1.6203594826073144e-10  6.4691555951017481e-10  1.3403482282248960e-10  5.2377475128867418e-11  4.2565395307507783e-10  1.7467340566057496e-10  2.0604920000564135e-10  9.7192131462138052e-11  2.7313998750726420e-11  4.1741384555141195e-11  8.9809159537717091e-11  7.5836539367692606e-10  2.9291369905087949e-10  1.7292074928037824e-10  1.4161948350012815e-10  3.4821989247556845e-10  6.6884693141309817e-11  1.0350514287797165e-10  3.7499890242880691e-10  4.6072604550854607e-09  9.4083751232328099e-11  2.7437912712903703e-10  6.1637015578892080e-10  1.2694185862221277e-09  1.9582149974963589e-10  1.5477754842055278e-09  4.4997959872240430e-10  2.2829972289802686e-10  1.2737406512320096e-10  3.6255910705363698e-11  5.9317745849786029e-11  1.3021055871174227e-10  1.4072039077827111e-10  5.4806422801141896e-11  8.8058193599874897e-11  1.0839246024165484e-10  1.1394788761480141e-10  1.7747196212674226e-10  5.3887108357618435e-10  3.1865527627637340e-10  1.7234596720297646e-10  9.2537119745355915e-11  5.6650620111026187e-11  5.9568947786387154e-11  7.4113168762523688e-11  1.8348033102096679e-10  2.6428128276400148e-10  1.0345209043036404e-10  1.0510287973772817e-10  2.3322133779339761e-10  1.3334462783361410e-10  6.5218103779107337e-11  5.5359308505178243e-11  1.0068449967165327e-10  3.0195434685066993e-11  1.9803472605175839e-10  3.3702705115119949e-11  1.6185544880614058e-10  1.8371495530277101e-10  1.7504954792701460e-10  3.9425872048852039e-10  7.5583727454831178e-11  7.1066901954854797e-11  1.5710543546494323e-10  3.6087033298204519e-10  1.5614065856134947e-10  2.6002442005310881e-10  1.0619754762906097e-10  1.4409291147857819e-10  1.6997019333333790e-10  2.9855800313648358e-10  1.2266920941037927e-10  3.1467910167569561e-11  1.2021209234566274e-10  1.1474313012029368e-10  1.4417535970357525e-10  2.5099053950795601e-10  1.7088415996837609e-10  3.1687642038691624e-11  1.2913992367558851e-10  2.3225560964747658e-10  1.9682436330771718e-11  3.4230296510437564e-10  1.6392162127953508e-10  3.6458288817905623e-10  1.2618691610323965e-10  2.5425863547198908e-10  3.2049488390216257e-10  6.9289913306237161e-11  1.0340390590809308e-10  2.3944221587141554e-10  5.7566723952114195e-11  4.9667663466085314e-10  1.3769912559623549e-10  9.3613130731979321e-11  1.1477465181392355e-10  2.2038450730986782e-10  6.3023571601233695e-10  4.6006145697218411e-10  1.6378288861579297e-10  1.9234600932210576e-10  2.2883375517229743e-10  4.0715693111833986e-10  4.0960175753668197e-11  2.3920978310158639e-10  7.0851697301503556e-11  1.3113216653057854e-09  1.0907299966413562e-10  4.5591321956815635e-11  5.6150573846518602e-10  3.6044571793665069e-10  2.4897946023858461e-10  2.4491961945974542e-10  5.6807638929707713e-11  1.4911431150557662e-10  3.4091661905926156e-11  4.6353470422950785e-10  7.4835228283453103e-11  1.1766949928040735e-10  1.3537222385625215e-10  6.8040473695402728e-11  3.5192114937895715e-10  3.4507794611056237e-11  1.0950828261110389e-10  2.7417838439567236e-10  1.7723947413937672e-10  7.6558355005531910e-10  9.3630348110561489e-11  6.1362638258130869e-10  1.4200492820981299e-10  3.3967466387534882e-10  5.7122424768327837e-10  2.3371697766369080e-10  1.5389572015848079e-10  2.7483406641851454e-10  4.9706318132051241e-10  3.8041127594579239e-10  6.4199365097658672e-11  5.1682411806303309e-11  1.6461022341655812e-10  3.8078511127096773e-10  2.0110440280088622e-10  1.1376867616300354e-10  1.5460310097283238e-10  7.6517527099327317e-11  6.8609431869063401e-11  2.1385507496281271e-10  5.5948745213944524e-11  2.2042979212163351e-10  9.4136830535427861e-11  5.3789660290052446e-10  5.8686641274038877e-10  8.3434826104446180e-11  3.4977996530959220e-11  4.7982019826719048e-10  6.9332844160426324e-10  2.5137550798285067e-10  1.0304684207166139e-09  2.9135360715941203e-10  3.2926654807764361e-10  2.6291123923773080e-10  2.6102705831586442e-10  9.9103560268915279e-11  2.4555073864264738e-11  2.0384914715758688e-10  9.1034390985639721e-11  2.0714308603746446e-10  7.5555046997347347e-11  1.2901130679524487e-10  2.1132707067554731e-09  1.7399995739637483e-10  7.4875819542613267e-11  8.4458142838674984e-11  4.3109205747893375e-10  2.3135538930329586e-10  1.8932568260312027e-10  2.0590771268837788e-10  4.2221544768274900e-11  7.7830537883364180e-10  2.6091721039890474e-10  5.5641860624478038e-10  2.5637238069941643e-10  2.1939524881368840e-10  3.2027706584462710e-10  9.1019452129246189e-11  2.9641639769216232e-11  3.1452252246725901e-11  3.8555558578548403e-10  2.7780504307188756e-11  9.6610469109915096e-11  1.1607136555129641e-09  7.1049619419710017e-11  3.1910439756533761e-10  2.6889902966345391e-10  6.4032560222896807e-11  5.4228621428878176e-11  1.5709149672825907e-10  2.5624702065684663e-10  4.2816642881976036e-11  1.0393632911210034e-10  1.6370990293051706e-10  7.0183040658953021e-11  1.8100239694036199e-10  2.1055182224378100e-09  4.0597097750302356e-10  3.1729407840808065e-10  1.0621636210530632e-10  1.0363010760466024e-10  1.7116121489584865e-10  6.2543687050198761e-11  1.3109778199194840e-10  4.9119438467911971e-10  8.0767929667205080e-11  2.3546047291998128e-10  2.3950795065387361e-10  1.4071622421857824e-10  4.0218329486318484e-11  6.0271931725823017e-11  4.2389884873223992e-11  1.7508622419062435e-10  1.0662916354252414e-10  2.1231965493559124e-11  5.8573530146139016e-10  2.6151865633607727e-11  6.5158050454264730e-10  1.2161405578565072e-11  6.9558227338418954e-09  3.7940956238750747e-10  2.5546399476542060e-10  9.9826961860070557e-11  2.3660970695613558e-11  8.0396556616801419e-11  2.5865450128447356e-11  2.1659138688765432e-10  3.8329526533868978e-10  2.5032694807809559e-10  3.1947321282647301e-10  1.3209418315431276e-10  8.0071547395188080e-11  5.2129802490561272e-11  3.7927252583183842e-10  5.3572961377593452e-10  1.1213785248883354e-10  9.7639351070935111e-11  1.3859535328204462e-10  7.3376749705735041e-11  4.4061502535271827e-11  4.1181542237292041e-11  2.4875134696814177e-11  8.4077529334602749e-12  1.4946669953739369e-11  7.8350210320505085e-11  1.5968182640754742e-12  7.9419972598519133e-12  1.8689156229971372e-10  3.6566097026357471e-09  1.9622975475561892e-10  3.1002149592908836e-11  2.2978447749183836e-10  9.7568782299788504e-11  1.1758492832605048e-10  4.1511305173847662e-11  1.3273155641575955e-11  6.7096583369427138e-11  7.3828723075305283e-10  7.2258363318165377e-11  1.9025102090492963e-10  3.3860758897256708e-10  6.1574993205538942e-10  8.8600955044334966e-11  9.9417187928997023e-11  5.3861383672646322e-11  7.2004978024209406e-11  9.9355837380761783e-11  5.5119154622655329e-11  7.7893298334133524e-10  5.8358955512713624e-11  2.8013408147991904e-10  7.7899145630587040e-11  1.1892550702924866e-10  3.1848469461988119e-10  4.0624431709914309e-11  4.9726410424824441e-11  2.6668567049628555e-10  1.0186446921288790e-11  1.1986975823938927e-10  7.8375602810078485e-11  6.5612029546985570e-11  5.8894519766126907e-10  1.7498759866273728e-09  3.5421650435120878e-10  2.8202367458081036e-10  8.4217274403067494e-11  7.0142693063192670e-11  2.6490025627952183e-10  1.1679107633694894e-10  8.9480341662009066e-11  9.7440316666898500e-11  2.1991332476232130e-10  7.3927584972906622e-11  4.5673104711081165e-11  5.8070854346649411e-11  3.5630671289372067e-11  8.2537424579495407e-11  1.8674894427351933e-10  1.7241620751489672e-10  1.0939303631331321e-10  3.1956110936408543e-10  4.3355131404889484e-11  1.4070098318649153e-10  5.3586351104724061e-10  5.8476165455112089e-11  9.7931022783766038e-11  2.1750317284393432e-09  6.2529548343498834e-11  3.6578226433634892e-10  5.3512733999794087e-10  1.5497470075513280e-10  1.1834053850144972e-10  1.2573428902844064e-10  7.4801129336054740e-11  2.3438743916006956e-10  2.9059916495346645e-10  1.8013644110327422e-10  4.6537425720629573e-10  4.5519525624748597e-10  1.2790335524174868e-10  2.1836397993485178e-10  6.2626135893344224e-11  8.4141566176753704e-11  6.0145951368257399e-11  2.4464824015656528e-10  4.0265677961724069e-10  3.1167860492930738e-10  3.5912578874933196e-10  8.5944673464757055e-11  2.0881131178938649e-10  4.5696412844178967e-10  1.8259092373832188e-10  5.1749917829244567e-10  1.7333107085392628e-10  1.3281580273049489e-10  1.0896715946493587e-10  4.7910317896129155e-11  4.9695089780533955e-11  3.7082921569433046e-10  6.2913911795471026e-11  6.1865909976309851e-11  1.3014444052146720e-10  3.2931509512758271e-10  3.7392154476888713e-10  1.5733786177321653e-10  1.0845367151774220e-10  6.3438887766007913e-10  6.7866942210934220e-10  1.7122979951709584e-09  2.7345738316754083e-10  1.8455425794349510e-10  4.4136149145088832e-10  4.8544055165605994e-10  1.2238226275995454e-09  3.1300282127063188e-10  2.4916782207873723e-10  2.8457621614012506e-11  1.2415873690385778e-10  4.0496356373545252e-10  6.5677564751190228e-10  1.9727514504838006e-10  7.9441732482211006e-10  3.0721872636485981e-10  1.6906911464074629e-11  5.2409505832934000e-10  2.9074402600167365e-10  3.6471979765201497e-11  3.3031524778753406e-10  4.0077045366608163e-10  5.5189397222334325e-10  1.4545326041235149e-10  7.4715499555851832e-10  1.9686564666231436e-10  4.3213385886337062e-11  1.2282893174765771e-10  1.3045233540930503e-10  2.3231223642410976e-10  6.9962956263714986e-11  3.0351829913064215e-10  1.7771351194608252e-10  5.9925072866376217e-12  3.6418871621010162e-10  5.3888961891959778e-11  8.7387286247412376e-11  1.2103260988367720e-10  6.1314603506781580e-10  4.3110221006044949e-10  3.0551957080000943e-10  1.1118950118386565e-10  1.3800382934285191e-10  9.0917499670216926e-10  5.4956668272530679e-10  1.4513364060980833e-10  1.4287630912653835e-10  8.3796093759352213e-11  5.3480621059891620e-10  1.4684134883546274e-10  1.8528773689014221e-10  9.6456852218129222e-11  6.4341988306915677e-11  6.1516851640140222e-11  1.5420213025983506e-10  8.6868746365989403e-11  1.4035702290575744e-10  4.9840547794058835e-10  6.9917165043939615e-11  6.5114954824902856e-10  1.3160943425428426e-10  2.2597637569958936e-10  3.0428795925689067e-10  5.6609435069871460e-10  1.0819194335176866e-10  3.8119418149893457e-11  5.5888572143926909e-11  1.3795131784170971e-10  1.4759582338395481e-10  5.6151632143960238e-10  7.6436709240419221e-11  1.4046414167909774e-10  2.2699883771365484e-10  1.3227993521849451e-10  2.4939624715962476e-10  3.3620539055276257e-10  3.3071884114187778e-10  1.1363319010182731e-10  1.9042251366493800e-10  1.5888146171964551e-10  2.3104147718745997e-10  3.4050719186853409e-10  3.9527571208952618e-10  2.0393214212835098e-10  2.1063262422613507e-10  1.2141689553489919e-10  1.5110383369993801e-10  3.0446639338058830e-10  4.1183089188284174e-10  3.7945069013845074e-10  1.6125530618083780e-10  2.1277274008673212e-10  1.9729607541531316e-10  1.4439941478205214e-10  4.1067193056481185e-10  2.6298536423685826e-11  1.0923607229653952e-10  1.3238952697943442e-10  1.9523263302395685e-07  4.3628374877550502e-10  1.7725823652337241e-10  6.2199445174188196e-11  2.7184947037251946e-10  1.4731500851724434e-10  6.1850258929048026e-11  1.0157551330716696e-10  2.0930687999506453e-10  2.0761038187812372e-10  1.8914423260844657e-10  2.0094031394451523e-10  2.9957267350871806e-10  5.7111899865022524e-11  7.8163308290945828e-11  2.0960579832198469e-10  1.2690893623073390e-10  3.2887132583396031e-11  4.3467187292795003e-10  5.8527111756225767e-11  5.7245636404384656e-11  1.9290580169598528e-10  9.1377093517591008e-11  2.4231793714562012e-10  3.1557410574524709e-10  3.5914478252090902e-10  7.5408897620907208e-11  1.7745589588293806e-10  9.2859438039362154e-11  2.5940767668782905e-11  7.9683310235879186e-11  4.8195989588344260e-11  6.8312595939000193e-11  2.1333219276977640e-10  4.2816034337943662e-11  6.0874962828077290e-11  8.4497084693170027e-11  8.4140510586901230e-11  9.2065732076479598e-11  3.2254852074405719e-10  8.3435106770992163e-11  1.7497810145123176e-10  2.1063909262527100e-10  1.0470198075123609e-10  1.5535744508047990e-10  3.1826549916392522e-10  1.1970107593400811e-10  6.2679069179361836e-10  1.8417940593184552e-10  1.5170692872029406e-10  1.4369300447162204e-10  2.1789856349496471e-10  3.9147544417114341e-11  3.5381727410473160e-11  7.2036195107647861e-11  5.4909481248647808e-10  1.8573543831448728e-10  7.0186734633978313e-10  4.6753815052510196e-10  1.2082278629403605e-10  6.0136877142160776e-10  3.6975317121365537e-10  2.0114476971570786e-10  6.7321541576766840e-11  8.5743591070465246e-11  1.6560520034904399e-10  1.8962086666179958e-10  3.4910769092268220e-11  4.9208498909921233e-10  2.8065737614682805e-10  3.7832911321516190e-10  4.2853240548299327e-11  4.1387814357168390e-10  2.5655944934408209e-10  5.7591403427849669e-10  7.6605338882800668e-11  5.5879177591802629e-11  2.5742561545070473e-10  6.8187603127520275e-11  3.6778234465542111e-11  1.3433470683967885e-10  2.1118473845746676e-11  5