<?xml version="1.0"?>
<VTKFile type="UnstructuredGrid"  version="0.1"  >
<UnstructuredGrid>
<Piece  NumberOfPoints="4852" NumberOfCells="9430">
<Points>
<DataArray  type="Float64"  NumberOfComponents="3"  format="ascii">-1 0 0  -1 -1 0  0 -1 0  0 0 0  1 0 0  1 1 0  -1 1 0  0 1 0  -0.5 1 0  -1 0.5 0  -1 -0.5 0  -0.5 -1 0  0 -0.1608775713298009 0  1 0.5 0  0.4999999999999999 0.9999999999999999 0  0.1967448868031411 0 0  -0.3403144567098559 -0.1755038860058764 0  -0.3361742318226058 0.2237529831414575 0  0.1738654564824376 0.345508213603946 0  -0.1845292862095995 0.5544137647999718 0  -0.5037475558196673 -0.5370229573285505 0  0.4904026279743449 0.2564917552417079 0  -0.0641196791024251 0.2006159027453039 0  0 -0.5061325913258391 0  -0.25 -1 0  -0.560636783124616 0.5769093132711984 0  0.6612958178168812 0.6333112120475121 0  -0.1768422554218936 -0.5372356623245289 0  -0.538342722573784 0.02525282606584864 0  -0.9999999999999999 0.25 0  -0.2057117011468939 0.02367429735584161 0  -0.6539817876607734 0.3088215840346754 0  -1 -0.25 0  0.03929226238996959 0.5911128109801518 0  0.1950247384451069 0.1284993424552503 0  -0.1364115547278648 -0.2195854038414598 0  0.3708502528659441 0.6138470672687711 0  1 0.25 0  0.5355652144809806 0 0  -0.75 -1 0  -1 -0.75 0  -0.6447647465690094 -0.3227251730618755 0  0.25 1 0  -1 0.75 0  0.02757118475249542 0 0  -0.25 1 0  -0.75 1 0  1 0.75 0  0.7500000000000001 0.9999999999999999 0  0 -0.02898318711980711 0  0.05423437661522445 0.1419441046696761 0  -0.07753884235079406 -0.02776744890913653 0  -0.7007306445607138 -0.1323339349816824 0  -0.3216947700050911 -0.3467607894188159 0  -0.3395247350388689 0.4367449427970528 0  -0.09968951647431344 0.7638784735119492 0  -0.3826003328184433 0.7021670920034698 0  -0.05455487705848266 0.3982977009060399 0  -0.07870764820160489 0.07180510880201034 0  0.3587646226161312 0.3688376495420289 0  -0.715776796373745 -0.7296698929093024 0  0.4117718799219618 0.08964667116627537 0  0.6899490796255282 0.1912371900708997 0  -0.7471939630648087 -0.5266476085012214 0  -0.3878015089765761 -0.7102981439536663 0  0.7215675382030293 0.417973359627161 0  -0.7756459957417742 0.09674413874240839 0  0.1966099482955151 0.6981358073410837 0  -0.19817492805805 0.2879227509188687 0  -0.7985429897491835 0.5770037074115846 0  -0.7162366734020132 0.7660195449638805 0  -0.05341782549153481 -0.3734355425270811 0  0.5844919133866814 0.8161153371446477 0  0.8201799943017447 0.8056235046996254 0  -0.106787398594539 -0.6968151835030129 0  -0.5139038785385723 0.1622283800780685 0  -0.2013593627182897 0.1253011444329362 0  -0.3585732685111472 0.07505551104343711 0  -0.3645817803077513 -0.0523830171019389 0  -0.4959595019135031 0.3944535913633838 0  0.375 1 0  1 0.125 0  -0.01180593834086793 0.07109260439921176 0  0.06220961881579593 0.391207072905558 0  -0.1711124932287482 -0.1222223909811917 0  -0.2424184900180325 0.7733384386251824 0  -0.625 1 0  0.5332127531938361 0.4535264723322653 0  -0.5758955916858683 -0.8298951712284963 0  -0.2579089072902395 -0.7834171436149842 0  -0.3201120681164897 -0.5078839896071222 0  0.8339005860617821 0.594888300832955 0  -0.548202521626148 0.7904554050707421 0  0.125 1 0  -0.06733308721410934 -0.09334273821549675 0  -0.4940387702877144 -0.1431263778836267 0  -0.875 -1 0  0.02954778210310625 0.0415330491346628 0  1 0.3750000000000001 0  -0.875 0.9999999999999999 0  0.0573624155116306 0.7936022255652231 0  -0.1965341755908739 -0.3731265097573528 0  -0.07249498274899906 0.5705106100817584 0  0.2363144426071065 0.5172728070783135 0  -0.7919545264063537 0.2290754020806184 0  -0.4949652238706392 -0.3886148584452994 0  0.0002580861488958736 0.2706286986568441 0  0.5096433963973604 0.6396183689580042 0  0.3986640728899409 0.8069748673261757 0  -0.8058380439017054 0.4239987754838611 0  -0.06443783044078324 -0.2203569737163268 0  -0.7091942684519453 -0.01426273510032889 0  0.0904821521807069 0.05234814243868486 0  -0.4777931668520327 -0.2509493309674562 0  0.7238532609551895 0.08270362037370205 0  -0.8083859427783601 -0.4107854439242299 0  0.3374315281313863 0.1531569224836238 0  -0.7942473146441521 -0.2506074454254862 0  0.2362152773545373 0.2537993110188673 0  -1 -0.875 0  -1 0.875 0  0.1842698805945025 0.04774144233426565 0  -0.2473625663017674 -0.22872906105081 0  -1 0.3750000000000001 0  -0.1707129464882618 -0.04173097095509701 0  -0.648252766623064 0.4669543474571161 0  0 -0.07736776745332727 0  0.08043765279647834 0.259395113405374 0  -0.375 0.9999999999999999 0  -0.2162841171677552 0.4242027305886345 0  -0.1197290298594258 0.1498347533546762 0  0.1331821694215186 0.5536028596735757 0  0.1318963656389402 0.1933692004461574 0  -0.4741094384955171 0.2689934313469097 0  -0.04607807181699266 0.01390441489294452 0  0.8514661747285359 0.3698107258994789 0  -0.9999999999999999 -0.125 0  0.2854811455077739 0.8365660668784232 0  -0.110376884081206 0.3125214356310207 0  -0.125 -1 0  0 -0.7575037395175259 0  0.07821397079968176 0 0  -1 -0.375 0  -0.375 -1 0  -0.625 -0.9999999999999999 0  0.7474787146812756 0 0  0.625 1 0  0 -0.2918843213980812 0  -0.9999999999999999 0.625 0  -0.9999999999999999 0.125 0  -1 -0.625 0  0.3284075310660084 0 0  0.004929205892015135 0 0  -0.125 1 0  0 -0.006571003003944568 0  1 0.625 0  1 0.8750000000000001 0  0.8750000000000001 1 0  -0.5625229369964905 -0.67607458829454 0  -0.004594384006303658 0.1599255840011673 0  0.3622459679053493 0.2625518363851934 0  0.652938836633684 0.2934005706590583 0  -0.8545767300699679 -0.6463290496196878 0  -0.8631227144083364 0.7867582295806673 0  0.4302730523968514 0.5007513845603982 0  -0.3982208604580971 0.8555964297928085 0  -0.7785600368433272 -0.8746979304712229 0  -0.8703837705128215 -0.7841569569797077 0  0.1540810580745572 0.8419665788365683 0  -0.658067193025632 0.1523277286280034 0  -0.5771493408497415 -0.0641505280055589 0  -0.8543511219645331 -0.06260571200385391 0  -0.2953232342759997 0.5617296315788619 0  -0.4230546869119858 0.5694802706305991 0  -0.375394596677506 0.3305118243791262 0  -0.6179999582875477 -0.2161720453589327 0  -0.272430257551479 -0.08994560366173737 0  -0.6398516140167744 -0.5881722048512694 0  0.8597366308394903 0.2657885191326907 0  -0.03276004946334406 -0.03291051490726747 0  -0.0545861771340438 0.114365894173452 0  -0.1332834208028864 0.4315171147027515 0  -0.1195246395345934 0.03231684740853694 0  0.5377400706901297 0.06446374782022585 0  0.5791337467782467 0.3587095700545581 0  0.6911711050391532 0.7744485014979532 0  -0.7930701220332248 0.8809548357501268 0  -0.6430402168107268 -0.428835068725479 0  -0.1173759691281223 -0.3968650871311987 0  0.8722231332349004 0.4883529517771158 0  0.07593276046621611 0.0936836760240658 0  -0.6643074939425968 0.8678815845684524 0  0.4544998398608151 0.3500564800629387 0  -0.02623123894726824 0.0357802588698337 0  -0.4091788307274192 -0.4397628239377555 0  -0.3616678356368149 -0.268405036814336 0  0.3233575145637235 0.4812246524042227 0  -0.1956183325784442 0.2011447316075827 0  0.7055493807725182 0.5303733767572657 0  0.2616698647841189 0.3555627093092525 0  -0.3768063622817449 -0.8516982542187883 0  0.1092025934065133 0.6816583291645784 0  -0.2853923069697482 -0.6115641372799434 0  -0.4413742462093982 -0.6197289128060323 0  0.2960194179070865 0.6919375931583791 0  -0.8747844786804545 -0.1747174672994036 0  -0.1797947254096048 0.8547451018153992 0  0.4546648012414821 0.1630367014626131 0  0.2802387019165196 0.04657991807095548 0  -0.1419454777462388 0.6571604484570406 0  -0.0111784449148698 0.7083535007015154 0  -0.05324149543288573 0.8748316738351408 0  0.005576400097283279 0.4693908923184041 0  -0.3871258195788972 0.1531502711123783 0  0.5491161067987149 0.1329567650271931 0  -0.4753527333477975 0.6820936667864852 0  -0.8512954947732913 0.332547407822949 0  -0.09281973523007675 -0.5358113658941814 0  -0.03198090750964656 -0.5517621651675052 0  -0.2138517509783795 -0.2872181089889574 0  0.8685266155993475 0.1513936477144323 0  -0.1701940854620843 -0.6605899575693489 0  -0.8891730611945913 -0.5282809137417165 0  -0.2811721094729525 0.3378654687008732 0  -0.675826037026994 0.5737615213828826 0  -0.8973301841498182 0.5312086398336007 0  -0.8981811837162527 0.6606798603999008 0  -0.6439907525155243 0.07213824172400482 0  -0.8589273892464214 0.02843923538972429 0  -0.8879891436963063 0.1677860846150956 0  -0.1298100679597968 0.2286225419730978 0  0.1602929030644592 0.445721824335981 0  -0.04350181768068995 -0.1257386343533594 0  -0.7530623810608276 0.6698062105777967 0  -0.6019589017140893 0.6977215327465081 0  -0.2539765817413974 0.07835041307645264 0  -0.2488250158719058 0.648499817716174 0  -0.02737638584094408 -0.006344129561542022 0  -0.4941023397127701 0.8768598481158641 0  -0.4762896946922281 0.4901212192363454 0  -0.2899806787130259 0.1437717996173364 0  0.002280362963943607 0.02359175122212908 0  0.7793865424405508 0.6833362944288731 0  -0.4699606392922729 -0.8245872275101781 0  0.2718400705650776 0.19465160023637 0  -0.1489528674297442 -0.8631070094896817 0  -0.06624469204777117 -0.8296415706231909 0  0.4431710268293444 0.7056319346853013 0  -0.1178161171946219 -0.2879785986267969 0  -0.2645042285465867 -0.02619994228463038 0  -0.893728163685067 -0.8964421803211443 0  -0.5724635384013795 0.2367853392164603 0  -0.4756778277444749 0.08732625756968566 0  0.4910250437167283 0.8255527291008148 0  -0.02844519133690224 -0.2600607040563055 0  -0.3097679945165123 0.8752135350322282 0  -0.142738128415603 0.08038567602365505 0  -0.4688559048154703 -0.03497640854082001 0  -0.3875005027738562 0.01199385138736663 0  -0.2912890015730201 0.02744701294328201 0  -0.3845255139815875 -0.1203465640589864 0  0.8880884902506899 0.697901068374849 0  0.7925400052364722 0.9105760621706268 0  0.5765833212554532 0.2075742131114861 0  -0.5599753374181002 -0.4689775861944155 0  0.5986664834129917 0.7056426031957871 0  0.6781250396043307 0.8881256862197663 0  -0.05082054969829152 0.3027617917152745 0  -0.902036474448765 0.9045487473668842 0  -0.127291897
[...]
<PointData  Scalars="w"> 
<DataArray  type="Float64"  Name="w"  format="ascii">1.7580405335352581e-10  1.0398096251364013e-11  4.4611569385913984e-10  2.6121802161167321e-09  6.2390965980517736e-10  1.5734130321640471e-12  8.6954222403094840e-12  7.5302605938449393e-11  4.0847769050393993e-11  2.1189272374970749e-11  1.0799590709430522e-10  9.6092297579073219e-11  4.0353583372844715e-10  2.7880945786741394e-10  9.1905121566558290e-12  5.2326699474721851e-10  9.0731845344480172e-11  7.2379882586856129e-11  1.3064973999920083e-10  3.5700500823390383e-10  6.7192172138748293e-11  1.0453026437100538e-10  5.7247215854216396e-10  6.4742505855746114e-08  5.7904298554106448e-10  1.0892680343981974e-10  8.9371459523291083e-11  1.7205763258138966e-10  7.6653219009918043e-11  1.8893108790100445e-11  4.6725325373835935e-10  9.8303536005254754e-11  2.4359819083319196e-10  1.8138926605155190e-10  4.5236268371208133e-10  2.2562528299247630e-10  7.8384544871883693e-11  4.7879510392038191e-10  5.8583257013438987e-10  3.1421167810808105e-11  5.2890358286883353e-11  1.0799137398066660e-10  9.3026967319955440e-11  1.9999593224181552e-11  1.0460394976421135e-09  8.8319350476335599e-11  3.2276220633915381e-11  9.6813350255681768e-11  1.2408298948385271e-12  5.8747884540511920e-10  2.2014527966067575e-10  2.1310362482169190e-10  8.2582752736844993e-11  2.5184072493996091e-10  2.6184445933858397e-10  2.0510004329949348e-10  3.5798153036246975e-10  8.9368045528850415e-11  5.7643136739237614e-10  2.5192456163427303e-10  3.1217606719335956e-11  3.1396006888538330e-10  3.7906100376267673e-10  1.4433773577131323e-10  5.4277605626856861e-11  1.7860885515184124e-10  7.1128827776861244e-11  1.7826032954019722e-10  2.3302822632163679e-10  4.6337027119705805e-11  6.4712413306600988e-11  4.3076290230016885e-10  5.7127855952461682e-11  8.8407860160122948e-11  1.7199252265674032e-10  1.7085139461118277e-10  2.5638459589730815e-10  2.9111769073051967e-10  1.8263401827247257e-10  1.9567951855022378e-10  6.5568877052368421e-11  2.5232824015801488e-10  2.6148151521010784e-10  2.0133886899033371e-10  2.3397941104428679e-10  1.2522754431337109e-10  4.7190273025477147e-11  1.1049441567134050e-10  9.4443481749276664e-11  2.5363047177774458e-10  6.9464836577448593e-11  1.0002377142041996e-10  7.8675444269109267e-11  9.5031203237424575e-11  3.8921932556558678e-10  2.0956873826576131e-10  2.5613558498749337e-11  6.5063856655377695e-10  2.5738998893046160e-10  3.1874535490715860e-11  2.7818433985988115e-10  4.1247036909747307e-10  7.1189633311868833e-11  9.7559914626254848e-11  1.5796857165656423e-10  6.3701089981856484e-11  2.7326659733702233e-10  8.3860158605833759e-11  1.4720896140709512e-10  6.6420950660796962e-11  3.1233828930455008e-10  2.4746447394451725e-10  2.3105377623388271e-10  6.4218613062599567e-10  1.2078467934025391e-09  1.5033344503586454e-10  1.6449386551312357e-10  1.0310239910965402e-10  4.5785579273117168e-10  2.6009411829969018e-11  2.5876656576109894e-11  2.7747718601602474e-10  9.1012230331021395e-11  6.1628747179050435e-11  5.0069560223784490e-10  5.7935746256261894e-11  5.9564307990890373e-10  1.1856916572223304e-10  7.7448987405854285e-11  8.2935947222092546e-11  3.4114264657529007e-10  1.7399433072132793e-10  4.6362482288038451e-10  1.3606191447498344e-10  6.1781334796600650e-10  4.4722899083584953e-10  1.0966924628335276e-10  5.2435344330903719e-11  1.2992288536542392e-10  2.5801356206942733e-10  4.5043829426995867e-10  6.0155744071696491e-10  9.3368117099983662e-11  1.1902346915168050e-10  6.9066480664119039e-11  6.5537450138008175e-10  8.6981374809012080e-11  3.2819066074086103e-10  1.4888789307646140e-10  1.2492994607694916e-10  2.0147758120774138e-11  2.8269266084425656e-10  1.5734092171183427e-09  5.7316913958253110e-11  9.5814398881665480e-10  7.9660915806470509e-11  2.4753189672970463e-11  2.4505628318496587e-11  1.2192549577346966e-10  5.5811287221785818e-10  4.4462085117439430e-10  1.6103722619817865e-10  1.1540256993966271e-10  1.6844898284836860e-10  1.8821418477147667e-10  5.9118893103427690e-11  7.8005383326864750e-11  2.0544009955560121e-11  6.0501961856436827e-11  2.9594028638695740e-10  9.2482030081852555e-11  1.0635408894069904e-10  8.3397408383165253e-11  9.6941058927537803e-11  5.3610325432632485e-11  9.6068454434884659e-11  4.5509980601173435e-10  5.7029070977867848e-11  1.6411041398602689e-10  1.7130943719187791e-10  4.6181663537743173e-10  1.9848008746242537e-10  2.8161280376411038e-10  1.4263533969219791e-10  1.4514999115347714e-10  1.5102913698105178e-10  2.1161309994524182e-11  2.8653804020870184e-10  6.4492805478179481e-10  2.5785436588385503e-11  2.5068660095836561e-10  8.9653046305683583e-11  1.5806721759526654e-10  1.1038079174259235e-09  1.3692767781508083e-10  1.6266847358318894e-10  2.3407369896698122e-10  2.8724233298350633e-10  1.0648507985907736e-10  2.0455735095920151e-10  4.1948784936612747e-10  2.1894958402341042e-10  2.4057966210522134e-10  1.1000598252001216e-10  1.1304585394926487e-10  1.1344496232545163e-10  7.1673735795640294e-11  2.0809765538035254e-10  8.8150968985258809e-10  7.8428552351809141e-11  1.0918092198563927e-10  7.7891230450854225e-11  9.7077920024771168e-11  1.6265080832411734e-10  3.7714258800339555e-10  7.9427288128573196e-11  8.5773266895847916e-11  7.5908947489330440e-10  8.3470524255685436e-10  2.9267686429512627e-10  1.9968266310957449e-10  7.8145233465629018e-11  8.1249061617107341e-11  3.3660876539326277e-10  5.9172646094660123e-11  8.3909131536075728e-11  5.0507325539738467e-11  9.3644621471134506e-11  4.1661771745938551e-10  9.1147648965392828e-11  1.9730672623862367e-10  1.6634092551806733e-10  8.9899668956680638e-10  6.2219936105143078e-11  2.0004082807869716e-10  1.1521506351937103e-10  1.1290013783112614e-10  7.4507706953181304e-10  7.5649871445887730e-11  8.5642622440539905e-11  1.1815565866444143e-10  1.1072825275302602e-09  4.1364668893453644e-11  7.8031631611298265e-11  2.7826760017113025e-10  2.5269021115472179e-10  3.4606700298515943e-10  1.8346928837186925e-10  2.0613131653720883e-10  4.0366645195803207e-10  2.9600926787139511e-11  1.0589749293366608e-10  1.2849941518927195e-10  3.7875808210704460e-11  2.6594246575263699e-10  4.4430665191525804e-11  3.3177533763799402e-10  1.3617754485247018e-10  1.1048140677655631e-10  1.9139490130823270e-10  5.0220333716514334e-10  7.3477378811180716e-11  2.7109656637848437e-11  1.4497448630639208e-10  8.1995171705732532e-11  5.9866992565803731e-11  7.6867604292824549e-11  1.7905912126655342e-10  4.9966918158573840e-11  2.6269287961198380e-10  2.5405655428514179e-10  1.2836639704112768e-10  1.2834719747725512e-10  1.3761120310371087e-11  7.1442091555664521e-11  1.4611325594197777e-10  1.6958396448104434e-10  4.9558653638875106e-10  3.7086667962853639e-11  8.2694873122817971e-11  3.3661321584468201e-11  2.3776129138812448e-10  1.2649677226542804e-10  1.8587683504429128e-10  7.5235368963579482e-11  8.8501248028942392e-11  1.2050306456779356e-10  2.0356016892604388e-10  2.2372844836813717e-10  2.6179539180462195e-10  4.3606418372484962e-10  2.1412377595091519e-10  2.0954093211351521e-10  1.4600662959077672e-10  8.0207759440112656e-11  1.7076069406153279e-10  1.6654344783603988e-10  6.2356047963143906e-10  1.2924179667517386e-10  6.2871954034208819e-11  4.0607243758062754e-10  1.8939468758908169e-10  2.0958648961137075e-10  1.2416581247361935e-10  3.2916696744264009e-11  4.5061144986852590e-11  9.9558743180703506e-11  6.7752248674926465e-10  2.9254563474165586e-10  1.8140101196868600e-10  1.3707665432322240e-10  3.3693323666648938e-10  6.7299881281408439e-11  1.0952824499361935e-10  3.5204649052488928e-10  1.0988391126453586e-09  9.9332032335763213e-11  2.8198594331652264e-10  6.1216469447631817e-10  1.2241912225377076e-09  1.9734814458031844e-10  1.5209490955271670e-09  4.1694375897987709e-10  2.2587931533864030e-10  1.1799135919916006e-10  4.2241671110736507e-11  6.6502215545926417e-11  1.2618696975495573e-10  1.5733090334423568e-10  6.4339184155955911e-11  9.8855574472843631e-11  1.0682667096541615e-10  1.2806913594839191e-10  1.9217529853598115e-10  4.9502818843966491e-10  3.1828026879427106e-10  1.6638212287893427e-10  9.6697373572769895e-11  6.2093227872344413e-11  5.9501000733194991e-11  7.0710394973603034e-11  1.8274251317183879e-10  2.2731722176883208e-10  1.0665283195214628e-10  1.0640821502658575e-10  2.4018247032781890e-10  1.3731228897911895e-10  7.0270983098242457e-11  5.9901606031758815e-11  1.0561404634612881e-10  3.4513218545298012e-11  1.8753686526060522e-10  3.3105193800158179e-11  1.6086733816695362e-10  1.7933748118884033e-10  1.5169256739832772e-10  3.9804455913224509e-10  7.9834381438439135e-11  8.3878193800953464e-11  1.4518023816278080e-10  3.0734130647258437e-10  1.4340058677926613e-10  2.6348557853175125e-10  1.1140883842605437e-10  1.3610589539418560e-10  1.5806627457875683e-10  2.8378101508973839e-10  1.2746251968840623e-10  3.3917871180661509e-11  1.1790931736169532e-10  1.1248890010986379e-10  1.4891837194013493e-10  2.5450036797350034e-10  1.7164045273674027e-10  3.5311453793352729e-11  1.3011766532013343e-10  2.3281817203878705e-10  2.9494076747902240e-11  3.2992500815842663e-10  1.6334073205137684e-10  3.8789293520967636e-10  1.1270130731911926e-10  2.3725410220618706e-10  3.2583988146678212e-10  7.6218893896472082e-11  1.0625853624163823e-10  2.1909466354478880e-10  7.4253028979921301e-11  4.8371029653572662e-10  1.5973831474120383e-10  9.8831860942771527e-11  1.0897914603376636e-10  2.1081266070015538e-10  5.3865172370061209e-10  4.7582869955542692e-10  1.7947106035099188e-10  1.7226934335096483e-10  2.0877737146094739e-10  4.0342399633109496e-10  4.5808747937142729e-11  2.2597217833579371e-10  8.2424578484126496e-11  1.2385429289963579e-09  1.1839752028526866e-10  4.6191700758861307e-11  5.4673477546321298e-10  3.3091548749504316e-10  2.4661234459712581e-10  2.1094561706859186e-10  6.4640584220546175e-11  1.5438502838998133e-10  3.3680251365670890e-11  4.3709269243289150e-10  8.2830134219570583e-11  1.3917761847921374e-10  1.2780202095373249e-10  6.6326431273108368e-11  3.4925421126035261e-10  4.3739252804334999e-11  1.1888146927717548e-10  2.4280221412913192e-10  1.7855694539855370e-10  7.0937446749761968e-10  9.3207150171017643e-11  5.7378616212601423e-10  1.4876368767161671e-10  3.5277211022490255e-10  5.4805701111813590e-10  2.4336433598697304e-10  1.5547092708720015e-10  2.7170601280217182e-10  4.7889799217735704e-10  3.4719840715042747e-10  7.6166530408633795e-11  4.9411132704277227e-11  1.6313434852668219e-10  3.5548793513094040e-10  1.8699521892909624e-10  1.2699150388282514e-10  1.7279045887994289e-10  8.1464633989147244e-11  7.1707980645389359e-11  1.9961998029572787e-10  5.8371938883261024e-11  2.0788786190324521e-10  9.0883781038198172e-11  4.7777933339849025e-10  4.9638704453575072e-10  8.2325046835765363e-11  4.2150733999324408e-11  3.9676863216348599e-10  6.4678324009708916e-10  2.5880278579956661e-10  9.8104949700553885e-10  2.8727838349819167e-10  3.1613539821719369e-10  2.7178523401352381e-10  2.6523730337587460e-10  9.7982082179717868e-11  3.1498046201480897e-11  1.9436344536026420e-10  1.0693713951202290e-10  2.1621106764550869e-10  7.5244377009184332e-11  1.2348205400941818e-10  2.0389797585628780e-09  1.7680071627685965e-10  8.1449276532440918e-11  8.2465880791531352e-11  3.9825172360608484e-10  2.4263078086502922e-10  1.8964663790852059e-10  2.0817352745240611e-10  4.4804025647973581e-11  7.5275859781016192e-10  2.4161188879725985e-10  5.3554423432637114e-10  2.4901604168962928e-10  2.4369501123914240e-10  3.1322664459292835e-10  9.4651346737796709e-11  3.3190169223630280e-11  3.6297912530618860e-11  3.6667987495349599e-10  3.6572747194945531e-11  1.1808787360015917e-10  1.0183670694794607e-09  7.5276610687388865e-11  3.5319627476289926e-10  2.6373647896121676e-10  6.2179599689198647e-11  6.0281770065102680e-11  1.7964952924270428e-10  2.4459501260992943e-10  4.8703449549134575e-11  1.1353947255842112e-10  1.6168523747821498e-10  7.5765482200703850e-11  1.7025493598467241e-10  2.1175403133047417e-09  3.3756404512421461e-10  3.1923262315512569e-10  1.0687898359522180e-10  1.0818879354143981e-10  1.8955302749140210e-10  8.1214177452684604e-11  1.3443353241540692e-10  4.9989359330645854e-10  8.7357589728600362e-11  2.4341766184525196e-10  2.1563091620385369e-10  1.3888374491651951e-10  5.1442463021147724e-11  7.8727265123315944e-11  5.6186177368899507e-11  3.9983981013857888e-10  1.0704367145032185e-10  2.2138868690305353e-11  5.6989037903802371e-10  3.0998804565284268e-11  6.2023182770734560e-10  1.1794746449274061e-11  8.6656719263773166e-10  1.7424368944541801e-10  2.4981720943554348e-10  1.0545361713900638e-10  2.8973207005328149e-11  8.5599291586767487e-11  2.8175872182294899e-11  2.0716867294716019e-10  3.7223077781470941e-10  2.7175896257767632e-10  3.2853114726612497e-10  1.3493280684580603e-10  9.4971448221950903e-11  6.4163826633815189e-11  3.6035657514525300e-10  5.0389370460468694e-10  1.0586916343083316e-10  1.0115120489721880e-10  1.4759084575108097e-10  7.6593668213085217e-11  4.5969205015020046e-11  5.5589490228593942e-11  3.2574316207445150e-11  8.8853029907808158e-12  1.7918889766473145e-11  9.9371881834277352e-11  2.2726180909539675e-12  1.1177142546389229e-11  1.8601260964166811e-10  3.4838916872451369e-09  2.2627821320278264e-10  4.2708877690564947e-11  2.2046860356135458e-10  9.3413888098267634e-11  1.1211548771176507e-10  4.3971575871797374e-11  1.7290607950288230e-11  8.9080105233195702e-11  7.2581745186895472e-10  7.9997180873619161e-11  1.8339455969446163e-10  3.2422239699966634e-10  4.8301684432314774e-10  9.6510238393621358e-11  1.0210794707032480e-10  5.8773284332836479e-11  7.7243795978415992e-11  1.1324871375489730e-10  5.7657930317552303e-11  5.9436957205464285e-10  5.8997841553087483e-11  2.7660307363067752e-10  8.8498938806304408e-11  1.2816212002425690e-10  3.1283731990387389e-10  4.1800158428406928e-11  6.3874714508207440e-11  2.8869045702414681e-10  1.2007876916687129e-11  1.1346369354021746e-10  8.8862901144636425e-11  7.7304425724771836e-11  5.6042332712562043e-10  1.6123823209226875e-09  2.8827894298875590e-10  2.8864892666917226e-10  9.1023245934073355e-11  6.9783351432031942e-11  2.5541768591488400e-10  1.1753472369153979e-10  1.0039702986283579e-10  1.0508556415280327e-10  1.9909158206118632e-10  7.4354340405825631e-11  5.2851095757086125e-11  7.0900102483567915e-11  3.9901653628064064e-11  8.6730897165192752e-11  1.9070362490913614e-10  1.6158041130914897e-10  1.1145201386317125e-10  2.7376851240176922e-10  4.7385618333073749e-11  1.3669042481150679e-10  5.2014519536337063e-10  6.7233166005376870e-11  1.1839159270802784e-10  1.2637642881302096e-09  5.8366658958238163e-11  3.3440209030808808e-10  5.0884151944531018e-10  1.5776235342797564e-10  1.2866071019029156e-10  1.2574787059247241e-10  9.0504154720921345e-11  2.4771842643654147e-10  2.8522957834609538e-10  1.7742666676267875e-10  4.6594995914188413e-10  4.2210456028040349e-10  1.2216777197360338e-10  2.1132557120262445e-10  6.6993753609685550e-11  8.5245907208785439e-11  6.2952146397849432e-11  2.4005378185631654e-10  4.0066476655961303e-10  3.0746936709157182e-10  3.2382193475789190e-10  8.6263285189087308e-11  2.2671952946138966e-10  4.7772989443696061e-10  1.7148101138468084e-10  4.8275210230525213e-10  1.8419846002965260e-10  1.3779397679548839e-10  1.1189737458097828e-10  5.1434250033543313e-11  5.4750349224710999e-11  3.3408276388568759e-10  6.3142885533098782e-11  6.4688051596547256e-11  1.2939887467897430e-10  3.2114669394901733e-10  3.1895876712410591e-10  1.5728110449501741e-10  1.1773662517020842e-10  5.8779297173391955e-10  6.2449928990422045e-10  1.5916473275498851e-09  2.6707299029877616e-10  1.9873077103771210e-10  4.4187989136001966e-10  4.5398939977423549e-10  1.1621483295445097e-09  2.9538125550099509e-10  2.4801763067219295e-10  3.3355894322036389e-11  1.3003961010634119e-10  3.2257392538771947e-10  4.8342304098768619e-10  2.1209837668029504e-10  6.6237329167460175e-10  3.0650229933315613e-10  2.1747728624039335e-11  4.8211787576034445e-10  3.3485366398791337e-10  3.8829871977845932e-11  3.3346004148525772e-10  4.1396082350744237e-10  5.4292172122325427e-10  1.4554757271836547e-10  6.7023896432823276e-10  1.9577381188670918e-10  4.7633012489250586e-11  1.2769282187516605e-10  1.3296341899469768e-10  3.1849668219241598e-10  7.9548026417270844e-11  2.6481220143147288e-10  1.9638250033273701e-10  8.2574611504890387e-12  2.4461965020312684e-10  5.8351007565483586e-11  9.0695573472498741e-11  1.2453534698389322e-10  6.2928293645541319e-10  4.1094652999895120e-10  3.0289123794480770e-10  1.1738343485545630e-10  1.3242596259065551e-10  8.9400057781385109e-10  5.3718588807170548e-10  1.3472850409190687e-10  1.4170154276321539e-10  9.3476594478829157e-11  4.8695734215313468e-10  1.3914133388322415e-10  1.7545168057000128e-10  9.5488074462307972e-11  7.1030847077898303e-11  6.3651619077624275e-11  1.5060198865870940e-10  9.8640326436580385e-11  1.2937279963529113e-10  4.3540394465774054e-10  7.7399736095363910e-11  5.9384753432170140e-10  1.2728977381217015e-10  2.2389755710486993e-10  2.8094353694024435e-10  5.4696986470598211e-10  1.1671998171100898e-10  4.1137603902159913e-11  6.3442934752124612e-11  1.4210782263772325e-10  1.5938071675401938e-10  5.1731795211126798e-10  8.4918181781687132e-11  1.6374976358276485e-10  2.5288950856308629e-10  1.3791642052898676e-10  2.3671849623267251e-10  3.3572018469797594e-10  3.1071235835124398e-10  1.0521415174763449e-10  1.7516171511484284e-10  1.4905124357854247e-10  2.2805206586640970e-10  4.6950950222805773e-10  3.7323495042994107e-10  2.0178459330160340e-10  2.0647966026216668e-10  1.2588833079329833e-10  1.7319144130821414e-10  2.9933857483708221e-10  3.8074981329866997e-10  3.6140234807348616e-10  1.6576445326716872e-10  2.1986967386510188e-10  1.9526772718087480e-10  1.5493597633093432e-10  3.9934984815662157e-10  3.2011864792228553e-11  1.0548701749670192e-10  1.2642649109150320e-10  4.5352449049937280e-08  4.0597892653285387e-10  1.7734562623883905e-10  6.1199549247246945e-11  2.5611277118097749e-10  1.3832490855823722e-10  6.4754963557358211e-11  1.0598637469227895e-10  2.0240426004087301e-10  2.0664613466390913e-10  1.9583694857528237e-10  1.8962789975265914e-10  3.1012492956786069e-10  6.5825188111758493e-11  8.0451928227451474e-11  1.9160849298167873e-10  1.2196939837456335e-10  3.5482853515320334e-11  4.0296192816063666e-10  6.5043077795618271e-11  6.2295231348211813e-11  1.9335898670882522e-10  9.9612244278172137e-11  2.3793433897268973e-10  2.9210069264136190e-10  1.9797168054766315e-10  7.9909872711512628e-11  1.8838908930991215e-10  9.6839387608909996e-11  3.2813081909487826e-11  9.0911920579005797e-11  5.8597643736852127e-11  7.8629680657480749e-11  2.2468306434824253e-10  4.7541020858894574e-11  6.6518546323250610e-11  9.4906944396348507e-11  9.4189195235792493e-11  9.4206922564021835e-11  2.5073856098729476e-10  8.7843242660753296e-11  1.8442102317801751e-10  2.0187594383241366e-10  9.8969481636299393e-11  1.6074219488487575e-10  3.1518680463581715e-10  1.2470877927883915e-10  6.1335227528206431e-10  1.7126414224196585e-10  1.4968934880577689e-10  1.3802962922263481e-10  2.2941122657318111e-10  4.4369332183114950e-11  4.0173536293668241e-11  7.7295006985038500e-11  4.3220237834168006e-10  1.9926396630844727e-10  6.4534250421918209e-10  4.4093086383960904e-10  1.2153675935638229e-10  5.4578226823212181e-10  3.6506600624210335e-10  1.8904639891937039e-10  7.1294737871200639e-11  9.4006642994447086e-11  1.7438885500415087e-10  1.8740309443330666e-10  4.1952356923835282e-11  4.8363484496804321e-10  2.7955263533168757e-10  3.0088125426230772e-10  5.3740691288651284e-11  3.5078970977573876e-10  2.6606715926072269e-10  5.7801997661582198e-10  7.3493829817157061e-11  6.2141470788481704e-11  2.3879890300475291e-10  7.3055054587512131e-11  4.2951483858787314e-11  1.4864797644765572e-10  2.4528099031983710e-11  6