<?xml version="1.0"?>
<VTKFile type="UnstructuredGrid"  version="0.1"  >
<UnstructuredGrid>
<Piece  NumberOfPoints="4852" NumberOfCells="9430">
<Points>
<DataArray  type="Float64"  NumberOfComponents="3"  format="ascii">-1 0 0  -1 -1 0  0 -1 0  0 0 0  1 0 0  1 1 0  -1 1 0  0 1 0  -0.5 1 0  -1 0.5 0  -1 -0.5 0  -0.5 -1 0  0 -0.1608775713298009 0  1 0.5 0  0.5 1 0  0.1967448868031411 0 0  -0.3403982924065052 -0.1754242728814119 0  -0.3361988247400914 0.2238159659816489 0  0.1739062071557547 0.3455070547948118 0  -0.1846566540289749 0.5544559826882574 0  -0.5040702310340244 -0.5371181800698009 0  0.4903938516566207 0.256551186706002 0  -0.06409403181365909 0.2005853961628123 0  0 -0.5061325913258391 0  -0.25 -1 0  -0.5608943317048039 0.5771680554565805 0  0.6614791832641619 0.6337139685085822 0  -0.1774124750537708 -0.5372167242684033 0  -0.5383956309702312 0.02533933552898147 0  -0.9999999999999999 0.25 0  -0.2056882422098644 0.02367511655072362 0  -0.6540278983968767 0.3091323343267568 0  -1 -0.25 0  0.03934574423430087 0.5911409351544992 0  0.1950261723605321 0.1284903759264911 0  -0.1365406793448875 -0.2194941199115725 0  0.3709893353333212 0.6139886045280878 0  1 0.25 0  0.5355652144809805 0 0  -0.75 -0.9999999999999999 0  -1 -0.75 0  -0.6449559401397608 -0.3227587820208166 0  0.25 1 0  -1 0.75 0  0.02757118475249542 0 0  -0.25 1 0  -0.75 0.9999999999999999 0  1 0.75 0  0.75 0.9999999999999999 0  0 -0.02898318711980711 0  0.05424876442078715 0.1419162261186246 0  -0.07751992777334187 -0.02777555894931233 0  -0.7007981453898994 -0.1323025993562952 0  -0.3218940935327744 -0.3466888648648485 0  -0.3397103508112456 0.436854998103881 0  -0.0997662548647302 0.7639270677929452 0  -0.3829466165629692 0.7022117071804359 0  -0.05454415418537719 0.3983071476500658 0  -0.07868799295321871 0.07177794409420681 0  0.3587810144315285 0.3688605039688002 0  -0.7161945239689579 -0.7299931758890319 0  0.4117562979302091 0.08967260172997549 0  0.6899418534023426 0.1913104602228314 0  -0.747349435949243 -0.5269932143275645 0  -0.3881403771277432 -0.7102824193393238 0  0.7215750981181239 0.4182097542426635 0  -0.775639353061957 0.09688247638613609 0  0.1967495489222449 0.6981796732813437 0  -0.1982058287011525 0.2879287454505026 0  -0.7986952167233983 0.5773030821022185 0  -0.7164982936708809 0.7662249182937501 0  -0.05325730044765269 -0.3731266790068444 0  0.5847870094430422 0.8162952535891964 0  0.8204257189228243 0.8061128104849248 0  -0.1039685104930553 -0.697032552487171 0  -0.5139658991655771 0.1623805804323239 0  -0.2013385102958528 0.1252903423670548 0  -0.3585676996750488 0.07510053795443933 0  -0.3646059192881216 -0.05234492559162262 0  -0.4961123488942321 0.3946747538962233 0  0.375 0.9999999999999999 0  1 0.125 0  -0.01178303986666607 0.07106943387350471 0  0.0622692381400122 0.3911906331965304 0  -0.1711357545262051 -0.1221783839739017 0  -0.2426078148058216 0.7733559597549804 0  -0.625 1 0  0.5332738351665786 0.4536735948697486 0  -0.5763453485763912 -0.8299706398215955 0  -0.2579956052392189 -0.7833578436943274 0  -0.3204291609022641 -0.5078582901268326 0  0.8339118162593647 0.5953246459899406 0  -0.5486124226254865 0.7905036422314602 0  0.125 1 0  -0.06733067431456098 -0.09332789459215565 0  -0.4941040378622372 -0.1430683713327383 0  -0.8750000000000001 -1 0  0.02955248980396669 0.04151706340745036 0  1 0.375 0  -0.875 1 0  0.05742131168293021 0.7936177042777479 0  -0.1970091563802919 -0.3729609069428479 0  -0.07251031461750831 0.5705296828448393 0  0.2363973070485013 0.5173127530455547 0  -0.7919749916484001 0.229391857032851 0  -0.4951792110731363 -0.3886109649584735 0  0.000295427652682943 0.2706075015660518 0  0.5098347815718053 0.6398692866793992 0  0.3988878598352088 0.8070919027810893 0  -0.8059033876154842 0.424327578066107 0  -0.06455998858892427 -0.2202993628499819 0  -0.7092397871430548 -0.01418624395919309 0  0.09048097395832619 0.05233056044683509 0  -0.4779209121824972 -0.2508819904506435 0  0.7238603618552756 0.08274886980452188 0  -0.8084674104827119 -0.4109550907863124 0  0.3374156191821397 0.153162063528993 0  -0.7943151125584409 -0.2506225843907011 0  0.2362183209761585 0.2537904217306967 0  -1 -0.875 0  -1 0.8749999999999999 0  0.1842681085148312 0.04774139313534473 0  -0.2474812921921081 -0.228639804585505 0  -1 0.375 0  -0.1706924489146942 -0.04172661974059514 0  -0.648431035285873 0.4672793740996628 0  0 -0.07736776745332727 0  0.08047389929664624 0.2593654697044585 0  -0.375 1 0  -0.216377789555804 0.4242409739667801 0  -0.1197050309872064 0.1498035187641075 0  0.1332653560111457 0.5536617918302553 0  0.1319166904496274 0.1933432145130922 0  -0.4742088055731808 0.2691757710902754 0  -0.04606639154684457 0.01389317586135548 0  0.8513890056027433 0.370038081097508 0  -1 -0.125 0  0.2856660120989826 0.8365907260953477 0  -0.110380758328035 0.3125097634842648 0  -0.125 -0.9999999999999999 0  0 -0.7575037395175259 0  0.07821397079968176 0 0  -1 -0.375 0  -0.3749999999999999 -1 0  -0.625 -1 0  0.7474787146812756 0 0  0.625 1 0  0 -0.2918843213980812 0  -1 0.625 0  -1 0.125 0  -1 -0.625 0  0.3284075310660084 0 0  0.004929205892015135 0 0  -0.125 1 0  0 -0.006571003003944568 0  1 0.625 0  1 0.8750000000000001 0  0.8750000000000001 1 0  -0.5629756594712088 -0.6762390000525106 0  -0.004559396082063882 0.1598909437548295 0  0.3622388363456563 0.2625880595321715 0  0.6529399633213401 0.293526725237405 0  -0.8547891914661605 -0.6467416642288455 0  -0.8631861533586866 0.7868885283483171 0  0.4303462059362801 0.5008723512627705 0  -0.3985225568169976 0.8555508540275482 0  -0.7788963723402845 -0.8748892007168436 0  -0.8706474480595822 -0.784485567971555 0  0.1541990342641557 0.8419868930618368 0  -0.6581029623350844 0.1525259335929258 0  -0.5772393851072608 -0.06407857426343865 0  -0.8543706333579887 -0.06258955959304019 0  -0.2955492914190199 0.5618014068619547 0  -0.4233490848699915 0.5696053752230915 0  -0.3754860039246391 0.3306092786495551 0  -0.6181733675119974 -0.2161411487743534 0  -0.2724541056930414 -0.08989893274605322 0  -0.6402237132395675 -0.5884266881501609 0  0.8596961956450329 0.265895817357823 0  -0.03274863482229991 -0.03291721976378558 0  -0.05455878794013179 0.1143384810551579 0  -0.1333212428622852 0.4315360291655453 0  -0.1194951785881289 0.03230413038059803 0  0.5377500864926646 0.06449016340089785 0  0.5791681798198686 0.3588249903683472 0  0.6914996203915902 0.7747936818428465 0  -0.7932537072490901 0.8809649274476983 0  -0.6432564109010346 -0.4289852071366204 0  -0.1181696255095884 -0.3964954090550283 0  0.8721486245391676 0.488657035558935 0  0.07594389896457168 0.09365450311066734 0  -0.6645761850620127 0.8678457647432165 0  0.4545150802309859 0.3501049433246192 0  -0.02621821012895946 0.03576548894444267 0  -0.4094136649037467 -0.4397488151626751 0  -0.3618069303849444 -0.2683213103500879 0  0.3234232245775643 0.4812689990608619 0  -0.1956231127607022 0.201144031468622 0  0.7056237783848822 0.5307341040062706 0  0.2616894611948946 0.3555693386727622 0  -0.3771105216141025 -0.851616364181898 0  0.1093316944692377 0.6817124407685566 0  -0.2857284023450513 -0.611550775997084 0  -0.4417079765255923 -0.6197788748569201 0  0.2961523285958884 0.6920264024058537 0  -0.8748657281129331 -0.1747385829410153 0  -0.1799026688994267 0.854668608931336 0  0.4546528876261602 0.163060426919349 0  0.2802294636379445 0.04658539181576121 0  -0.1420648251198308 0.6572365028174364 0  -0.01116417632741651 0.7084183822818491 0  -0.05326424985495323 0.8747684000772993 0  0.005602233743607224 0.4694144459750998 0  -0.3871301272670226 0.1532291432709426 0  0.5491280460921495 0.1329949278128642 0  -0.475725364422975 0.6822036198909588 0  -0.8512920861915985 0.3328689987111024 0  -0.09233141997415202 -0.5359654919178842 0  -0.0278409891550481 -0.5521125400211806 0  -0.2140711205248176 -0.2871094148776326 0  0.8685140617427022 0.1514512847733877 0  -0.1699058278814722 -0.6606960056737312 0  -0.8893103068766183 -0.5285874139306073 0  -0.2812568574330344 0.3378984235362846 0  -0.6760634175537864 0.5740564879685591 0  -0.8973660711832678 0.5314367885649736 0  -0.8982031189307615 0.6608486119073729 0  -0.6440546819644908 0.0722589230440313 0  -0.8589371450098752 0.02850581506487834 0  -0.8880080021626214 0.1679592643561737 0  -0.1298014770812178 0.2286072220365512 0  0.160365248373559 0.4457086358123678 0  -0.04351661558750632 -0.1257189661135402 0  -0.7532789065314009 0.6701208509620338 0  -0.602299344761439 0.6979612736696965 0  -0.2539637818920234 0.07835735147754712 0  -0.2490362534269179 0.6485697650513286 0  -0.02736716143027742 -0.00635237932870244 0  -0.4944328058185761 0.8767987095932932 0  -0.4764921627892742 0.4902895910005212 0  -0.2899895615116462 0.1438037252738445 0  0.002289404227711735 0.02358484850972723 0  0.7795295989811873 0.683859159730147 0  -0.4703615528493033 -0.8245690755304435 0  0.2718246993703144 0.1946376229590007 0  -0.1482227173222243 -0.8629946133179521 0  -0.06350299265786025 -0.8291037831126798 0  0.4434070360096976 0.7057974725793315 0  -0.1181314672000884 -0.2877887116293825 0  -0.2644998372589266 -0.02617649690423564 0  -0.8939369712392307 -0.896626892951946 0  -0.5725367812208508 0.2370226274318558 0  -0.4757204841147064 0.0874233940143882 0  0.4912937223017063 0.8256803378468746 0  -0.02861626372368277 -0.2601042012957471 0  -0.3099474448055839 0.8751280033664529 0  -0.1427090923610484 0.08036743945963122 0  -0.4688992784789213 -0.0349247373139351 0  -0.3875040998677993 0.01203127069741142 0  -0.291279662022713 0.02746754474405131 0  -0.3845838568566587 -0.1202878915462476 0  0.8881185719429092 0.6983397859825889 0  0.7928737516157637 0.9108218059334416 0  0.5765917500746652 0.2076182922643878 0  -0.5602962624670579 -0.46908086448909 0  0.5989222729615041 0.7059655556905921 0  0.678429571535225 0.8882943421888159 0  -0.05079065342347375 0.3027419215865033 0  -0.902109838954232 0.904619857053871 0  -0.1272826131213901 -0.06704529311253071 0  -0.1690295524582998 -0.18224131
[...]
<PointData  Scalars="w"> 
<DataArray  type="Float64"  Name="w"  format="ascii">1.7601784603501635e-10  1.0336224793217298e-11  4.4337603034453517e-10  2.6028222012290185e-09  6.2414433290009867e-10  1.5686395285733657e-12  8.6804625102000980e-12  7.5548193988968246e-11  4.0954274881086096e-11  2.1281749959868275e-11  1.0685950913739685e-10  9.6020300787525290e-11  4.0343914656757584e-10  2.7796881080261707e-10  9.1683368518643103e-12  5.2364752898206606e-10  9.0722884649769418e-11  7.2376968172764976e-11  1.3065043278215280e-10  3.5766437233425727e-10  6.7499494561276533e-11  1.0493484544827688e-10  5.7318100798386692e-10  5.2159892999652320e-09  5.8187096644749725e-10  1.0893896275357635e-10  8.9297401101990345e-11  1.7275578481715521e-10  7.6732819420764025e-11  1.9019835642233688e-11  4.6777902604545984e-10  9.8464799509524852e-11  2.4241694855836366e-10  1.8128111500241694e-10  4.5191302886678975e-10  2.2533962445955268e-10  7.8329110406997941e-11  4.7806700525062847e-10  5.8613501864631867e-10  3.1327625216963053e-11  5.2162132693133423e-11  1.0773020501175349e-10  9.2812665486755951e-11  1.9934765170304594e-11  1.0453676776622442e-09  8.9026100638805246e-11  3.2384226436982521e-11  9.5792322617234078e-11  1.2575034045926885e-12  5.8732162063218992e-10  2.2018662379275352e-10  2.1301357308040481e-10  8.2345071938673945e-11  2.5191590635078000e-10  2.6346943909204583e-10  2.0379969063752092e-10  3.5691613971247358e-10  8.9526528192438399e-11  5.7638261205565236e-10  2.5252494530013398e-10  3.0927348437814960e-11  3.1431771674679593e-10  3.7907983739470285e-10  1.4463719679081448e-10  5.4244123261740012e-11  1.7881515053629708e-10  7.1252063431661302e-11  1.7745593917021696e-10  2.3307030961351381e-10  4.6119175354208665e-11  6.3976101072760926e-11  4.3964925143278047e-10  5.6964944974876936e-11  8.7672991619467710e-11  1.7966822971581880e-10  1.7105956813206816e-10  2.5692509689531442e-10  2.9172002969046202e-10  1.8262061463847563e-10  1.9512991504930778e-10  6.5524580527573369e-11  2.5220373946145076e-10  2.6128738158271585e-10  2.0170278362733212e-10  2.3420558251266727e-10  1.2479189837297461e-10  4.7095023017625778e-11  1.1089314801486365e-10  9.4120379553794589e-11  2.5510721637858646e-10  6.9462634248855963e-11  1.0001841651906109e-10  7.8313407929134857e-11  9.5121594715716144e-11  3.8945069577044939e-10  2.0950467559782012e-10  2.5356589413872228e-11  6.4970060552545040e-10  2.5791046836999311e-10  3.1722957693240092e-11  2.7789549594077943e-10  4.1178207212066436e-10  7.1474367037201318e-11  9.7840556691832402e-11  1.5837379743937170e-10  6.4000330876280149e-11  2.7347655469101995e-10  8.4123929740084636e-11  1.4676074429902614e-10  6.6110185458170354e-11  3.1235299779891611e-10  2.4659078984395292e-10  2.3078768304645469e-10  6.4175977124076686e-10  1.2081966526999460e-09  1.5105116580882734e-10  1.6430534457083039e-10  1.0357102986713661e-10  4.5792765831782794e-10  2.5672557281850255e-11  2.5797082844692052e-11  2.7728974935040116e-10  9.0995055158792160e-11  6.1546987094867117e-11  5.0089475083102181e-10  5.7924337383557480e-11  5.9520203353452995e-10  1.1876178312870663e-10  7.7643653967376105e-11  8.3151711788208609e-11  3.4144390617463114e-10  1.7463386585009346e-10  4.6359852801440836e-10  1.3628944735934486e-10  6.1727735959741377e-10  4.4638296823900574e-10  1.0949534514693759e-10  5.2401753736620613e-11  1.3019659156961968e-10  2.6361475348544860e-10  1.3148450772509921e-09  6.0146172853231293e-10  9.2489449642843239e-11  1.1888790868358477e-10  6.8453106938725689e-11  6.5566418106252549e-10  8.6187393092969132e-11  3.3182915064458723e-10  1.4849621131461284e-10  1.2520656649881736e-10  1.9938000330411667e-11  2.8276971061926799e-10  1.5716451488758720e-09  5.7693338894687395e-11  9.5753915165578700e-10  7.9069641180206012e-11  2.4211431563613629e-11  2.4091044853932221e-11  1.2216704149591214e-10  5.5806567339392429e-10  4.4613438924469797e-10  1.6105700782915710e-10  1.1428844736046668e-10  1.6778391886489644e-10  1.8870591660804959e-10  5.9146982035547466e-11  7.7240088604076310e-11  2.0411118020728315e-11  6.0495909810821819e-11  2.9520376375970041e-10  9.2627388427165683e-11  1.0639115357470973e-10  8.3884038179069471e-11  9.7010690331082175e-11  5.3674124038917578e-11  9.5935176674883350e-11  4.5553990164516254e-10  5.6743455615836897e-11  1.6419198754799709e-10  1.7100418533824952e-10  4.6238403619354872e-10  1.9868921315835946e-10  2.8191612776891917e-10  1.4273676193215376e-10  1.4535356920100748e-10  1.5047420794460599e-10  2.1076494156305811e-11  2.8473530676868427e-10  6.5258464182701577e-10  2.5708314060728832e-11  2.5081217387620943e-10  8.9165095481140221e-11  1.5833684610315244e-10  1.1026646073599936e-09  1.3715165806337543e-10  1.6268573133878860e-10  2.3406592316356566e-10  2.8781737825046566e-10  1.0613255527805768e-10  2.0468406405097333e-10  4.1872793394949594e-10  2.1842874646862979e-10  2.4025258232695133e-10  1.1027683252579131e-10  1.1283504841222919e-10  1.1353040975520527e-10  7.1448284186748820e-11  2.0818060356584899e-10  8.8139533871643810e-10  7.8699209909329896e-11  1.0952573170229268e-10  7.7955360405979616e-11  9.7177632152757199e-11  1.6292041041157949e-10  3.7741444454495910e-10  7.9101500692428745e-11  8.5285278884622527e-11  7.9578200532708361e-10  8.8643372582914471e-10  2.9296308759344224e-10  1.9979085560625269e-10  8.0204870205924208e-11  8.0807027616577404e-11  3.3675645217938671e-10  5.8984671780932274e-11  8.3338413255232034e-11  5.0313334471219557e-11  9.3543359822806547e-11  4.1651344289672458e-10  9.1200111712347056e-11  1.9761974591592751e-10  1.6618472831185482e-10  8.9843558444137281e-10  6.1857540047541154e-11  1.9973388684828708e-10  1.1534772866645208e-10  1.1296755706087533e-10  7.4497243904550593e-10  7.5162657837436946e-11  8.5437617570828428e-11  1.1810160412031842e-10  1.1056249527978632e-09  4.1140812678076470e-11  7.8005305840501692e-11  2.7816245410157094e-10  2.6255597051481515e-10  3.5918048186352280e-10  1.8314682107057746e-10  2.0668674370757053e-10  4.0394109117633050e-10  2.9303849579995442e-11  1.0574514236166448e-10  1.2866897725376687e-10  3.7816217818396289e-11  2.6757983678536043e-10  4.4526424006862818e-11  3.3133321585968916e-10  1.3640167882839351e-10  1.1054790443403422e-10  1.9145757541157892e-10  5.0230271044536602e-10  7.3196817126287895e-11  2.6845404571398337e-11  1.4516566668845001e-10  8.2070062200038824e-11  5.9684096317915062e-11  7.6371391883365769e-11  1.7943656305614511e-10  4.9790619814188822e-11  2.6246054783345475e-10  2.5419257207229221e-10  1.2834661595324435e-10  1.2827664481432532e-10  1.3493374039874399e-11  7.1437173796167108e-11  1.4598837952288486e-10  1.6944258749886468e-10  4.9550206387501709e-10  3.7232630268137403e-11  8.2911932616724945e-11  3.3579044262889417e-11  2.3770959835631052e-10  1.2661572565731616e-10  1.8539757814232972e-10  7.5233144724392837e-11  8.8131452518451083e-11  1.2074933506719610e-10  2.0394750057957238e-10  2.2369324624136422e-10  2.6217991905632446e-10  4.3591157607704244e-10  2.1445754527556439e-10  2.0949750957848078e-10  1.4679278265860690e-10  8.0315106572480037e-11  1.7099494934958669e-10  1.6819959964828583e-10  6.2326508006324495e-10  1.2886115515281023e-10  6.3083041468133078e-11  4.0647462284965360e-10  1.8937925365170564e-10  2.0857114432856992e-10  1.2488157833550159e-10  3.2550388465220592e-11  4.5019142913302263e-11  9.9328422238098461e-11  6.7666577923139093e-10  2.9230513811491676e-10  1.8185153770825706e-10  1.3721072600725148e-10  3.3648150728550980e-10  6.7297439176390312e-11  1.0932950680525121e-10  3.5250945503600304e-10  1.3820841864464101e-09  9.9351493428585217e-11  2.8179113080803359e-10  6.1189072799600606e-10  1.2232234634279470e-09  1.9709716620004402e-10  1.5199252138701637e-09  4.1719182713784607e-10  2.2581916344191022e-10  1.1651550673733340e-10  4.2153996337633326e-11  6.6585998149831777e-11  1.2606330011518794e-10  1.5733958175632678e-10  6.4412028674779843e-11  9.8894998175031608e-11  1.0695129272930733e-10  1.2859243711445824e-10  1.9205136784399305e-10  4.9507977944745613e-10  3.1849246402595934e-10  1.6640606724705991e-10  9.7073593083476838e-11  6.2194773616783569e-11  5.9700877482074548e-11  7.0445016593779807e-11  1.8312838899075844e-10  2.2517211544579247e-10  1.0663320089755318e-10  1.0634962098133229e-10  2.4058375248017685e-10  1.3746071923883084e-10  6.9979647156095829e-11  6.0134692478302466e-11  1.0565095157485695e-10  3.4420191240815705e-11  1.8688373945135234e-10  3.2937561333791881e-11  1.6089732304744850e-10  1.7924006100535361e-10  1.5144837853807854e-10  3.9591936212515175e-10  8.0031719243110577e-11  8.4122555573207973e-11  1.4456407456094636e-10  3.0601479670171289e-10  1.4323220879172746e-10  2.6352671530683672e-10  1.1157492264560989e-10  1.3597475682612244e-10  1.5730955731843747e-10  2.8420679945091100e-10  1.2750617169569147e-10  3.3776448447136109e-11  1.1733930425666607e-10  1.1252689561078378e-10  1.4944198783099647e-10  2.5321331316271117e-10  1.7097010071554086e-10  3.5355263955570275e-11  1.3057710360342096e-10  2.3296171900029319e-10  2.9352943048079841e-11  3.3008767696215102e-10  1.6353311372663886e-10  3.8722676249745096e-10  1.1302395882063359e-10  2.3575891280041110e-10  3.2623046431845216e-10  7.6214037789685121e-11  1.0642130499740038e-10  2.1934667908060454e-10  7.3406050509632117e-11  4.8335206830502422e-10  1.5983104847607795e-10  9.8889296097886577e-11  1.0893984723616245e-10  2.1095113862134778e-10  5.3849111684493823e-10  4.7590106844309222e-10  1.7873189594671736e-10  1.7187539584694541e-10  2.0821072504659177e-10  4.0424188610233760e-10  4.5913956393112916e-11  2.2547817795606844e-10  8.2622626692030440e-11  1.2386719080181998e-09  1.1866997181270196e-10  4.6262131103954126e-11  5.4677907761185645e-10  3.3072907173863444e-10  2.4677647905354029e-10  2.1027071152344947e-10  6.4637851426788157e-11  1.5461280793617737e-10  3.3611847542668164e-11  4.3727147936718109e-10  8.2652378822962440e-11  1.3971514096782326e-10  1.2817879577963484e-10  6.6302551370819652e-11  3.5002735388248166e-10  4.3817835989842540e-11  1.1869317255330662e-10  2.4245559697242637e-10  1.7863316730317636e-10  7.0947231819367787e-10  9.3154187176067800e-11  5.7362937660569108e-10  1.4790687729705618e-10  3.5237694954156289e-10  5.4782544572658256e-10  2.4340662489622812e-10  1.5587220558563224e-10  2.7170866152845923e-10  4.7879941240594694e-10  3.5276909199239178e-10  7.6150629227323952e-11  4.9083645005136201e-11  1.6324709820002137e-10  3.5555372211025521e-10  1.8652611501485651e-10  1.2635913248997693e-10  1.7274083294073295e-10  8.0879524013915161e-11  7.1348923216918432e-11  1.9980222283834851e-10  5.8312386798307277e-11  2.0827638368647229e-10  9.1102724492925661e-11  4.7771431107830941e-10  4.9443100657977430e-10  8.2338543242833140e-11  4.2213701314539201e-11  3.9532442942060431e-10  6.4710401415079164e-10  2.5903019396369502e-10  9.8054067764692069e-10  2.8757818555744548e-10  3.1634473981917758e-10  2.7134859608675774e-10  2.6514636616827877e-10  9.8030153996715106e-11  3.1328277163487896e-11  1.9467287072528222e-10  1.0760591639647735e-10  2.1678796234295630e-10  7.5221102723956074e-11  1.2215983218375466e-10  2.0368887104592972e-09  1.7695697553377039e-10  8.1354448284238378e-11  8.2259436425622869e-11  3.9836467985044070e-10  2.4302151652309953e-10  1.8973647083684255e-10  2.0874635897652322e-10  4.4532401689331283e-11  7.5303661496704412e-10  2.4165434917236297e-10  5.2522151388573994e-10  2.5614860989806917e-10  2.4401773584142455e-10  3.1332422488475163e-10  9.4749106920191382e-11  3.2960111196744962e-11  3.5921551107220599e-11  3.6653304312011046e-10  3.6628633905981527e-11  1.1810742022148720e-10  1.0190575752518809e-09  7.5167136267804905e-11  3.5224446766795180e-10  2.6374821425972748e-10  6.2142254997715567e-11  6.0221720000411029e-11  1.7991816629577900e-10  2.4452439278179528e-10  4.8331766584933785e-11  1.1377196189469200e-10  1.6150061880405139e-10  7.5914220819826194e-11  1.6956322137344746e-10  2.1164337116622816e-09  3.5118837037420765e-10  3.1927638970657112e-10  1.0703903128300692e-10  1.0759078676688575e-10  1.8910122469043805e-10  8.0685556997745605e-11  1.3422370358910431e-10  5.0119167480112957e-10  8.7608186482312635e-11  2.4336922983886877e-10  2.1472896964752987e-10  1.3875393199063151e-10  5.0931996406961579e-11  7.8167153943565873e-11  5.5492989522263234e-11  1.6642914595439146e-08  1.0743109627332759e-10  2.2072429351298049e-11  5.7013086863497438e-10  3.0735461955792269e-11  6.2047064541230787e-10  1.1795003792562029e-11  8.1127198468405080e-10  1.7419332968250654e-10  2.5323551521011259e-10  1.0507157576530711e-10  2.8872706434097921e-11  8.4848508852062943e-11  2.8155283650264277e-11  2.0482955201083240e-10  3.7244944998864971e-10  2.7165872046150470e-10  3.2799340025872707e-10  1.3476301036982007e-10  9.5448201785713046e-11  6.4124964019203854e-11  3.6033555977819104e-10  5.0381095668119140e-10  1.0516756986779560e-10  1.0087145808854824e-10  1.4773728685179993e-10  7.5881722717743376e-11  4.6273973751562144e-11  5.5467739196695120e-11  3.2489915990319750e-11  8.8326498420461461e-12  1.7779643755111671e-11  9.7974759435603327e-11  2.2403687742586577e-12  1.0999793896930019e-11  1.8612966865467819e-10  3.4844264887076759e-09  2.2640995894117118e-10  4.2198273772563297e-11  2.2160163896847347e-10  9.3243263795300124e-11  1.1204209192834384e-10  4.3636910168232042e-11  1.7232928543563514e-11  8.8918444605239881e-11  7.2474246348438027e-10  7.9559534774550106e-11  1.8327349074724140e-10  3.2460750578006164e-10  4.8209661429839919e-10  9.6500817556742561e-11  1.0230996176533557e-10  5.8867679160252773e-11  7.7428725357608446e-11  1.1272211708140801e-10  5.7112095788036692e-11  6.0792070499286127e-10  5.8992268308729019e-11  2.7644742964286011e-10  8.8623986268094730e-11  1.2815803513725825e-10  3.1210161946448567e-10  4.1836459355971424e-11  6.3893729541877268e-11  2.8804579044275180e-10  1.1895591376036655e-11  1.1313448472619440e-10  8.9205040530219943e-11  7.7343663370227692e-11  5.6073853121660043e-10  1.6131593818431217e-09  3.0629051820990642e-10  2.8870119243408274e-10  9.1201352465852428e-11  6.9788021672670163e-11  2.5575447884097342e-10  1.1705330830273422e-10  9.9733354678126736e-11  1.0514311917175591e-10  1.9862331587617919e-10  7.4267026590119484e-11  5.2210594221884382e-11  7.0294576216157250e-11  3.9556665479653620e-11  8.6094388559429586e-11  1.9077277045513971e-10  1.6151517964846601e-10  1.1146791910222954e-10  2.7798728279835912e-10  4.7022626307402152e-11  1.3726752810709978e-10  5.2008608806565609e-10  6.7151647620089441e-11  1.1890865656598074e-10  1.3390444559706680e-09  5.8242708676379780e-11  3.3400538896410663e-10  5.0946260404263123e-10  1.5799442727453054e-10  1.2858125249833430e-10  1.2590767997662314e-10  8.9874731161079950e-11  2.4722540306234822e-10  2.8558860408401378e-10  1.7718336756172774e-10  4.6609847921635103e-10  4.2231110821398832e-10  1.2213938139008623e-10  2.1088085954418117e-10  6.6788453283887858e-11  8.5060026112021817e-11  6.2880513004909083e-11  2.4041252886619765e-10  4.0114053905851988e-10  3.0755010027938022e-10  3.2393653151768232e-10  8.6309071880717484e-11  2.2655166617348922e-10  4.7770937237048135e-10  1.7052062124110085e-10  4.8383739209691558e-10  1.8483974037719892e-10  1.3763578331609583e-10  1.1194631623370391e-10  5.1307676027085504e-11  5.4555660374629168e-11  3.3797040943459143e-10  6.3142567767238223e-11  6.4381965161802737e-11  1.2907234774464726e-10  3.2202590241784563e-10  3.1946851988853142e-10  1.5736847887951673e-10  1.1771329249376720e-10  5.8776512006421962e-10  6.2449310973643356e-10  1.5905922168250088e-09  2.6687334152899680e-10  1.9842708905682051e-10  4.4145933251312944e-10  4.5485188491018675e-10  1.1613532083072108e-09  2.9519248514295759e-10  2.4749849295033049e-10  3.3402893938335533e-11  1.2993665968228567e-10  3.3632004638180250e-10  5.1138616692634752e-10  2.1294060142820904e-10  6.6292745641076257e-10  3.0623249499771169e-10  2.1674878558661620e-11  4.8304807666354128e-10  3.3541232987951372e-10  3.8896571125958599e-11  3.3400340460164538e-10  4.1388050923172490e-10  5.4426238260152386e-10  1.4571948638491846e-10  6.7152093586028542e-10  1.9633396318820039e-10  4.7740202385217884e-11  1.2796200597116495e-10  1.3321099826817810e-10  3.1774250785044689e-10  7.9415221125554019e-11  2.6393871383723902e-10  1.9687337411585787e-10  8.2112428975061976e-12  2.5116779672754223e-10  5.8130840096915502e-11  9.0960638430720010e-11  1.2437933086144471e-10  6.2977074848063746e-10  4.1087632103398531e-10  3.0281372607062856e-10  1.1780446772264362e-10  1.3204892026857885e-10  8.9314529919306982e-10  5.3656125633197044e-10  1.3484285195746595e-10  1.4192087631004898e-10  9.3450261782287026e-11  4.8748104764996807e-10  1.3912054091623225e-10  1.7549952226956212e-10  9.5333120367119028e-11  7.1150937368001797e-11  6.3628374650674780e-11  1.5109377228336302e-10  9.8925422384008823e-11  1.2883340254324528e-10  4.3195194039955977e-10  7.7685115064990039e-11  5.9373715261940129e-10  1.2601479330273692e-10  2.2424286347679267e-10  2.7943559855818455e-10  5.4661898589777567e-10  1.1698875533307437e-10  4.0784466577596660e-11  6.3341890925570906e-11  1.4246634707817489e-10  1.5982962861251812e-10  5.1683726290220210e-10  8.4691760524734121e-11  1.6443522162689041e-10  2.5328011348967871e-10  1.3748242214550755e-10  2.3652152419994765e-10  3.3458267551975550e-10  3.1107588308089620e-10  1.0510458926230712e-10  1.7547909412040351e-10  1.4900229305580279e-10  2.2826022783504995e-10  5.4076563666087515e-10  3.7337840431300870e-10  2.0180311947095749e-10  2.0499870121515057e-10  1.2621623360295766e-10  1.7289188038550402e-10  2.9935332790619778e-10  3.8105166332349362e-10  3.6177342219969531e-10  1.6606649720029531e-10  2.2004549538786191e-10  1.9607155342282209e-10  1.5434890720036184e-10  3.9936612872561087e-10  3.2041720282133417e-11  1.0566400351330727e-10  1.2645392336708035e-10  5.2499372956223076e-08  4.0648361789263142e-10  1.7712040012019085e-10  6.1309865177599386e-11  2.5613792871318763e-10  1.3815060054010579e-10  6.4766895286186136e-11  1.0591932419368711e-10  2.0235919391085681e-10  2.0707958401907483e-10  1.9692692177877968e-10  1.8954007398836790e-10  3.1115915702736503e-10  6.5970957753691040e-11  8.0548841727287806e-11  1.9156920014941192e-10  1.2204671946480471e-10  3.5096554777082478e-11  4.0397421837704536e-10  6.5016024716559673e-11  6.2114056050865282e-11  1.9393140476041026e-10  9.9822398471256710e-11  2.3821764989190327e-10  2.9164050703110230e-10  1.1341013152362123e-10  8.0089205879886226e-11  1.8848357968064017e-10  9.6893328219397388e-11  3.2381779654317114e-11  8.9963661253101453e-11  5.8743970069445224e-11  7.8673694484955415e-11  2.2429213980450959e-10  4.7281031551581983e-11  6.6031535797366016e-11  9.4842116280815345e-11  9.3926384606983879e-11  9.4329375815125315e-11  2.5213973883639299e-10  8.7995734630582928e-11  1.8490138710035537e-10  2.0145601925837633e-10  9.8375640647944523e-11  1.6066119539130354e-10  3.1546275622433663e-10  1.2472925122504271e-10  6.1320496225834740e-10  1.7112584358732633e-10  1.4995934376435716e-10  1.3795300752113209e-10  2.2803030660591884e-10  4.4169445561663743e-11  3.9898871019601919e-11  7.7113775761626763e-11  4.3145090803836332e-10  1.9911114723071457e-10  6.4701110848256426e-10  4.4125439904648074e-10  1.2163818931645243e-10  5.4645770314114898e-10  3.6486011254894289e-10  1.8903182002793912e-10  7.1594053667050520e-11  9.3883506819841127e-11  1.7463984365158120e-10  1.8743641145349878e-10  4.1760667616832276e-11  4.9576878507703699e-10  2.8185400710882167e-10  3.2439046614924499e-10  5.3002013460367903e-11  3.5107851814813732e-10  2.6717719858811296e-10  5.7714913464409850e-10  7.3256469033137448e-11  6.2208245961298952e-11  2.3910380334569205e-10  7.2918694259055133e-11  4.2896798500561202e-11  1.4812557229892667e-10  2.4511499580021738e-11  6