<?xml version="1.0"?>
<VTKFile type="UnstructuredGrid"  version="0.1"  >
<UnstructuredGrid>
<Piece  NumberOfPoints="4852" NumberOfCells="9430">
<Points>
<DataArray  type="Float64"  NumberOfComponents="3"  format="ascii">-1 0 0  -1 -1 0  0 -1 0  0 0 0  1 0 0  1 1 0  -1 1 0  0 1 0  -0.5 1 0  -1 0.5 0  -1 -0.5 0  -0.5 -1 0  0 -0.1608775713298009 0  1 0.5 0  0.5 1 0  0.1967448868031411 0 0  -0.3612559298703488 -0.1868826869796786 0  -0.3589258678672612 0.2385168905201015 0  0.1848644563584752 0.3622048819331949 0  -0.1958436385770391 0.5723540950175041 0  -0.5158128938297937 -0.5495991778821785 0  0.5024031594087796 0.2633280798526736 0  -0.07363748989039316 0.2212101687043183 0  0 -0.5061325913258391 0  -0.25 -1 0  -0.5743145092247292 0.5890218574346207 0  0.6692577691658758 0.6409356436494476 0  -0.1838799289060201 -0.5495116410384846 0  -0.560396919094117 0.02803695330838912 0  -1 0.25 0  -0.2293030595735662 0.02568795435224169 0  -0.668652042857786 0.3207639230990766 0  -1 -0.25 0  0.03984411851761704 0.6085449828447128 0  0.2077387650887989 0.1321747411910389 0  -0.1456982982494958 -0.233061317414864 0  0.3812922606768392 0.625424168409267 0  1 0.25 0  0.5355652144809806 0 0  -0.75 -1 0  -1 -0.75 0  -0.6585471937783811 -0.3329688648357696 0  0.25 1 0  -1 0.7499999999999999 0  0.02757118475249542 0 0  -0.25 1 0  -0.75 1 0  1 0.75 0  0.75 1 0  0 -0.02898318711980711 0  0.06017829523394517 0.1559058654370836 0  -0.08934927566619111 -0.03059478158826268 0  -0.7151997778027949 -0.1358532122179061 0  -0.3368831224728444 -0.3620593073374401 0  -0.3572814503422923 0.4541433806478332 0  -0.1043716311006187 0.7747595891495612 0  -0.3948865400698 0.7131738456604311 0  -0.06044826476103313 0.4203862637423441 0  -0.09320828922455364 0.08251114791582013 0  0.3727257790480458 0.3806206561362411 0  -0.7218914945236269 -0.7365645436669186 0  0.4198809265798932 0.09031692750828053 0  0.6968331944747269 0.193490006881548 0  -0.7546337106590765 -0.5361343477632192 0  -0.3959212646586828 -0.719211753723896 0  0.7290678767029695 0.4251183542867876 0  -0.7870174672100537 0.1013789798561488 0  0.203384838805241 0.7099277728545578 0  -0.2156707626447462 0.3080018997311182 0  -0.8055338601772529 0.5854557675212724 0  -0.72372058306619 0.7722610703131592 0  -0.05264153506654406 -0.3822382539148999 0  0.5905602693497429 0.8210862689615027 0  0.8235905495274845 0.8090294747594314 0  -0.1079669808367338 -0.7025519489755374 0  -0.5356332732733321 0.1728169235716915 0  -0.2237918064316451 0.1376726161576504 0  -0.384096645261239 0.08122155714655956 0  -0.3893928643275791 -0.05537461155742911 0  -0.5137210396541244 0.4093098468112454 0  0.375 1 0  1 0.125 0  -0.01543296765113616 0.08317881665184242 0  0.06576934024716259 0.411884647791963 0  -0.1871973104325327 -0.1331569929833273 0  -0.2511778389250904 0.7827617495540466 0  -0.625 0.9999999999999999 0  0.5447576377059897 0.4635752834674755 0  -0.5816111806132563 -0.8347033780603847 0  -0.2617209037896858 -0.7896672194274019 0  -0.331609933968716 -0.5219132871167602 0  0.8379386640304944 0.5999897209668656 0  -0.5576084459521286 0.797254472534387 0  0.125 1 0  -0.07442448919598375 -0.09989315128000342 0  -0.5152453121380993 -0.1492589938601865 0  -0.8750000000000001 -1 0  0.03197616244549909 0.04716408066302116 0  1 0.375 0  -0.875 1 0  0.05841749938202287 0.8033338085011528 0  -0.2060790039812745 -0.3886086009647163 0  -0.07851587730479487 0.5889255408559255 0  0.2464490915235731 0.5326343136051911 0  -0.8018396425795238 0.2367791456196965 0  -0.5103015505847399 -0.4020692489748919 0  -0.001081633604011467 0.2921710247290657 0  0.5195476916037932 0.6488194667609244 0  0.4055078740464221 0.8133504518982232 0  -0.8135276869437281 0.4330085841414981 0  -0.06789783123686795 -0.228780384696797 0  -0.7238260511814624 -0.01314862365556444 0  0.09716783064144958 0.05388336314818211 0  -0.4965803640107622 -0.2622569150249792 0  0.7269414842870411 0.08260628926168775 0  -0.8151889562408919 -0.418633319174171 0  0.349855848885878 0.156884825422351 0  -0.8033877610880152 -0.2565996841903899 0  0.2506607099958238 0.2647072638709915 0  -1 -0.875 0  -1 0.875 0  0.1915966264519136 0.04438421045342385 0  -0.2636763326296129 -0.24350570667398 0  -1 0.375 0  -0.1905479066301207 -0.04683860300274187 0  -0.6611808214583826 0.4791661040906371 0  0 -0.07736776745332727 0  0.08719969211005149 0.2777752877540009 0  -0.375 1 0  -0.2317125023063591 0.4440417137887181 0  -0.1362847907610372 0.166577440161277 0  0.1392910034680848 0.5703807110956548 0  0.1433841191241599 0.2054386736502496 0  -0.4947697035999628 0.2828773173120064 0  -0.05612678708990149 0.01715379320788134 0  0.8554255680006551 0.3738202904995227 0  -1 -0.125 0  0.2907725229941407 0.8427269184155832 0  -0.1220430346885331 0.3347084332836707 0  -0.125 -1 0  0 -0.7575037395175259 0  0.07821397079968176 0 0  -1 -0.375 0  -0.375 -1 0  -0.625 -1 0  0.7474787146812756 0 0  0.625 1 0  0 -0.2918843213980812 0  -1 0.625 0  -1 0.125 0  -1 -0.625 0  0.3284075310660084 0 0  0.004929205892015135 0 0  -0.125 1 0  0 -0.006571003003944568 0  1 0.625 0  1 0.875 0  0.875 1 0  -0.5716295812473027 -0.6853196772893281 0  -0.006429674747473339 0.1784481820817639 0  0.3764312368475776 0.2709786149704482 0  0.6620495538894904 0.2989854703099439 0  -0.8581555814002647 -0.6523526651647407 0  -0.8668801619022817 0.7907471880125233 0  0.4424514056448035 0.5125583377243199 0  -0.4053370215878453 0.8611498931367968 0  -0.7818186992692887 -0.8776630982759698 0  -0.8729639557032712 -0.7880021869375616 0  0.157542985096531 0.8488085870401254 0  -0.6743271361064938 0.1607778489728313 0  -0.5971728382124879 -0.06593286013653317 0  -0.8620787162368883 -0.06279860341288868 0  -0.3100626432842547 0.5778094529930391 0  -0.4382839887762165 0.5836515498855465 0  -0.3956461036055292 0.3472770277506146 0  -0.634504064296614 -0.2238220637435642 0  -0.2950636942974029 -0.09776879863595719 0  -0.6491937653474592 -0.5986858676016967 0  0.8634686673317473 0.2671475731603281 0  -0.03751396337749529 -0.03447920831554842 0  -0.0646736942465452 0.1302993941545599 0  -0.1445228538948853 0.4527214857849207 0  -0.1381748548122584 0.03645495615294787 0  0.5423598925889892 0.06481011652986883 0  0.5900572574618205 0.3671545445507117 0  0.6969777651487936 0.7795739468973257 0  -0.7971115193278585 0.8838448252785013 0  -0.6548890056421547 -0.4401951016075074 0  -0.1224045642633102 -0.4101962737888076 0  0.8751882134937425 0.49289054897465 0  0.08384839560058766 0.1013256117109824 0  -0.6700343906333269 0.8719755098588783 0  0.4676572826446276 0.3597996251302573 0  -0.03334837721330068 0.04345331660914559 0  -0.4233597283122688 -0.4542244975098375 0  -0.3798991103914171 -0.2823860891085683 0  0.3355416361841452 0.4949741060484326 0  -0.2156980007845205 0.2184255439564715 0  0.7132236416472043 0.5380122108911795 0  0.2751049276423561 0.3695882867122307 0  -0.3815413950635732 -0.85613978249658 0  0.1125917274107446 0.6950684230005278 0  -0.2938193924024424 -0.6232258491296193 0  -0.4519277061838098 -0.6310198251943361 0  0.3046708854261568 0.7024784361585305 0  -0.8809702125193418 -0.1774012540758496 0  -0.1847420433591444 0.8613627135247782 0  0.4654266777388124 0.1670503620287141 0  0.2857574069361603 0.04497990607316246 0  -0.1500534718217542 0.6720433339382943 0  -0.01324210734961103 0.7215773803133516 0  -0.05467898688954489 0.8809601018496362 0  0.004403784882599777 0.4901351435369825 0  -0.4112512773183144 0.1642036748264552 0  0.5569760316333084 0.1350716182003588 0  -0.4879838110209694 0.6929604421272505 0  -0.8578519781849505 0.3398956940208104 0  -0.09599478948449865 -0.5457633408935244 0  -0.028652446590816 -0.5579101219523458 0  -0.2261675278597776 -0.30299927033727 0  0.8708979465493037 0.1512628478556858 0  -0.1747452161645419 -0.6693992658272466 0  -0.8922978644742389 -0.5340432393011877 0  -0.3002537679470581 0.3565232912008119 0  -0.6866862144227389 0.5844972931591393 0  -0.9010899993063705 0.5367315193048852 0  -0.9015640378104535 0.6654272964754374 0  -0.6615928451960568 0.07721635567412609 0  -0.8665108865409935 0.03042187001925417 0  -0.8940700494605187 0.1712957373009948 0  -0.1447038170076605 0.2489509616907683 0  0.1689026451927319 0.4634120395969205 0  -0.04697605762237783 -0.1310287731906418 0  -0.7608446845481233 0.6776931565973546 0  -0.6128590136237713 0.7068501761002529 0  -0.2788224341249931 0.08567450909727023 0  -0.260597928230499 0.6624642340935494 0  -0.03291805449687694 -0.006178556360299147 0  -0.500990268056739 0.8811174458783517 0  -0.4926350515846555 0.5048245523651443 0  -0.3143500579704222 0.1555462843074421 0  0.001056582560687091 0.02870362512493577 0  0.7845172982341625 0.6888321889257438 0  -0.4757837305179773 -0.8297766210524745 0  0.2861587618989453 0.2012047834312642 0  -0.1490465086810216 -0.8660573304574795 0  -0.06536928876760462 -0.8314939907503596 0  0.4521248643820585 0.7142383093469699 0  -0.1238365958417389 -0.3011400335686396 0  -0.2889410561510338 -0.02886762967829756 0  -0.8952274996804379 -0.8981144661763727 0  -0.591001923585198 0.2487622263839177 0  -0.4992910914874603 0.09402083113329958 0  0.4974214360185969 0.8308419546905422 0  -0.0294516652993837 -0.264516396728579 0  -0.31601222573226 0.8802542548041105 0  -0.1630866368180665 0.09005362222398579 0  -0.492234571849089 -0.03559317741680462 0  -0.4129451772910685 0.01359342983775976 0  -0.3167956473072717 0.02985374142466175 0  -0.4075551618857893 -0.1274429067743514 0  0.8906074363380269 0.7012898503756478 0  0.7949815543959355 0.9123487517867349 0  0.5860278860271151 0.2118739533780872 0  -0.5726907779847095 -0.4816332572100898 0  0.6067771122881102 0.7128497868805448 0  0.681837097853265 0.8908663064532956 0  -0.05756087466567945 0.3251936331848676 0  -0.9038322144766829 0.9061426618743516 0  -0.1423693530604099 -0.07432685401698411 0  -0.1821910746183406 -0.1958664911887564 0  -0.2718766228598037 -0.1549512423904109 0  0.04016965375729706 0.2199636810440462 0  0.9029603515605167 0.8953243235
[...]
<PointData  Scalars="w"> 
<DataArray  type="Float64"  Name="w"  format="ascii">1.3588418358715285e-10  1.0042064538202756e-11  4.3964049777646334e-10  3.2306634716904832e-08  6.1639513507086343e-10  1.5526647856378453e-12  8.5028388430278710e-12  6.4510554436122941e-11  3.3416664694508080e-11  1.8999039308732087e-11  8.8081490107015369e-11  8.1320334679693672e-11  4.6932085079076362e-10  2.3139791464248694e-10  8.2787542836772766e-12  2.0605112768864197e-09  8.7561973943873076e-11  6.6575405519424623e-11  1.3025836133535924e-10  2.8494587031481919e-10  5.6966669809563915e-11  1.0291367988335368e-10  5.8022503603875561e-10  1.1038781133375740e-08  5.1183861638821317e-10  8.7434389432357350e-11  7.8992539130646808e-11  1.5611586734955122e-10  6.5928127024436127e-11  1.7091737268152991e-11  4.7070202024517265e-10  7.8693162485103397e-11  1.9467853314574444e-10  1.5276236874832034e-10  5.3800269330037815e-10  2.3723019125907564e-10  6.8577378514928794e-11  4.3040893061481999e-10  5.8321520049412078e-10  2.8182975782741954e-11  4.4719377719187392e-11  9.0066841475340371e-11  7.8066680811203404e-11  1.6249099122635457e-11  1.5011608302656892e-09  7.7852330311112692e-11  2.8802926091297374e-11  8.4848720090804871e-11  1.3620118804490556e-12  8.1773379451814897e-10  2.8157722504495951e-10  2.7557470028353374e-10  7.0377387580091208e-11  2.2978513350756561e-10  2.1530513736327537e-10  1.6087944655972432e-10  2.8534790997295962e-10  8.2464991803122140e-11  6.9690693038731615e-10  2.3230438614645538e-10  2.7033655090951034e-11  3.2688793842237831e-10  3.4577478100900404e-10  1.1753289837301310e-10  4.6295443258552992e-11  1.5709997994270843e-10  5.5718036525094343e-11  1.5378242117525050e-10  2.2204724511679842e-10  3.8743736531636203e-11  5.5876833646605921e-11  5.1374206209741095e-10  4.7961029301844378e-11  7.8905912186221925e-11  1.6303572402403528e-10  1.4409159869448238e-10  2.6068735175797267e-10  2.4410547715401900e-10  1.6212976215125545e-10  1.5884307930746838e-10  5.6623625572279071e-11  2.3983412530596869e-10  3.6886277696340052e-10  1.7827966715044872e-10  2.4097750866835740e-10  1.0371909604868175e-10  3.6908440464867177e-11  9.8897293461044001e-11  8.0961369859980217e-11  2.2224777924902029e-10  6.0807285349076808e-11  8.6802670425279845e-11  6.4288933063028852e-11  7.7931998970021792e-11  4.6026833278293095e-10  1.7661669207644290e-10  2.3196930415381966e-11  9.1626856172564711e-10  2.2456070961346448e-10  2.7925453877191018e-11  2.2844665536830345e-10  4.0101806279620240e-10  7.0777834586898852e-11  8.7136647103696143e-11  1.2603319765288214e-10  5.6172826927078376e-11  2.8230897427145397e-10  7.0654919528023906e-11  1.2214186274096645e-10  5.4309178718686571e-11  3.8140187222666816e-10  1.9533570112262703e-10  3.0779648521762860e-10  5.4858208359718788e-10  1.2109081418211166e-09  1.1986333140617510e-10  1.8663230884398367e-10  8.4669121773343427e-11  4.5261857027500604e-10  2.3810900115466386e-11  2.3714209812530987e-11  3.1289030070606057e-10  9.1195367959455711e-11  4.9050342756035679e-11  5.5375922992932356e-10  4.6439213225373334e-11  8.9411604886857780e-10  1.3001060057853915e-10  6.5785592775311814e-11  7.4942887384457258e-11  3.5715549092607823e-10  1.4249627715239990e-10  4.7628377066344070e-10  1.1258855680181407e-10  8.9385975773489495e-10  3.7751298941560729e-10  8.8412143483066108e-11  4.4727620818774266e-11  1.3587624718628631e-10  2.4594631447839830e-10  4.0355414476115902e-10  6.6559197820041771e-10  7.2094765786125646e-11  1.0252756106363903e-10  5.7712636160169086e-11  6.4614593339879306e-10  7.3887599320385928e-11  3.5720461210299460e-10  1.2077350541782983e-10  1.0056408710285815e-10  1.7440292714255344e-11  2.8326474154588035e-10  2.9230031755920406e-09  4.8657585259317805e-11  1.8727982738445803e-09  6.7561982117887187e-11  2.1453646769881083e-11  2.2513447507426949e-11  1.0230084016908679e-10  6.0149220501169588e-10  4.6532765897951628e-10  1.5092880814030074e-10  9.3680707042012149e-11  1.4081186759386861e-10  1.7709415583956967e-10  4.8938612821024387e-11  6.6821448137504796e-11  1.8121725900134710e-11  4.9432206380113161e-11  2.2716145965285774e-10  8.2130827720225679e-11  8.5469552057348409e-11  7.5944406165560958e-11  7.8012396493256017e-11  4.8727860311614164e-11  8.1100771619812387e-11  4.2918237239599980e-10  4.9378120421826287e-11  1.5195269862352533e-10  2.2831624746217324e-10  5.5262933728543781e-10  1.7348063583583643e-10  3.2076735276082841e-10  1.3786462315181842e-10  1.3184193107771332e-10  1.2898689740358447e-10  1.8971892002065606e-11  2.2894797019157149e-10  6.4600542050185088e-10  2.1776771438764955e-11  2.8922295830341804e-10  7.4511806424575541e-11  1.4212961886229542e-10  1.6143742016648823e-09  1.2010814399569874e-10  1.5879961056654981e-10  2.1471776282943033e-10  2.7088019468849954e-10  8.9926266893128721e-11  1.9392705369717173e-10  3.4806572348254394e-10  1.9436144640483911e-10  2.0445666670553469e-10  9.2005708539174267e-11  1.0394835002272117e-10  8.9398212125609946e-11  6.0134324562098971e-11  2.0179237689638012e-10  1.0180384443503817e-09  6.5026571648108920e-11  9.0763265558098290e-11  7.4486334492824176e-11  8.9571262489589282e-11  1.5642295503268686e-10  3.4758688288370609e-10  6.9617153035006186e-11  6.4864212921664437e-11  7.6486411824343765e-10  1.0450330842093688e-09  2.8353624469285291e-10  1.9355853896585514e-10  7.8835594416821815e-11  6.5582985901439413e-11  2.8620904890076133e-10  4.7766016483637752e-11  6.7287049491966681e-11  4.4189850587887209e-11  7.8842066691897950e-11  3.0983095463692755e-10  7.3071590237983623e-11  2.0469085961934482e-10  1.5526752543020951e-10  1.0857166948423660e-09  5.2471561107493223e-11  1.5932124103248469e-10  1.1648560617071350e-10  9.0608831521476502e-11  1.1855642146354415e-09  6.0707837890999666e-11  7.1692307831014938e-11  1.2055547195358549e-10  2.0354563139723680e-09  3.5307265689764009e-11  6.7748258095675369e-11  3.0785364220161772e-10  2.3511890515183034e-10  3.2856484793370071e-10  1.5679117924723591e-10  2.0786298398613646e-10  3.7797444854068606e-10  2.6545829984600907e-11  9.1437326601794682e-11  1.0971192583809431e-10  3.2994253926768156e-11  2.9670847446700424e-10  3.6681271620657369e-11  3.5717514623989140e-10  1.2434312076786377e-10  1.0043118129518930e-10  1.9191237762477038e-10  4.4616698304645761e-10  6.4864172580822768e-11  2.4307264605288084e-11  1.3474930661217344e-10  6.9879589131664261e-11  5.1402736788330202e-11  6.5047139815156076e-11  1.8055582961078694e-10  4.2819183190773228e-11  3.0245163460254909e-10  2.5902068435725539e-10  1.3735009228556635e-10  1.5996525262726253e-10  1.2530113758925631e-11  6.8893177806332649e-11  1.5528145877947895e-10  1.3252221874067585e-10  6.2852469091765031e-10  3.1497050603542128e-11  7.1993372508340934e-11  3.0314465397857165e-11  2.8356146259079770e-10  1.0884040780084330e-10  1.5131507779018255e-10  6.9134308543360860e-11  6.8059438382468987e-11  1.1049450643368215e-10  1.7096844219124801e-10  2.3090911102664423e-10  2.3910561604081998e-10  4.9519777024093620e-10  1.9945277444009905e-10  2.0988822862156228e-10  1.2554211382210411e-10  7.1988328243857943e-11  1.4927684895984228e-10  1.4754768295808690e-10  9.2818448749452342e-10  1.1150117406027491e-10  5.5028003377253781e-11  4.3403138645027361e-10  2.4099883222157609e-10  1.6152568072638462e-10  1.2436000638541683e-10  2.9222633973131564e-11  4.0997215152092292e-11  8.0817765977371093e-11  8.0639144925398710e-10  3.7108083013471882e-10  1.6368966321488873e-10  1.0847177366447015e-10  2.9846893292931579e-10  5.9550772530576402e-11  1.0218514970190935e-10  4.1202115650645990e-10  1.4733407379192567e-09  8.1722481282784870e-11  2.9446947503825695e-10  6.8646333055139371e-10  1.6679706908856304e-09  2.9649091390866290e-10  1.7894840597520235e-09  4.6493321554730779e-10  2.1326897263844284e-10  1.3046688562709782e-10  3.3768747575119982e-11  5.4209610396709425e-11  1.1693653915642798e-10  1.2664403989654007e-10  5.2168441673118893e-11  1.0607093429976065e-10  9.7576447757240952e-11  1.0468363891789587e-10  2.4609574905173038e-10  6.1198085155259594e-10  3.2375280993960584e-10  1.5446922222144784e-10  8.4795235173336062e-11  5.5446524712056694e-11  5.5764598074367106e-11  6.0457394808574010e-11  1.5833841442937226e-10  1.8317399954705384e-10  8.5720973737835673e-11  8.4039937482454964e-11  2.0176749694432957e-10  1.2013918489151020e-10  6.1270959442368026e-11  4.9126200268610160e-11  1.0717484808498350e-10  2.8963032708429422e-11  1.4781635178288331e-10  2.9524296759524887e-11  1.6015622391490551e-10  1.7595572197676329e-10  1.4362370693778730e-10  3.3586419325601617e-10  7.1081178877831903e-11  6.8898932467885789e-11  1.1588292616427638e-10  2.4521700884481811e-10  1.3698545410481558e-10  2.4356458651804774e-10  9.5499842312475392e-11  1.1308486825731338e-10  1.2058784193797350e-10  2.6009511715659233e-10  1.2691170055437673e-10  2.9118377442706164e-11  9.8781385332763863e-11  1.0037541807204015e-10  1.1982406251084709e-10  2.0602378031633867e-10  1.4655275496480542e-10  3.0277394399255996e-11  1.1100262050796256e-10  2.2081376931625776e-10  2.4894968120113038e-11  3.0250577419064479e-10  1.7288355643927174e-10  5.7221275531195318e-10  1.0485565106634735e-10  1.8708573469120753e-10  2.7660097565383164e-10  6.2525496129755403e-11  9.1946168201694151e-11  1.9213981516175499e-10  6.2752542877371293e-11  4.9716397849998563e-10  1.6977564722340621e-10  8.0974495771483165e-11  9.5253711828158182e-11  1.8383223200582919e-10  5.8421121085397610e-10  5.9526130680363568e-10  1.4976469475983993e-10  1.4189355036596017e-10  1.5926414210235050e-10  3.1230810467901925e-10  3.8567414712943980e-11  1.7836659761823447e-10  6.5600985308374462e-11  1.0694103726177825e-09  1.0012224896185887e-10  3.8637712508568941e-11  6.9376654309455109e-10  3.4160094081104164e-10  2.1851403439993453e-10  1.7412275458060447e-10  5.4076003532118007e-11  1.2877953615422551e-10  2.7539986620920397e-11  3.9064661237104786e-10  6.7468576283226544e-11  1.0734698266248825e-10  1.1270339099724723e-10  5.2480162255927471e-11  3.3319685287816334e-10  3.6959887352166776e-11  9.4675061239826222e-11  2.4591126914422340e-10  1.7049654315021303e-10  8.0356973730472082e-10  7.9479097309884859e-11  6.0139180793488397e-10  1.2659100448943125e-10  4.6902678894083478e-10  1.0908006174247817e-09  2.4848863799306496e-10  1.4792368982446513e-10  2.3997837507006823e-10  6.1010449021050996e-10  3.1313203846893250e-10  6.0795508362349108e-11  4.2309846888621128e-11  1.7825515847395709e-10  4.5005807885535282e-10  1.5128426633812764e-10  1.0407377190328203e-10  1.3445289656306541e-10  6.8138125242645646e-11  5.9395049653734346e-11  1.8096824273717134e-10  4.9074549767604364e-11  1.7707083541186952e-10  8.4919282170012966e-11  5.3740834422572056e-10  3.9905042354950200e-10  7.2779046523371816e-11  3.6560928958314751e-11  3.7338469500647128e-10  6.9971831020677205e-10  2.3879210866903388e-10  1.3026121860481067e-09  3.0663303972947094e-10  3.4911856534287572e-10  3.8653921829148536e-10  2.8692479966019871e-10  8.4275917493597652e-11  2.7604021494781096e-11  1.6559656181779620e-10  8.2791794503229757e-11  1.7650195432344924e-10  7.1263100172098908e-11  1.0124163185268951e-10  3.8155242757003964e-09  1.6406139855233992e-10  7.2115758139838139e-11  6.8389130821411504e-11  4.6049717180281178e-10  2.4096737888568872e-10  1.9114818460448567e-10  2.0296519522620393e-10  3.9171984651318383e-11  7.8531267439602361e-10  2.3216512480809421e-10  5.2364873847134740e-10  2.4071998489405570e-10  1.9665784228858083e-10  2.7374195381824997e-10  8.7728668707821963e-11  3.1322901576091355e-11  3.4003702556433848e-11  5.1953662601906109e-10  3.1054610306379134e-11  9.3942089901341230e-11  1.1653634216832523e-09  6.6074462628329031e-11  2.9550835546172059e-10  2.2908893140173427e-10  5.6889355658462295e-11  5.0060396002160313e-11  2.0266019633493671e-10  2.7181260953065106e-10  4.2395106147673410e-11  1.0287556070926277e-10  1.3548135787782183e-10  6.9676549259417789e-11  1.4645178376557535e-10  3.1359717616842814e-09  3.3908632498860154e-10  3.0647278389927885e-10  1.1406473704830370e-10  9.3445686803254053e-11  1.5222467686192864e-10  6.7046774000384293e-11  1.1747730286097869e-10  4.1249616492620148e-10  7.6878138836002398e-11  1.9407254828833389e-10  1.8397669805404492e-10  1.3937058474460812e-10  4.1630366629932042e-11  6.0648968324667128e-11  4.2874305616194517e-11  4.4632160110450352e-10  8.7911540734381682e-11  2.1668719883584764e-11  5.8728976232044026e-10  2.7228227014130820e-11  6.0347480972419762e-10  1.1558028943557815e-11  1.5189060942351358e-09  1.9025942869352317e-10  2.2770117200533790e-10  8.1834841743502311e-11  2.6673083679102406e-11  6.8858655303731791e-11  2.3830678326022919e-11  1.6924258950423223e-10  3.5973333125417047e-10  2.5283147961023882e-10  6.9991852437929457e-10  1.6736421872560741e-10  7.7672869976548917e-11  5.4422838690714592e-11  5.6286379081063089e-10  4.5369525143868616e-10  8.6789241033767050e-11  8.0757299357196285e-11  1.1925759741180984e-10  6.8755076286557547e-11  3.8954168493971893e-11  4.4305954939804637e-11  2.7771876067051169e-11  8.3689669544189934e-12  1.6194828213816058e-11  8.7867300176659511e-11  2.1497100094760144e-12  1.0467822733820603e-11  1.9535435642894320e-10  6.9264609759202479e-09  1.7353804532750356e-10  3.4692348620555280e-11  1.8826489764724852e-10  7.8391701277867409e-11  9.5969160863531309e-11  3.8560630624237067e-11  1.4884122268798996e-11  7.4640677766029447e-11  1.2994851956405606e-09  7.0664796470525569e-11  1.7809665610199829e-10  2.9465686786747400e-10  4.8021567565804895e-10  9.0159043677525273e-11  9.3044275840817669e-11  5.3266187707478463e-11  7.3517407728216470e-11  9.1727454213932914e-11  4.7263260089606668e-11  5.7062483510981109e-10  5.3743371359373678e-11  2.9876443910900177e-10  7.3702489389594388e-11  1.1633266895778417e-10  2.5374047277336647e-10  3.8762644683401272e-11  4.9745671264284320e-11  2.1294009350645235e-10  1.0139743292101519e-11  9.5605008131952168e-11  8.3302148569281374e-11  7.1239472409104089e-11  5.3944754363891148e-10  1.8495981670320962e-09  2.8653560068721816e-10  3.0659823219609621e-10  8.5874644313357564e-11  5.9604337089361778e-11  2.0578258335019382e-10  1.0019546162084521e-10  8.4375006247835742e-11  8.5265595264450265e-11  1.5634753880615836e-10  6.2506667216403574e-11  4.5786680902508591e-11  6.1965180502943354e-11  3.5431157702423310e-11  7.6313195699832314e-11  2.0471837344046489e-10  1.5737268228051926e-10  1.0721806010854977e-10  2.5402507899227549e-10  3.9378497460378642e-11  1.2341566961725197e-10  5.4661703618599486e-10  5.5317089703335315e-11  9.8748547755756633e-11  1.3078995157687432e-09  5.2230821979859935e-11  3.5923196231765513e-10  6.1981950554318139e-10  1.6658383466209753e-10  1.0914405862501361e-10  1.2244861897925851e-10  7.9362678259338318e-11  4.1970988203282890e-10  3.0243708228569836e-10  1.7540911551129148e-10  5.2468795570344056e-10  4.2327016415638681e-10  9.6827753134264989e-11  1.6380523771098328e-10  5.7718358321185480e-11  7.2102280378611022e-11  5.7770495357206328e-11  1.9701692068026660e-10  3.7862876409956359e-10  2.9581696796922291e-10  3.0498807074034266e-10  7.1705943970822330e-11  2.8353304205237794e-10  5.9237012066524389e-10  1.3804192814061054e-10  3.7145199703142612e-10  1.5524834387838357e-10  1.2469357674578651e-10  9.5553750285638392e-11  4.7391002260330109e-11  4.7105609840895898e-11  3.0058789135474152e-10  5.1188203157728295e-11  5.8570603527286698e-11  1.1279732449440062e-10  3.0519160125385418e-10  2.9784169958494243e-10  1.4117043269780339e-10  1.0907028079660246e-10  7.6740590501451009e-10  6.5835828400553400e-10  2.2707781732082173e-09  3.8687000524455450e-10  2.5442025743911826e-10  5.9659101893454929e-10  3.9428821980719466e-10  1.7050119268791621e-09  3.3748372853752832e-10  2.0663948032191606e-10  2.8546708528853977e-11  1.0305893831715011e-10  3.1429951005255573e-10  4.3873051698166368e-10  2.3947029387637008e-10  6.5174905647173813e-10  2.4805041175771791e-10  1.9210070147376850e-11  4.0794254091298766e-10  3.9145319985883792e-10  3.3773250519577048e-11  3.2443337669517259e-10  3.9348107684267696e-10  5.0862135502361372e-10  1.4188842007343149e-10  6.2069254670022872e-10  1.6858380114094852e-10  4.1342098010140645e-11  1.1794989331613931e-10  1.1471870133352570e-10  3.4079303049727521e-10  6.4833932796628986e-11  2.0931027818295285e-10  1.5452977043233222e-10  7.1138527895104132e-12  2.4319992967590262e-10  5.2158780081359466e-11  8.0826847698056545e-11  1.1499743417692398e-10  7.1816369092167155e-10  5.2418493715243532e-10  2.9178608733015317e-10  1.0966650156928913e-10  1.0595123389430040e-10  1.0682224260984140e-09  7.4049782356077760e-10  1.2122137761894566e-10  1.2860079659021471e-10  8.4890266794756388e-11  4.3406381137323341e-10  1.1029159932993133e-10  1.4045469488358174e-10  7.6455164236933363e-11  6.4119393312488168e-11  5.7742283153150266e-11  1.3004746238671074e-10  9.0077169717849115e-11  1.1137257978285240e-10  3.2023392866758344e-10  6.3012050263410191e-11  9.3422751203155875e-10  1.0293850471553369e-10  2.2528232299709334e-10  2.1120896681674849e-10  7.1124150429242939e-10  1.0060876443302298e-10  3.4523550482657414e-11  5.2602256356420599e-11  1.3727880932954937e-10  1.4612968771344982e-10  4.3957053522355799e-10  7.4665205180840555e-11  1.2375170885796599e-10  1.9831691574912273e-10  1.1925174754542173e-10  2.0000055322105113e-10  2.9161828931915033e-10  3.0731663629650597e-10  8.2817937493589563e-11  1.6320722424140149e-10  1.2688521590584027e-10  2.0796488117819786e-10  4.7583048436282566e-10  3.7029185795800507e-10  1.9788122034275521e-10  1.5389794526674042e-10  9.9679618537511537e-11  1.4874078587786300e-10  3.1585158068465239e-10  3.5564607088848713e-10  3.4007451643144587e-10  1.7081014940393820e-10  2.0919496306804988e-10  1.7288544801482816e-10  1.2193155848491405e-10  3.5628315502948447e-10  2.7201765693715775e-11  8.6624659918358381e-11  1.1652450744117507e-10  7.5425821428531295e-08  3.5189082220702949e-10  1.5020236235121191e-10  5.8260297554050807e-11  2.5464460867651259e-10  1.2226784554733688e-10  5.1696552485492690e-11  8.9531200026957113e-11  1.9709351199530503e-10  1.8347054694403531e-10  1.6645704110734246e-10  1.6012931143964631e-10  2.5935623458481598e-10  5.1598146446713304e-11  7.0321012494225357e-11  1.6171531602396145e-10  1.1158137792243717e-10  3.1232986025451452e-11  3.3955631241862184e-10  5.3890844554583865e-11  5.3122906906876534e-11  1.7145556578945801e-10  7.9896881827864529e-11  2.0995989975659646e-10  2.9413060321635851e-10  1.8404618893623509e-10  7.3714987909551297e-11  1.4656973880184871e-10  8.3550080882974002e-11  2.9702909201343358e-11  7.7744865387291512e-11  5.4885089056836658e-11  8.1828985757119144e-11  3.4191385130352849e-10  3.9658057550210091e-11  5.4616540229922129e-11  8.0707506111988306e-11  7.9586974479981106e-11  8.3447952870541046e-11  2.6357487328119464e-10  7.8492536196857026e-11  1.6208954405635396e-10  2.1478481033024277e-10  1.0521379988979123e-10  1.4924637964242198e-10  2.9480855644963993e-10  1.0048183567455282e-10  7.2702835165230445e-10  1.4104878950333810e-10  1.2734736604704657e-10  1.4771428377710602e-10  1.7662668673009324e-10  4.0016847543944849e-11  3.5358392639226143e-11  6.5628955117315700e-11  4.2649476512942866e-10  2.2102066390165818e-10  5.7236954693337886e-10  4.6749368617917965e-10  1.0717737252143649e-10  5.7754684480287132e-10  3.4712867927069443e-10  1.6371236813716916e-10  5.9635367314838481e-11  7.9275913887318022e-11  1.6860347186633010e-10  1.9115383159938257e-10  3.6398421919065332e-11  4.5150791866449887e-10  2.4785977876084458e-10  2.9135670667040312e-10  4.8054268435307946e-11  2.9871146983408363e-10  2.3170849860845952e-10  1.2388848245381963e-09  6.5443170138030663e-11  5.2391405546830934e-11  2.2582588850100576e-10  6.1925489576506152e-11  3.5735957234885576e-11  1.1837166960640513e-10  2.1631496515407077e-11  5