<?xml version="1.0"?>
<VTKFile type="UnstructuredGrid"  version="0.1"  >
<UnstructuredGrid>
<Piece  NumberOfPoints="4852" NumberOfCells="9430">
<Points>
<DataArray  type="Float64"  NumberOfComponents="3"  format="ascii">-0.9999999999999999 0 0  -1 -1 0  0 -1 0  0 0 0  1 0 0  1 1 0  -1 1 0  0 0.9999999999999999 0  -0.5 1 0  -1 0.5 0  -1 -0.5 0  -0.5 -1 0  0 -0.1608775713298009 0  0.9999999999999999 0.4999999999999999 0  0.5 1 0  0.1967448868031411 0 0  -0.3404455680436566 -0.1756316444101305 0  -0.3365982374759337 0.2239608194564518 0  0.1736536482146164 0.3457153983121513 0  -0.1848300472235318 0.5546421565574682 0  -0.503461519850033 -0.5372242076085663 0  0.4902889160203563 0.2566277915577916 0  -0.06450670433063999 0.2008306473234983 0  0 -0.5061325913258391 0  -0.25 -1 0  -0.5609070624566812 0.5770327301993884 0  0.6612904332161433 0.63332027751633 0  -0.1770335875036144 -0.5374242144758963 0  -0.5386368819823968 0.02529477402540914 0  -1 0.25 0  -0.2060322337129993 0.023777294560696 0  -0.6542624332567851 0.3089601845146307 0  -1 -0.25 0  0.03911157946415108 0.5913146834654741 0  0.1947864613759408 0.1286779203219192 0  -0.1364097044185272 -0.2196238194870214 0  0.3708531465465808 0.6139171997038396 0  1 0.25 0  0.5355652144809806 0 0  -0.75 -1 0  -1 -0.7499999999999999 0  -0.6447558592951063 -0.3229174179026381 0  0.25 0.9999999999999999 0  -1 0.75 0  0.02757118475249542 0 0  -0.25 1 0  -0.75 1 0  1 0.75 0  0.75 1 0  0 -0.02898318711980711 0  0.05389832666239341 0.1421286722638927 0  -0.0776837243734617 -0.0277250720236144 0  -0.7008803861615017 -0.1324067764806048 0  -0.3214715527142732 -0.3470257408928811 0  -0.3398761978950093 0.4369618823652287 0  -0.09982737667410416 0.7639895878584091 0  -0.3827895631058033 0.7023409599031756 0  -0.05488745499152669 0.3985541168775069 0  -0.07898379666952217 0.07191060203671271 0  0.358660862843671 0.3690045064116943 0  -0.7156462640215132 -0.7297159913333574 0  0.4116712354357001 0.08975383962267791 0  0.6898746233316709 0.1913469287714103 0  -0.7471539163567463 -0.526738181145578 0  -0.3873839076686652 -0.7104434969154029 0  0.7215121936652796 0.4180820377485812 0  -0.7758452654025255 0.09679514649472701 0  0.1965943055269842 0.6982609270523166 0  -0.1985899678819294 0.2881774653965447 0  -0.7986679284890651 0.5771043105184949 0  -0.7164018234349661 0.7661004992282632 0  -0.05317993021515602 -0.3731075815255698 0  0.5844736763727335 0.81618331665404 0  0.8201727123434025 0.8055811965001667 0  -0.1069701615649986 -0.69731285021042 0  -0.514238920149213 0.1623844551706471 0  -0.201746956635033 0.1254737306155992 0  -0.3589562591431066 0.07517364563361874 0  -0.3648797616193782 -0.05235839214272461 0  -0.4963032761875535 0.3946311535222067 0  0.375 1 0  1 0.125 0  -0.0120832868090106 0.07117700568228755 0  0.0619403883587504 0.3914541347862096 0  -0.1712762548976332 -0.1222297536860802 0  -0.2426098674606356 0.7734642184355069 0  -0.625 1 0  0.5331865303795356 0.4536505987342331 0  -0.5756550749242125 -0.8299538564268814 0  -0.2576809957254809 -0.7835581891497843 0  -0.3197035462607995 -0.5081492538187266 0  0.8339115890364447 0.5948549751456856 0  -0.5482967758007847 0.7905841472606562 0  0.125 1 0  -0.06744036816439687 -0.0933254938991646 0  -0.4942494987698657 -0.1432152851902865 0  -0.875 -1 0  0.02936085034747756 0.04162930063625726 0  1 0.375 0  -0.875 1 0  0.05730074308320209 0.7937196802583422 0  -0.1963809985283353 -0.3732695256993039 0  -0.07276278059876704 0.5707384280107051 0  0.2362422180106783 0.5174282965734442 0  -0.7921200166566219 0.2291219677953225 0  -0.4948279307456412 -0.3888790398898794 0  -0.0001009910151594889 0.2708673192852594 0  0.5096634914805859 0.6396587037973949 0  0.3986747766075513 0.8070145274417414 0  -0.8059724589203536 0.4240905794956945 0  -0.06451498917859362 -0.2203133696371183 0  -0.709387116570623 -0.01426151406528348 0  0.09030861290867166 0.05249888655654605 0  -0.4778524790555974 -0.2511563152642006 0  0.723813984901881 0.08275858719460918 0  -0.8083968951639353 -0.4108946010530314 0  0.3372600911968102 0.1533171956603196 0  -0.7943062130217796 -0.2507372405270211 0  0.2359945686575522 0.253989734386316 0  -1 -0.875 0  -1 0.875 0  0.184128596973289 0.04786086250023184 0  -0.2473555468468921 -0.2288819083545125 0  -1 0.3750000000000001 0  -0.1709585275729934 -0.04167454364343466 0  -0.6484945596275804 0.4670740339915371 0  0 -0.07736776745332727 0  0.08012775696099331 0.2596279798156167 0  -0.3749999999999999 1 0  -0.2166802668626944 0.424452229462584 0  -0.120104198870465 0.1500195458676025 0  0.1330748132244241 0.5537703358195522 0  0.131598682646298 0.1935813454025702 0  -0.4744704750527123 0.269167655600967 0  -0.04622086636177031 0.01393887558822469 0  0.851427241336815 0.3698728596345948 0  -1 -0.125 0  0.285469209984254 0.8366414873899904 0  -0.1107731771285725 0.3127821187619753 0  -0.125 -0.9999999999999999 0  0 -0.7575037395175259 0  0.07821397079968176 0 0  -1 -0.375 0  -0.375 -1 0  -0.625 -1 0  0.7474787146812756 0 0  0.625 0.9999999999999999 0  0 -0.2918843213980812 0  -1 0.625 0  -1 0.125 0  -1 -0.625 0  0.3284075310660084 0 0  0.004929205892015135 0 0  -0.125 1 0  0 -0.006571003003944568 0  1 0.625 0  1 0.875 0  0.875 1 0  -0.5622449449740533 -0.676177867620817 0  -0.004958591703493994 0.160111780493584 0  0.3620927872972138 0.2627002925485085 0  0.6528589986998461 0.2935191870667646 0  -0.8545012733445922 -0.646350119268439 0  -0.8632848772502465 0.7869024224600359 0  0.4302521184751918 0.500859844256074 0  -0.3982694633469109 0.8557273239335446 0  -0.7784965411371902 -0.8746881653897329 0  -0.8703061511157871 -0.7841625112942459 0  0.1540841765103448 0.8420401794144255 0  -0.6583290084328173 0.1524353210022419 0  -0.5773703580678182 -0.06419439572343774 0  -0.8544519740241522 -0.06261006702485311 0  -0.2956301280810339 0.5619344937697045 0  -0.4233305495821418 0.5696665628305942 0  -0.375796139362044 0.3307464325567298 0  -0.6180737803931258 -0.2163223130649678 0  -0.2726713403694612 -0.08995448199804762 0  -0.6396664285132978 -0.5883018736536034 0  0.8596964055956767 0.2658405058262464 0  -0.03282084205129378 -0.03289829197481317 0  -0.05492100366684603 0.114505039008661 0  -0.1336496171132158 0.4317735024816693 0  -0.1197840904988832 0.03240663737224098 0  0.537679718064586 0.064526005290342 0  0.5790660356468256 0.358859871501356 0  0.6911394286722019 0.7744552696570917 0  -0.7932383947935827 0.8810590768265217 0  -0.6429628712368961 -0.4290144844089895 0  -0.1176569088070126 -0.39663243105883 0  0.8722097012057182 0.4883747616427398 0  0.07565364474766764 0.09385947909208581 0  -0.6644037198044899 0.8680418616924954 0  0.4544119987291341 0.350210779213998 0  -0.02641140956429828 0.03581928273184517 0  -0.4088810963126197 -0.4400467077018748 0  -0.3616349660934642 -0.2686326710644433 0  0.323305571705557 0.4813748635320575 0  -0.1960275637290256 0.2013573502875505 0  0.7055311851933427 0.5304130993567928 0  0.2615156776457114 0.3557496615124222 0  -0.3764951405918016 -0.8517840288811136 0  0.1091028056540072 0.6817925984220262 0  -0.2849922664726675 -0.6117848107279995 0  -0.4410022469757586 -0.6199000210117963 0  0.2960423189851335 0.6920294168552664 0  -0.8748103211054705 -0.174770450163576 0  -0.1799125323213715 0.8548846631542011 0  0.4545392345536587 0.1631754736153366 0  0.2801496601847678 0.04666501324849306 0  -0.1421736364039206 0.6573148755524987 0  -0.0113330557407153 0.7084790227248499 0  -0.05329914407187613 0.8749539700684777 0  0.005315379025894481 0.469621679830205 0  -0.3875347736538307 0.1533171755147385 0  0.5490241094983147 0.1330614921210816 0  -0.4755456275241798 0.6822484435221441 0  -0.8514299545523615 0.3325971838849732 0  -0.09287688223569047 -0.5359617482854998 0  -0.03000591832577655 -0.5518257513801476 0  -0.2137088292352353 -0.2873861655035321 0  0.8684886194257777 0.1514484022188874 0  -0.1703981930582917 -0.6608977536676588 0  -0.8891229601081234 -0.5283059851576211 0  -0.2815781517991148 0.3381214691710993 0  -0.6760138138198263 0.5738826300942034 0  -0.897409964019946 0.5312688067678403 0  -0.8982996996132161 0.6607842440695368 0  -0.6442339203772172 0.07220522717721121 0  -0.859045274816066 0.02846159465107296 0  -0.8880902175212707 0.1677816433305961 0  -0.1302126510647168 0.2288525374348852 0  0.1601394233409181 0.4459395292218269 0  -0.04356922892043914 -0.1257181866718639 0  -0.7532159278749252 0.6698700598238536 0  -0.6021410564496851 0.6977981513724213 0  -0.2543480005351995 0.07848840043180721 0  -0.249083385860743 0.648668530999858 0  -0.02744418171656442 -0.006340555945969866 0  -0.4941733405447958 0.8769748614192842 0  -0.4766218411503276 0.4903183969783254 0  -0.2903830507260663 0.1439462857576372 0  0.002142568511377704 0.02362273973532152 0  0.7793909394857275 0.6832858835643701 0  -0.4696379686136233 -0.824669020945202 0  0.2716290752359701 0.194837535238741 0  -0.1490555353953346 -0.8633137109344816 0  -0.06607162281234748 -0.8298351275711578 0  0.4431766843688407 0.7056907425889956 0  -0.1178184211972843 -0.2879007668101774 0  -0.2648099856969782 -0.02614108568684036 0  -0.8937116408690013 -0.8964267973863602 0  -0.5727742314874384 0.2369400581948888 0  -0.476017934960331 0.08743340245140369 0  0.4910287584929416 0.8256068673936435 0  -0.02872201333473272 -0.2600454447788806 0  -0.3098846987729217 0.8753494914492966 0  -0.1430661209816863 0.08051765495736131 0  -0.4691449336593651 -0.03495614822949715 0  -0.3878489164195367 0.01206322801329158 0  -0.2916431432776625 0.02754286543913045 0  -0.3847492318882995 -0.1204029553376853 0  0.8881134845012184 0.6978325443976788 0  0.7925263044091182 0.9106083394615621 0  0.5764881026974444 0.2077050848345473 0  -0.5597594853593936 -0.4691976437759125 0  0.5986665903612721 0.7056610978541893 0  0.6780797685124623 0.8881839176322898 0  -0.05120062345042817 0.3030191919952832 0  -0.9021204617362057 0.9046125809956738 0  -0.1274761231681801 -0.06701638847529866 0  -0.1690149762859817 -0.1823688015604625 0  -0.25226
[...]
<PointData  Scalars="w"> 
<DataArray  type="Float64"  Name="w"  format="ascii">1.7494016371306866e-10  1.0379307085148025e-11  4.4524871166610334e-10  2.6254631314718656e-09  6.2404386353370129e-10  1.5685793438238154e-12  8.6849806103898848e-12  7.5004842334463646e-11  4.0583203818582210e-11  2.1097364919242558e-11  1.0823640534319180e-10  9.6191813025286923e-11  4.0289372073682924e-10  2.7854288282942475e-10  9.1680423143367072e-12  5.2606452687120335e-10  9.0765613986939130e-11  7.2202329407194973e-11  1.3086437330861097e-10  3.5572259828099098e-10  6.7076880853458846e-11  1.0438770078493357e-10  5.7161658699133147e-10  1.9011424543996860e-07  5.7668517469398682e-10  1.0845973778659433e-10  8.9265300115832098e-11  1.7018735760971279e-10  7.6519019159217799e-11  1.8807948039657464e-11  4.6672326727205988e-10  9.7902066320188984e-11  2.4364969613281006e-10  1.8117817085618090e-10  4.5354578335031352e-10  2.2496371385461800e-10  7.8309014093256005e-11  4.7911810229592190e-10  5.8644720367551461e-10  3.1326238140787733e-11  5.2887561496823751e-11  1.0823335570010705e-10  9.2874688416777165e-11  1.9804876598907178e-11  1.0459160033773481e-09  8.7914174268725509e-11  3.2088751775801406e-11  9.6858233010086107e-11  1.2375371848740440e-12  5.8910770599672044e-10  2.2040778379886765e-10  2.1342330626845331e-10  8.2613424413701186e-11  2.5175601006607418e-10  2.6010559688284228e-10  2.0532800058334107e-10  3.5741404440062683e-10  8.9061165612687000e-11  5.7711015343644879e-10  2.5200281116495109e-10  3.1412745356730763e-11  3.1421870158654195e-10  3.7937915665812127e-10  1.4411159849792585e-10  5.4170421493801832e-11  1.7856342403002362e-10  7.0747909660211637e-11  1.7869370198315872e-10  2.3271051049723203e-10  4.6199934399650820e-11  6.4911395544656515e-11  4.2565291084192165e-10  5.7105670743066657e-11  8.8561718947674383e-11  1.7142904239940667e-10  1.7025153561233094e-10  2.5594616876034498e-10  2.8995670496838697e-10  1.8260996435560283e-10  1.9537646279435838e-10  6.5369671171089721e-11  2.5244528521651771e-10  2.6269769652950472e-10  2.0065718871807770e-10  2.3367193494038258e-10  1.2518841970706588e-10  4.6782923652305551e-11  1.1027810817715014e-10  9.4774078922331587e-11  2.5183401272769768e-10  6.9234604053301733e-11  9.9877118927963961e-11  7.8552887435414532e-11  9.4733804194127506e-11  3.8895954199793895e-10  2.0944924888032724e-10  2.5619832723794711e-11  6.5303939133307830e-10  2.5735697884098877e-10  3.1719607514643033e-11  2.7770254256417850e-10  4.1117393439013508e-10  7.1072956449943259e-11  9.7331674730136480e-11  1.5709959433876181e-10  6.3716698760031080e-11  2.7322815204384224e-10  8.3697682380996494e-11  1.4737611530773779e-10  6.6273211522062190e-11  3.1173938399207474e-10  2.4729592711880557e-10  2.3172960262208744e-10  6.4327221854355348e-10  1.2090394926930503e-09  1.4958016483567494e-10  1.6489374050222961e-10  1.0258008514836455e-10  4.5887438919659091e-10  2.6064248774954621e-11  2.5747156175033073e-11  2.7870189355485968e-10  9.1197154369561399e-11  6.1352633863631452e-11  5.0075902408391116e-10  5.7600536660907150e-11  5.9710072978562361e-10  1.1836096028682036e-10  7.7092853171075531e-11  8.2700256816492846e-11  3.4105237647282492e-10  1.7325763847932759e-10  4.6416905583209767e-10  1.3529695265468707e-10  6.2046606762462007e-10  4.4696661414901186e-10  1.0937937250545759e-10  5.2326621030358649e-11  1.2977076418176801e-10  2.5656010698734174e-10  4.4363625579663872e-10  6.0321680821841226e-10  9.3414965901295472e-11  1.1932534443425474e-10  6.9186451689492401e-11  6.5580984131848024e-10  8.6795839614953347e-11  3.3787207589361431e-10  1.4804726341745639e-10  1.2430426761138332e-10  2.0155016915947073e-11  2.8300757272105764e-10  1.5803663585079642e-09  5.6998493142310058e-11  9.6627837289458008e-10  7.9615099729988455e-11  2.4733415755951704e-11  2.4429263518177234e-11  1.2201878515437966e-10  5.5813338377539550e-10  4.4452298386547541e-10  1.6125398096263711e-10  1.1561824876880616e-10  1.6765009191962235e-10  1.8803940919291456e-10  5.8843004815466316e-11  7.8261153557763515e-11  2.0515989808256066e-11  6.0326298066450981e-11  2.9523928417279941e-10  9.2277943397575041e-11  1.0607459077758993e-10  8.2902312452659142e-11  9.6553580516070143e-11  5.3393605931521449e-11  9.6063429133880188e-11  4.5508802250904683e-10  5.7168137620389161e-11  1.6424594308007674e-10  1.7158126134230397e-10  4.6143139208039467e-10  1.9803924373344508e-10  2.8153811050942068e-10  1.4289554722214536e-10  1.4527474530470175e-10  1.5119440127336290e-10  2.1150106981083129e-11  2.8795606649490965e-10  6.5103175587130432e-10  2.5744336566287423e-11  2.5102388003162337e-10  8.9548688805599505e-11  1.5825281880452766e-10  1.1101568225104554e-09  1.3701353349150751e-10  1.6331232941131093e-10  2.3429484730600336e-10  2.8673807116313751e-10  1.0649265320623710e-10  2.0481127097536264e-10  4.2023820664918603e-10  2.1929633990228584e-10  2.3972843007672110e-10  1.0998903036032256e-10  1.1304359341540013e-10  1.1308304390630861e-10  7.1580177497925291e-11  2.0849381479942835e-10  8.8331326428071340e-10  7.8089895481296625e-11  1.0861772860173541e-10  7.7894698902618011e-11  9.6963990914947406e-11  1.6220909322724685e-10  3.7787318792642581e-10  7.9418236647773421e-11  8.5521233713201367e-11  7.9938497487436049e-10  9.9386599947000446e-10  2.9172278533185804e-10  1.9980275703142566e-10  7.6321656675840747e-11  8.1298883268171917e-11  3.3600078986461378e-10  5.8966892085805713e-11  8.3802841917411092e-11  5.0402098804249548e-11  9.3497389059872223e-11  4.1492089943356086e-10  9.0770845954756656e-11  1.9680476614370154e-10  1.6627102229447017e-10  8.9913142167782513e-10  6.2131239201343316e-11  1.9934699152546340e-10  1.1506300174964633e-10  1.1245809772401726e-10  7.4695511558713748e-10  7.5595378182039069e-11  8.5471757174978106e-11  1.1783779673297539e-10  1.1173323486212856e-09  4.1334504568492836e-11  7.8051115131196838e-11  2.7892762481897985e-10  2.5092535593273948e-10  3.4612927899516252e-10  1.8353091572663063e-10  2.0485899343413738e-10  4.0337600037978961e-10  2.9624002813188491e-11  1.0564544049100570e-10  1.2810631173023846e-10  3.7832118131871694e-11  2.6688707899399402e-10  4.4119123729314628e-11  3.3227541098135244e-10  1.3592734665352182e-10  1.1029914637886655e-10  1.9119893926859910e-10  5.0217750316556897e-10  7.3536992975171904e-11  2.7157596758521479e-11  1.4507526140354487e-10  8.2180875946477106e-11  5.9856535172788192e-11  7.6901313876508536e-11  1.7890428018672006e-10  4.9588880096599069e-11  2.6281831001509082e-10  2.5382600628026526e-10  1.2858769903245070e-10  1.2876964363547351e-10  1.3816391147300615e-11  7.1497729823645307e-11  1.4667144179498604e-10  1.6889235922593585e-10  4.9703921279579827e-10  3.6957544177030285e-11  8.2552380779512655e-11  3.3636267616230172e-11  2.3791608295251031e-10  1.2598069153757458e-10  1.8544171267103242e-10  7.5346296830036128e-11  8.8306060213132601e-11  1.2073396754374092e-10  2.0302752422250938e-10  2.2435020006726283e-10  2.6165001916029945e-10  4.3652218048365276e-10  2.1364967161273384e-10  2.1003515025877985e-10  1.4567372088603002e-10  7.9864263896389956e-11  1.7074468435659398e-10  1.6526290174143483e-10  6.2562118368071626e-10  1.2979750794182841e-10  6.2711996999930974e-11  4.0618802157167117e-10  1.8994174909555739e-10  2.0910607176720506e-10  1.2641117041508052e-10  3.2957284211900800e-11  4.4993772941612957e-11  9.9144767437378080e-11  6.7790665575647019e-10  2.9317854735302573e-10  1.8090546850703940e-10  1.3655804601115124e-10  3.3533742470124295e-10  6.7352237899010829e-11  1.0943588709561755e-10  3.5223314613496390e-10  2.8230928272220318e-09  9.9346073189559384e-11  2.8291412403864560e-10  6.1424354112121736e-10  1.2238883267846596e-09  1.9847349316859694e-10  1.5218447231429142e-09  4.1684633307242352e-10  2.2619841793085283e-10  1.1560787376801111e-10  4.2051143153556129e-11  6.6126262327160449e-11  1.2642851683562529e-10  1.5713341759865874e-10  6.3968188331567388e-11  9.8970488408592422e-11  1.0706792299542120e-10  1.2777882549440876e-10  1.9234798182844108e-10  4.9580334446587872e-10  3.1854549418687866e-10  1.6640835896770642e-10  9.6397076174842061e-11  6.2011091219682243e-11  5.9477964623880180e-11  7.0858076900132697e-11  1.8227830829451300e-10  2.2787382182340739e-10  1.0643031103924056e-10  1.0609875344213567e-10  2.3949235021205880e-10  1.3718395371773251e-10  7.0222533727614084e-11  5.9596369554337554e-11  1.0537387308199079e-10  3.4399950838515225e-11  1.8736723951740510e-10  3.3147254993098479e-11  1.6089389272856016e-10  1.7975970144582609e-10  1.5147568017997048e-10  4.0022149053647218e-10  7.9538982329375692e-11  8.3369095648851943e-11  1.4516470689478206e-10  3.0875187262034822e-10  1.4323421865113060e-10  2.6372319223616040e-10  1.1106097153162270e-10  1.3594568774123094e-10  1.5797586488184823e-10  2.7827628646988143e-10  1.2780206234570111e-10  3.3873659282047994e-11  1.1790909841259556e-10  1.1240781073059277e-10  1.4822995207557922e-10  2.5469886607079685e-10  1.7178374756923013e-10  3.5217716832125242e-11  1.2949807842760725e-10  2.3146910800998216e-10  2.9387041396796277e-11  3.2960534212490052e-10  1.6353694450999738e-10  3.8944820562878217e-10  1.1253304528317979e-10  2.3772262379594260e-10  3.2518633286610522e-10  7.5888107841085320e-11  1.0608866622440187e-10  2.1902272096520087e-10  7.4256807299112654e-11  4.8193932558993744e-10  1.5963768882175838e-10  9.8482712928761100e-11  1.0880453201170475e-10  2.1077335218619475e-10  5.3946446427888674e-10  4.7688485483841464e-10  1.8042518366952152e-10  1.7216018165099256e-10  2.0846721922260023e-10  4.0156114077922463e-10  4.5686136719839354e-11  2.2607292564054453e-10  8.2192473555674166e-11  1.2449348564942987e-09  1.1827494257623404e-10  4.6079035668268841e-11  5.4815526555932598e-10  3.3068582500370973e-10  2.4700640669607431e-10  2.1086540157417633e-10  6.4383299977416761e-11  1.5374857552406149e-10  3.3583796051754671e-11  4.3756064546780684e-10  8.2522181281358017e-11  1.3815220843302501e-10  1.2741924507769863e-10  6.6180211327204678e-11  3.4864215562263532e-10  4.3548555576178091e-11  1.1860899841989386e-10  2.4347640930131652e-10  1.7849123882386085e-10  7.1044171848355221e-10  9.3148970287694072e-11  5.7380291683232115e-10  1.4885154015734859e-10  3.5282495150792974e-10  5.4885416937637529e-10  2.4341686465779731e-10  1.5500255643616873e-10  2.7250847379583312e-10  4.7921575662980517e-10  3.4410411577907278e-10  7.5828009858877559e-11  4.9591690763297370e-11  1.6320441769870749e-10  3.5645803893657359e-10  1.8688058159605978e-10  1.2744985285158942e-10  1.7232149369425722e-10  8.1717907133139428e-11  7.1614150099069900e-11  1.9946018450077711e-10  5.8187804383186695e-11  2.0733959991615788e-10  9.0736083593695943e-11  4.7779970894313376e-10  4.9679061329365652e-10  8.2145660384111396e-11  4.1921331370353196e-11  3.9571594490186958e-10  6.4708391822142353e-10  2.5831709009387182e-10  9.8365567653900361e-10  2.8711910026446645e-10  3.1560457648103099e-10  2.7266366871258124e-10  2.6602810257677630e-10  9.7742854342532231e-11  3.1519590878384999e-11  1.9385054858827600e-10  1.0606523560221782e-10  2.1550456774476043e-10  7.5450481954023572e-11  1.2384396938016450e-10  2.0483663203155286e-09  1.7700770544496070e-10  8.1382738859300732e-11  8.2704033820839399e-11  4.0025330104537727e-10  2.4227236346973124e-10  1.8935272034677189e-10  2.0793981446678230e-10  4.4806204858030188e-11  7.5291003327492072e-10  2.4126934095275220e-10  5.3428152618927397e-10  2.4837410250633048e-10  2.4286359840999719e-10  3.1331703158861672e-10  9.4720524483745694e-11  3.3195836991934840e-11  3.6295655950666586e-11  3.6767030810645905e-10  3.6206430368812659e-11  1.1725875708133154e-10  1.0179491941612459e-09  7.5356893512566391e-11  3.5294936604382684e-10  2.6382151344469908e-10  6.2224385513483039e-11  6.0222593169825896e-11  1.7987609036425434e-10  2.4428487423776388e-10  4.8816141985705409e-11  1.1324938476524646e-10  1.6162103698775553e-10  7.5928168130173948e-11  1.7026394976237402e-10  2.1228624696661184e-09  3.5802771857904488e-10  3.1956742818046212e-10  1.0700302925683945e-10  1.0829933995116232e-10  1.8905859880289164e-10  8.1133396589869375e-11  1.3441398000890894e-10  4.9804872916762126e-10  8.6945525485552011e-11  2.4274594733457195e-10  2.1592270484388850e-10  1.3919657636746458e-10  5.1682157080245315e-11  7.8465258650042680e-11  5.6048791638373390e-11  3.8174441987337076e-10  1.0645363435061527e-10  2.2138143903838427e-11  5.7002234252025052e-10  3.0932368935129983e-11  6.2077390886692537e-10  1.1738788232090349e-11  5.0383233307686718e-10  1.7374053402255602e-10  2.4758642304927632e-10  1.0513221391634114e-10  2.8860461153555514e-11  8.5600123731675548e-11  2.8037579558959508e-11  2.0772588121340692e-10  3.7246288517825872e-10  2.7189202836450033e-10  3.3055989247582645e-10  1.3624817957393509e-10  9.4382737087171225e-11  6.3745674626384429e-11  3.6206782961442565e-10  5.0414571769264102e-10  1.0610001980995905e-10  1.0100266933735580e-10  1.4705940888271755e-10  7.6753138859640287e-11  4.5685392732526750e-11  5.5064045803898597e-11  3.2271822870881211e-11  8.8901052850276065e-12  1.7904672137152400e-11  9.9440371013536380e-11  2.2563895010348865e-12  1.1092982846678702e-11  1.8631528045981037e-10  3.4727578264753921e-09  2.2487837448397615e-10  4.2796029237882144e-11  2.2024999399554708e-10  9.3213154661319105e-11  1.1247179299147701e-10  4.4091244264350717e-11  1.7176039010755219e-11  8.8377047625455486e-11  7.3214156352210738e-10  8.0108065267109554e-11  1.8383675799561691e-10  3.2475586151735694e-10  4.8457405200080934e-10  9.6579914262962662e-11  1.0223837321313895e-10  5.8648168360780952e-11  7.6963468788263248e-11  1.1268032137585196e-10  5.7671776186583755e-11  6.0987880191411237e-10  5.9223987171350966e-11  2.7673151797775473e-10  8.8249511601898504e-11  1.2825857411289143e-10  3.1245588720685113e-10  4.1703478256545052e-11  6.3429431742909657e-11  2.8707970385982059e-10  1.1984552023540057e-11  1.1348519025984423e-10  8.8616184982791569e-11  7.7010615784281126e-11  5.6143519868100395e-10  1.6097164821479671e-09  2.9212901475902725e-10  2.8931076341296838e-10  9.0883272852941113e-11  6.9724520787034996e-11  2.5443270912783441e-10  1.1786472751344190e-10  1.0031994613356165e-10  1.0483756881958613e-10  1.9874879987626574e-10  7.4168793590144003e-11  5.2981959551628812e-11  7.0971548077114498e-11  3.9947474807656879e-11  8.6940411373199371e-11  1.9095007582328084e-10  1.6180882505160495e-10  1.1156060028938213e-10  2.7520097935433617e-10  4.7371375921790383e-11  1.3662934263736558e-10  5.2113017353545128e-10  6.6955228476404146e-11  1.1785369529401145e-10  1.3451043124095833e-09  5.8392652003079630e-11  3.3567473644944681e-10  5.0886177698714238e-10  1.5751106461947380e-10  1.2872715338942142e-10  1.2581624435548833e-10  9.0512260010045855e-11  2.4930672317071115e-10  2.8534062489872617e-10  1.7767992666472469e-10  4.6637558552876153e-10  4.2301836338380671e-10  1.2178293046878266e-10  2.1090835540032552e-10  6.7001852183702814e-11  8.5052681392516584e-11  6.2788680337516119e-11  2.3935881370526287e-10  4.0112276179521555e-10  3.0785642558179341e-10  3.2346806728600765e-10  8.6058770097218963e-11  2.2673650112271002e-10  4.7704872043054028e-10  1.7212768451452566e-10  4.8055993916363146e-10  1.8362692100764216e-10  1.3822249962934146e-10  1.1173569606230345e-10  5.1444392111482512e-11  5.4767560012476425e-11  3.3048902452921756e-10  6.2951698048489933e-11  6.4826196892663137e-11  1.2970733327058969e-10  3.2047009430481305e-10  3.1938116436818829e-10  1.5731532663992991e-10  1.1782756165951284e-10  5.9009284522878837e-10  6.2524053740604673e-10  1.5968795819829049e-09  2.6799541218153065e-10  1.9915908796127751e-10  4.4270008795395420e-10  4.5464969021804423e-10  1.1676366627755056e-09  2.9595172601902668e-10  2.4803533532385057e-10  3.3201906891332386e-11  1.2946064707636366e-10  3.2415229733412683e-10  4.9071812723856804e-10  2.1289343305781029e-10  6.6021957727737121e-10  3.0605389819373160e-10  2.1623634804660953e-11  4.8152645110538006e-10  3.3405423220844312e-10  3.8804375141730984e-11  3.3293750606287274e-10  4.1422330149347445e-10  5.4191160268484963e-10  1.4520792773866511e-10  6.6916412284931889e-10  1.9501750625564703e-10  4.7448821516602145e-11  1.2722452808303361e-10  1.3248613237600378e-10  3.1629946960262652e-10  7.9347612706617120e-11  2.6458533913334161e-10  1.9575416627454958e-10  8.1985828776158472e-12  2.5414294152864976e-10  5.8322189732957815e-11  9.0541952814755462e-11  1.2449962552775761e-10  6.2983883100097160e-10  4.1157280339287884e-10  3.0341606756516858e-10  1.1729954354845523e-10  1.3241280387200652e-10  8.9655394225017936e-10  5.3942379395537246e-10  1.3488191000437026e-10  1.4214283769885956e-10  9.3346049372926127e-11  4.8714333812322462e-10  1.3868603875588942e-10  1.7472363139789523e-10  9.5251064992696817e-11  7.0899698059147035e-11  6.3614977929709945e-11  1.5030072193035132e-10  9.8238313169580081e-11  1.2963462711140441e-10  4.3559845371571987e-10  7.6951643797379907e-11  5.9490993901693214e-10  1.2751441461317083e-10  2.2337259015748313e-10  2.8101511903218442e-10  5.4873505040545962e-10  1.1623335593734685e-10  4.1159969703424872e-11  6.3139535761532752e-11  1.4189362230957896e-10  1.5911049190050525e-10  5.1693967884339853e-10  8.4745049661835140e-11  1.6252380051790672e-10  2.5191871993458204e-10  1.3734630003453862e-10  2.3617386702064985e-10  3.3167897088058365e-10  3.1081699831517562e-10  1.0491963097522107e-10  1.7511565255952540e-10  1.4897809955215961e-10  2.2762326007429621e-10  4.9763160698594876e-10  3.7436579047617968e-10  2.0219711063862992e-10  2.0607547798027083e-10  1.2531408079147718e-10  1.7310130233721971e-10  2.9978985880312864e-10  3.8158678226469039e-10  3.6223306381863378e-10  1.6536494451424198e-10  2.1956134561482175e-10  1.9442341771878897e-10  1.5448307512479099e-10  3.9970615774487974e-10  3.1815394890298167e-11  1.0557788129299594e-10  1.2663924661987584e-10  5.1936580626976645e-07  4.0648917630742886e-10  1.7728346296386187e-10  6.1155628972935958e-11  2.5622025906742938e-10  1.3844624019588854e-10  6.4523977937037645e-11  1.0566541195855776e-10  2.0284763531206894e-10  2.0593837352138360e-10  1.9472780236770845e-10  1.8946179002509981e-10  3.0873778466064974e-10  6.5483624043172974e-11  8.0343879560401695e-11  1.9115248727716599e-10  1.2223189962690999e-10  3.5573733440023893e-11  4.0185786858970345e-10  6.4790164742152088e-11  6.2249798258854545e-11  1.9367455948793091e-10  9.9153056830446058e-11  2.3793210713898850e-10  2.9256010723311176e-10  1.2386219104711285e-10  7.8109287017185735e-11  1.8763016697675726e-10  9.6556923989344837e-11  3.2896751080355507e-11  9.1044918815276952e-11  5.8454495335064182e-11  7.8656663321025987e-11  2.2528492070625368e-10  4.7479170452754451e-11  6.6606614087894881e-11  9.4856765003736177e-11  9.3924262627492843e-11  9.3901261507431211e-11  2.5098732412028236e-10  8.7827960780452993e-11  1.8407768949912518e-10  2.0091815733754297e-10  9.8482566273006929e-11  1.6101723976406688e-10  3.1557986901386784e-10  1.2435596967277015e-10  6.1509689894959314e-10  1.7093275277174781e-10  1.4923766372920031e-10  1.3819926615960515e-10  2.2881217786814318e-10  4.4351913872845215e-11  4.0192088931407278e-11  7.7094776835448586e-11  4.3379979489264887e-10  1.9951151387563138e-10  6.3644266486953367e-10  4.4100868372208856e-10  1.2132864337704648e-10  5.4542946535704160e-10  3.6520127458790708e-10  1.8860384352071281e-10  7.0905636257818127e-11  9.3862250776125428e-11  1.7420911031624806e-10  1.8726449153076791e-10  4.1778180646858748e-11  4.8006430503146072e-10  2.7756175575380254e-10  2.9814334720303217e-10  5.3889074583952938e-11  3.5044461767565545e-10  2.6627229444616726e-10  5.8293239921430964e-10  7.3486719988420935e-11  6.1822031774992717e-11  2.3867692946337218e-10  7.2872689971492827e-11  4.2746679240040948e-11  1.4815825826322399e-10  2.4408862587834902e-11  6