<?xml version="1.0"?>
<VTKFile type="UnstructuredGrid"  version="0.1"  >
<UnstructuredGrid>
<Piece  NumberOfPoints="4852" NumberOfCells="9430">
<Points>
<DataArray  type="Float64"  NumberOfComponents="3"  format="ascii">-1 0 0  -1 -1 0  0 -1 0  0 0 0  1 0 0  1 1 0  -0.9999999999999999 0.9999999999999999 0  0 1 0  -0.5 1 0  -1 0.5 0  -1 -0.5 0  -0.5 -1 0  0 -0.1608775713298009 0  0.9999999999999999 0.4999999999999999 0  0.5 1 0  0.1967448868031411 0 0  -0.3419410627430339 -0.1761570357658192 0  -0.338676145792818 0.2255286853742726 0  0.1736852334999018 0.3479240058354224 0  -0.1863423191968561 0.5564580404540328 0  -0.5040831343339653 -0.5383826739573974 0  0.4908712615525359 0.2584228131376361 0  -0.06568849057194696 0.2023643796132059 0  0 -0.5061325913258391 0  -0.25 -1 0  -0.5624056342969906 0.5783263596288614 0  0.6619126395858278 0.6346247205302843 0  -0.1764237459183944 -0.5386352848663652 0  -0.5405176876760236 0.02580742930862026 0  -1 0.25 0  -0.2075829976330102 0.02451534107442029 0  -0.6557339024691258 0.3102304411791199 0  -1 -0.25 0  0.0385451669491573 0.5932474948124473 0  0.1948472308721851 0.1301141911526504 0  -0.1369902349625754 -0.2202513959745766 0  0.371409355006848 0.6156950595329539 0  1 0.25 0  0.5355652144809806 0 0  -0.75 -1 0  -1 -0.75 0  -0.645708991533138 -0.323849616973642 0  0.25 1 0  -1 0.7500000000000001 0  0.02757118475249542 0 0  -0.25 1 0  -0.75 1 0  1 0.75 0  0.75 1 0  0 -0.02898318711980711 0  0.05320565965268589 0.1433733334813953 0  -0.07829539357617347 -0.02719385257174533 0  -0.7020179104673423 -0.1326956478536088 0  -0.3221882119698506 -0.3482255304013835 0  -0.3418152542132231 0.4387626849748077 0  -0.1006713382858069 0.7651816847316655 0  -0.3842390398293887 0.703502963329829 0  -0.05606095213097879 0.4006901168262642 0  -0.07968447431118758 0.07261333076450124 0  0.3592449636433059 0.3711688445827422 0  -0.7160331446204784 -0.7303367017950493 0  0.4120861737937775 0.09062743209269222 0  0.6902073192679695 0.1922863648382659 0  -0.747588182757844 -0.5276172640398265 0  -0.3876019991591846 -0.7112633472284611 0  0.7218960365520994 0.4195704214030513 0  -0.7768666291696099 0.0972873004832782 0  0.1967697380460308 0.6997942643253917 0  -0.2003888749739183 0.2900404748935541 0  -0.7994282413858609 0.5779751733113933 0  -0.7172015130332952 0.7667522656891486 0  -0.05290666946746263 -0.3738682817024832 0  0.5850131050100755 0.8169481739658188 0  0.8205099712726099 0.8060220294245855 0  -0.1061893993083447 -0.6977537884951996 0  -0.5162337460525757 0.1636010493370961 0  -0.2034179561033708 0.1266871726926239 0  -0.3610257029603869 0.07609995394182188 0  -0.3667741383839132 -0.0521382519860303 0  -0.4981420472254799 0.3962249193238074 0  0.375 1 0  1 0.125 0  -0.01279063152817813 0.07143171041124888 0  0.06141223146007939 0.3936612775462055 0  -0.1724452775811512 -0.1223060654549309 0  -0.2437446372864314 0.7744562780951408 0  -0.625 1 0  0.5338518457900877 0.4556028931931412 0  -0.5760050577636646 -0.8303936459524204 0  -0.2574986897389857 -0.7840571817916934 0  -0.3198831459688989 -0.5094283758803494 0  0.8341885208419334 0.5957089683419065 0  -0.5493630112962545 0.7913105306281351 0  0.125 1 0  -0.06814135734591159 -0.09318737049223372 0  -0.4958500942662343 -0.1435214909308886 0  -0.8749999999999999 -1 0  0.02865435692685252 0.041960920474018 0  1 0.375 0  -0.8750000000000001 1 0  0.05702682567421951 0.7948607468804929 0  -0.1962678544106113 -0.3745792559596464 0  -0.07387512720918175 0.5726355874664689 0  0.2365089383589822 0.5195157696313757 0  -0.7930925381332408 0.2299229374776646 0  -0.495733205358609 -0.3900613158821861 0  -0.001022295521786947 0.2727901879853809 0  0.5103747854797317 0.6411893036691696 0  0.3991373612491844 0.8079914836613004 0  -0.8067903944742887 0.4250133887303209 0  -0.06475907823592805 -0.220690616008809 0  -0.7106358509410273 -0.01406991085067905 0  0.08997013767656109 0.05331726676563122 0  -0.4791422071780721 -0.251999384188947 0  0.7239289803243408 0.08311721923464868 0  -0.8088242125806969 -0.4116376688044229 0  0.3377213343422692 0.1548030493276518 0  -0.7949570358742235 -0.2513089076289493 0  0.2362720348456823 0.2560041484573765 0  -1 -0.875 0  -1 0.875 0  0.1841191158542372 0.04865640276806141 0  -0.2483722767338085 -0.2296619789796494 0  -1 0.3749999999999999 0  -0.1722422862490288 -0.04125254573467765 0  -0.6498762141775917 0.468375301877369 0  0 -0.07736776745332727 0  0.07966031430513158 0.261577072394669 0  -0.375 1 0  -0.2184608478961116 0.4264166725883099 0  -0.1214254998541014 0.1512780458855516 0  0.1329672477734354 0.555819714910925 0  0.1313727452377266 0.1953301033934127 0  -0.4764793404337007 0.2706897972114894 0  -0.04632390609897605 0.01432657613607466 0  0.8515666373922444 0.3707322252644514 0  -1 -0.125 0  0.2857443401403792 0.8375064580247489 0  -0.1122435575803284 0.3147677678981403 0  -0.125 -0.9999999999999999 0  0 -0.7575037395175258 0  0.07821397079968176 0 0  -1 -0.375 0  -0.3749999999999999 -1 0  -0.625 -1 0  0.7474787146812756 0 0  0.625 0.9999999999999999 0  0 -0.2918843213980812 0  -1 0.625 0  -1 0.125 0  -1 -0.625 0  0.3284075310660084 0 0  0.004929205892015135 0 0  -0.125 1 0  0 -0.006571003003944568 0  1 0.625 0  1 0.875 0  0.8750000000000001 1 0  -0.5627674631991144 -0.6770354584029112 0  -0.005876417486553306 0.1613470766179278 0  0.3626508849082622 0.2646724145270039 0  0.6533258888753672 0.2949955717285466 0  -0.854731605422174 -0.6468686223078952 0  -0.8636489380004011 0.7872760427674147 0  0.4309160926376482 0.5028728952789052 0  -0.3991363180508689 0.856285535664437 0  -0.7787078178883222 -0.8749542725814486 0  -0.8704835558402412 -0.7844721280476115 0  0.1541301801602591 0.8429225438902519 0  -0.6598440217409109 0.1533710206623357 0  -0.5790088210114435 -0.06417014174267938 0  -0.8550988040180685 -0.06263689325931703 0  -0.2973769124940772 0.5635902703485615 0  -0.4250406032739533 0.5711505651523084 0  -0.3778289104525504 0.3324992268247583 0  -0.6193214373407925 -0.2169533929072175 0  -0.274312694192589 -0.08993220626724661 0  -0.6402239418378995 -0.5892691008022839 0  0.8598533490739281 0.2663636008173758 0  -0.03313614980499118 -0.03263735030159018 0  -0.05582460403680713 0.1153702688437089 0  -0.1351681516456584 0.4338420089817866 0  -0.1206908167378856 0.03312145604393235 0  0.5378862586900549 0.06501769085360105 0  0.579638748823995 0.3607303378280116 0  0.6916882288191941 0.7752367312279055 0  -0.7936161260784359 0.8813379089440238 0  -0.6437085069706137 -0.4300767460232706 0  -0.1169936006683772 -0.397877098374993 0  0.8723148932663131 0.4891762753197363 0  0.07506165895491179 0.09488158784347768 0  -0.6650157902915513 0.8684445724309744 0  0.4550613221380829 0.3522766516307384 0  -0.02656165205348881 0.03587025883110366 0  -0.4095321346519138 -0.4413155174258353 0  -0.362788871597071 -0.2695928133220651 0  0.3237984007242135 0.4834933892413132 0  -0.1977792421850018 0.2029292271347561 0  0.7060294599883373 0.5318484961930445 0  0.261875362674122 0.3579578862001295 0  -0.3766202007062998 -0.8521856043772671 0  0.1089133126998296 0.6834116729661825 0  -0.2848445711333896 -0.6128813782441093 0  -0.441430836702402 -0.6209466661773686 0  0.2964478461276838 0.6935322955487105 0  -0.8753042577553486 -0.1750463849120878 0  -0.1806215469034593 0.8555528931308367 0  0.4550489342436201 0.1645933513331355 0  0.2803235250074371 0.04724019554086931 0  -0.1433985136750157 0.6588918119131006 0  -0.01201478700323013 0.7099601698670761 0  -0.05367518844520282 0.875610264389016 0  0.004494582712020863 0.4717872983593547 0  -0.3896461494415521 0.1546093076665377 0  0.5494008777730668 0.134052455899058 0  -0.4769834444077176 0.6834064696990481 0  -0.8520965108070905 0.3333413571678745 0  -0.09225501638064189 -0.5370339988352297 0  -0.03060474384475352 -0.552531613591655 0  -0.2142189833041902 -0.2884346445753418 0  0.8685329850615494 0.151735906404064 0  -0.1697766582877679 -0.6617108368403914 0  -0.8893350802078503 -0.528824543576076 0  -0.2835451707714279 0.3399823559076898 0  -0.6772123298850745 0.5750175799704447 0  -0.8978049896369372 0.5318262108790581 0  -0.8986433429040798 0.6612514721084713 0  -0.6458092163007892 0.07283805547764238 0  -0.8597116570618454 0.02865297496039998 0  -0.8886682823038066 0.1681360511119468 0  -0.1317270507327582 0.2305353641135087 0  0.1601292447695575 0.4481521656441868 0  -0.04401791800411321 -0.1257558834935294 0  -0.7540637618073374 0.6706985132313237 0  -0.6033553903874658 0.6987861941866205 0  -0.2561797296382045 0.07948365928136567 0  -0.2505769597727052 0.6501285496557976 0  -0.02750305492297466 -0.006085701555870981 0  -0.4949587964743291 0.877400437668965 0  -0.4783779042267964 0.4918711762964008 0  -0.2923887343286879 0.1452574283439477 0  0.001721761992663462 0.02339116137553904 0  0.7798332460909645 0.6841519724028496 0  -0.4699178035776278 -0.825133631777924 0  0.2720000149555954 0.196589084184349 0  -0.1487323090445907 -0.8634691699239521 0  -0.06581879068855059 -0.8299312184310192 0  0.4437856592963407 0.707049215474701 0  -0.1178017148569713 -0.2887860207403108 0  -0.2665553883762996 -0.02572304967383002 0  -0.8938046197338058 -0.8965548126176536 0  -0.5745681840427527 0.2382575252080286 0  -0.4780639684652531 0.0883433723472441 0  0.4915340207074404 0.8264351028122003 0  -0.02861462891791466 -0.2601789623705492 0  -0.3106533827982624 0.875829225969263 0  -0.1442952907354493 0.08146380756068043 0  -0.4710214047390195 -0.03468831221556188 0  -0.3898635104901119 0.01261758780172048 0  -0.2935361905787263 0.02824408012427647 0  -0.3864732555058509 -0.1205869667234631 0  0.8883328930232169 0.6983158432181245 0  0.7927563244614423 0.9108161720931371 0  0.5769499105001888 0.2090657739012647 0  -0.5605165422305377 -0.4703608739638743 0  0.5993466381405085 0.7068347464563786 0  0.6784515435786221 0.8885737027754459 0  -0.05239330511684711 0.3050140300128021 0  -0.9022822690762667 0.9047528183970694 0  -0.1285090344627975 -0.0666906548409241 0  -0.1699533193642
[...]
<PointData  Scalars="w"> 
<DataArray  type="Float64"  Name="w"  format="ascii">1.7115433184190094e-10  1.0365628113023759e-11  4.4472756800651892e-10  2.0899613982249086e-09  6.2413761491359799e-10  1.5691518459521096e-12  8.6701171698754527e-12  7.3822301160323462e-11  3.9797931223582282e-11  2.0867209104556559e-11  1.0641016358080450e-10  9.4921063800963737e-11  4.0546189345307188e-10  2.7282762002738642e-10  9.0691606857911738e-12  5.4233377484805384e-10  9.0825236121925997e-11  7.1738262022023885e-11  1.3119572884009082e-10  3.4799948438836592e-10  6.6538000619756898e-11  1.0442279063026658e-10  5.7904732842052072e-10  5.8006410887266808e-07  5.7384745879439273e-10  1.0602495319322217e-10  8.7789009108079294e-11  1.6920292131882435e-10  7.5854693844023305e-11  1.8648771547369238e-11  4.7165678074386257e-10  9.5937892118481349e-11  2.3927379624558851e-10  1.7745325856741224e-10  4.6375632634447313e-10  2.2834470433676589e-10  7.6644810339115543e-11  4.7378678002137145e-10  5.9022667727324288e-10  3.1040868357382764e-11  5.2261200706266579e-11  1.0690726485849208e-10  9.1088112723996644e-11  1.9432968083341825e-11  1.0556466861017622e-09  8.7171376798014354e-11  3.1759749089383307e-11  9.5411780263451173e-11  1.2467129829258408e-12  5.9775805997526704e-10  2.2518221843763424e-10  2.1998855646653571e-10  8.1607764383295816e-11  2.5220380626880646e-10  2.5554424830851971e-10  1.9908148043988777e-10  3.4859745410254440e-10  8.8329421974552134e-11  5.9994471768925280e-10  2.5048333827600220e-10  3.1109770994781369e-11  3.1682372186211056e-10  3.7717825429569636e-10  1.4215925040768348e-10  5.3604900821893939e-11  1.7671275798292527e-10  6.9218211731358345e-11  1.7564665539325805e-10  2.3174954923385447e-10  4.5297381735908084e-11  6.3787257177891026e-11  4.3912520067707290e-10  5.5778622628143308e-11  8.7312064947105848e-11  1.6961591091421199e-10  1.6776818353912297e-10  2.5838795621338205e-10  2.8660435915908447e-10  1.8224095952306867e-10  1.9101133944984237e-10  6.4194430204575697e-11  2.5194523391139807e-10  2.7549325423873226e-10  1.9821554907601963e-10  2.3616578110318198e-10  1.2229018379543301e-10  4.5648409372435413e-11  1.0879957353025220e-10  9.3694329949236773e-11  2.5129643400415570e-10  6.8970035052904452e-11  9.7851195015699993e-11  7.6756886690338858e-11  9.2573914472333398e-11  3.9667332715450912e-10  2.0745457878815176e-10  2.5437739878588671e-11  6.8481859605870884e-10  2.5435874533053220e-10  3.1332095356857992e-11  2.7038826440134019e-10  4.1335664874423734e-10  7.0867014916380311e-11  9.6333596046547159e-11  1.5384506691729390e-10  6.3598563532593417e-11  2.7468430770953905e-10  8.1796828775975905e-11  1.4391436873023738e-10  6.4837570159418408e-11  3.1668165592112157e-10  2.4185957345719700e-10  2.4057680477210584e-10  6.3789052129373694e-10  1.2120232976734370e-09  1.4748151548279856e-10  1.6795653348140411e-10  1.0132059607003614e-10  4.6288205338621298e-10  2.5903211036674870e-11  2.5530571244152078e-11  2.8599238725527148e-10  9.2469796121509824e-11  5.9998790029615740e-11  5.0800870581316435e-10  5.6245659599387713e-11  6.1388013821793921e-10  1.1910217934717766e-10  7.5868331410033564e-11  8.1848626373432176e-11  3.4606548388115465e-10  1.6950751999528862e-10  4.6951691616225334e-10  1.3280370562558836e-10  6.4818083286722442e-10  4.3610409547062251e-10  1.0734989534815408e-10  5.1336998565602405e-11  1.2994440950746421e-10  2.5604202642176455e-10  4.2573242115177959e-10  6.2250682019947497e-10  9.1337166309527467e-11  1.1857724965361033e-10  6.8291280344723326e-11  6.5761543434359060e-10  8.4900851420674959e-11  3.3701792401509259e-10  1.4489026738950046e-10  1.2183635569142643e-10  1.9934850560627248e-11  2.8563248374406793e-10  1.5216890134411918e-09  5.6260589591970796e-11  9.7385019158260902e-10  7.8175792865575528e-11  2.4418316327373958e-11  2.4271263204794174e-11  1.2055459571283037e-10  5.7351453085610002e-10  4.4793830750882748e-10  1.6108166778175163e-10  1.1374503732534773e-10  1.6460455277727016e-10  1.8592630762996224e-10  5.7591537077218034e-11  7.7309079027404281e-11  2.0343206487593881e-11  5.8974696610401364e-11  2.8798530006449916e-10  9.1712309868276904e-11  1.0439052413204719e-10  8.1910210218285813e-11  9.4362945414102278e-11  5.2780545514138442e-11  9.4850967857293215e-11  4.5694168671310106e-10  5.6558289151653094e-11  1.6371819082169809e-10  1.7516503351624386e-10  4.7224923546205875e-10  1.9560983242104870e-10  2.8772920256902932e-10  1.4403948459478602e-10  1.4417541940200772e-10  1.4776513861984616e-10  2.0894813329686848e-11  2.8323951441349369e-10  6.5066669423017490e-10  2.5265557001300720e-11  2.5911238920923854e-10  8.7719142172743621e-11  1.5729975091952565e-10  1.1730870850187049e-09  1.3663471652264555e-10  1.6497391769169477e-10  2.3183498145676871e-10  2.8709371608272710e-10  1.0484579601000047e-10  2.0465555617358040e-10  4.1553813111379196e-10  2.1588080393760334e-10  2.3722070834992620e-10  1.0900027900258792e-10  1.1129417032506130e-10  1.1114441771708669e-10  6.9778310461669130e-11  2.0900779884196111e-10  8.9904967097453094e-10  7.6752657257192730e-11  1.0651868523620870e-10  7.7297127804533322e-11  9.6058473875345717e-11  1.6135267307768565e-10  3.7807020936758762e-10  7.8184213723598656e-11  8.2855101945953455e-11  7.7524916696050593e-10  6.9141048567646177e-10  2.9284902860755461e-10  2.0006448738591575e-10  7.6163745690157157e-11  7.9956235328153217e-11  3.3181166910063269e-10  5.7589851425690811e-11  8.1837316139037274e-11  4.9707565007897086e-11  9.2054042341518203e-11  4.0452347916326722e-10  8.8951868711155174e-11  1.9753497460710614e-10  1.6441560369307958e-10  9.2034395093126254e-10  6.0956324421947428e-11  1.9449557694309315e-10  1.1589442873360680e-10  1.0996036647699054e-10  7.6154653574397389e-10  7.3661162797786226e-11  8.3750908713108893e-11  1.1762021362825054e-10  1.1899122714838756e-09  4.0544536331274556e-11  7.7366239056221664e-11  2.8310908678998217e-10  2.5044350267632911e-10  3.4291763318906579e-10  1.7906130931550051e-10  2.0420446333241564e-10  4.0486402874135045e-10  2.9391153943817565e-11  1.0404013124905457e-10  1.2661351574018001e-10  3.7179027370214740e-11  2.6922335305879160e-10  4.3218939209945550e-11  3.4018115701656556e-10  1.3540461559833458e-10  1.0999998209581405e-10  1.9269597353673929e-10  5.0041833180180288e-10  7.2478073936868779e-11  2.6789579929356781e-11  1.4489127872234532e-10  8.1548114682988765e-11  5.8703850450503526e-11  7.5063957929580235e-11  1.7924926158444809e-10  4.8887992500765814e-11  2.6788826248920861e-10  2.5643278896684188e-10  1.3046654051947323e-10  1.3148967287625529e-10  1.3685489611761107e-11  7.1659609644802346e-11  1.5003866229390021e-10  1.6495930140794454e-10  5.1529328086146220e-10  3.6588381446018218e-11  8.1540909664114438e-11  3.3384691296940307e-11  2.4501452869045644e-10  1.2392873958091181e-10  1.8161339916232560e-10  7.5298011022891794e-11  8.5652105822907413e-11  1.2044340082290595e-10  1.9977157407446126e-10  2.2552956022880956e-10  2.6105548248148228e-10  4.4679553782913715e-10  2.1260931266090042e-10  2.1274268938233780e-10  1.4266670812585023e-10  7.9536015218599910e-11  1.7018683036227518e-10  1.6481656605039988e-10  6.4133949295522762e-10  1.2845116268875064e-10  6.1907801300917863e-11  4.1056442094809040e-10  1.9512416042621176e-10  2.0373207765807864e-10  1.2239584336592343e-10  3.2498191757642137e-11  4.4494136385695872e-11  9.7126716451892164e-11  6.9707611654572118e-10  3.0022792856299939e-10  1.7940590168753343e-10  1.3370159379496397e-10  3.3370465482161928e-10  6.7225067155938227e-11  1.0997331164734419e-10  3.5649000351940336e-10  2.7642422713344908e-09  9.8001414352775703e-11  2.8814814932390425e-10  6.3066598100987217e-10  1.2588416329154481e-09  2.0384544948683454e-10  1.5716390941054440e-09  4.2580966218360181e-10  2.2620244809015552e-10  1.1780271496268644e-10  4.0991744885581203e-11  6.4769842103198832e-11  1.2639744691039747e-10  1.5508379708935532e-10  6.2657860054990126e-11  1.0010471559247032e-10  1.0723219986629634e-10  1.2648796012120205e-10  1.9751296592861141e-10  5.1451264825574030e-10  3.2139354157842260e-10  1.6510553751749000e-10  9.4785561259453865e-11  6.1281627369666146e-11  5.9042276194003987e-11  7.0071002374081285e-11  1.7931941336169989e-10  2.2384407849840658e-10  1.0375949181996370e-10  1.0272221828275518e-10  2.3498051387484124e-10  1.3523744316058568e-10  6.8762585762661885e-11  5.8647951460092112e-11  1.0524666041124429e-10  3.3795425307717454e-11  1.8209756542287826e-10  3.2564618706184483e-11  1.6126188454670005e-10  1.8031952548466819e-10  1.5200887826845853e-10  3.9581854998147280e-10  7.8915178425695686e-11  8.1863773266704280e-11  1.4241075221565446e-10  3.0362531143778095e-10  1.4419542280894444e-10  2.6283061062814962e-10  1.0960215701065300e-10  1.3315737705863784e-10  1.5273782743826828e-10  2.7892810909755525e-10  1.2908493310090270e-10  3.3320326169631946e-11  1.1539555712239053e-10  1.1129876347792676e-10  1.4521181571374065e-10  2.4760184453521936e-10  1.6846097362595985e-10  3.4491918509212667e-11  1.2769501628063294e-10  2.3123792218376499e-10  2.9092394050149284e-11  3.2920360438839273e-10  1.6657386236186396e-10  4.0516312014405352e-10  1.1208334732415170e-10  2.3317777017294166e-10  3.2191615723660931e-10  7.4391800527309022e-11  1.0470810441035723e-10  2.1564099776172332e-10  7.2853019175184837e-11  4.8698539092454052e-10  1.6188758652565941e-10  9.6367881898770158e-11  1.0701232123387775e-10  2.0709352996742838e-10  5.4944863219102091e-10  4.9090450632843504e-10  1.7861643768855324e-10  1.6925294639536828e-10  2.0386218655082633e-10  3.9336721793192572e-10  4.5132731363715558e-11  2.2228306921344847e-10  8.1073619492126775e-11  1.2693635827029947e-09  1.1730143976060633e-10  4.5606826053386315e-11  5.7249533195848660e-10  3.3521797456707722e-10  2.4639607373626364e-10  2.0625122433686410e-10  6.3142953114060794e-11  1.5099023722269332e-10  3.2877533208717241e-11  4.3591929405406442e-10  8.0740762415836435e-11  1.3451265441252906e-10  1.2566825899516314e-10  6.5040345804051325e-11  3.4530774667529872e-10  4.2513555166433839e-11  1.1544694460207881e-10  2.4586666602929515e-10  1.7908382438104452e-10  7.2895916558545356e-10  9.1462690026347074e-11  5.8031374611230405e-10  1.4580242272652831e-10  3.6276105240729175e-10  5.3098649404911530e-10  2.4653936923865681e-10  1.5398060521436642e-10  2.7675749432369216e-10  4.9342400602066901e-10  3.4082499591613421e-10  7.4381341938103269e-11  4.8987771483063412e-11  1.6565565007541213e-10  3.6577785482593919e-10  1.8206572780172392e-10  1.2567323558631283e-10  1.6732766767031528e-10  8.0571771422188817e-11  7.0153294106949735e-11  1.9782178435770473e-10  5.7069775229138629e-11  2.0402250118433896e-10  8.9918039062422277e-11  4.8535732729269427e-10  4.8413541495895198e-10  8.1019530811219253e-11  4.1422259485727321e-11  3.9692116959814082e-10  6.5535113311682243e-10  2.5826692700456135e-10  1.0232691689608032e-09  2.9047310916996192e-10  3.1820523000820954e-10  2.8272787402545547e-10  2.7230257884232351e-10  9.6295376880245566e-11  3.1232603413225715e-11  1.9183361705895809e-10  1.0340187002603817e-10  2.1116043213304891e-10  7.5411627309306913e-11  1.2099531022595293e-10  2.0536300103562976e-09  1.7695888550563736e-10  8.0404505293986734e-11  8.1558562761516596e-11  4.1236671903700580e-10  2.4360991157784998e-10  1.8936319822370640e-10  2.0786595331103972e-10  4.4146374845669202e-11  7.8309146702406365e-10  2.4086657495903079e-10  5.3300292422230208e-10  2.4767959127421161e-10  2.3772384163174396e-10  3.0858917516264394e-10  9.4562411939945942e-11  3.3069051891672651e-11  3.6152784307421071e-11  3.7677269483268224e-10  3.5546026912496088e-11  1.1455812385803248e-10  1.0326509357154309e-09  7.4786460619665792e-11  3.4560533568892731e-10  2.6042114484767055e-10  6.1554370177547015e-11  5.9433672805824795e-11  1.8302374008427468e-10  2.4665215747950491e-10  4.7848079406916630e-11  1.1263639292961899e-10  1.5841661776884681e-10  7.5862937507403592e-11  1.6749844569745454e-10  2.1728557702337201e-09  3.3307932790956266e-10  3.2034278647804644e-10  1.0794624864694859e-10  1.0652314224675330e-10  1.8409045068953220e-10  7.9339314210649827e-11  1.3312993305958101e-10  4.9272819125700766e-10  8.5833439560945208e-11  2.3613771725909242e-10  2.1096703244963040e-10  1.4032446670101098e-10  5.0928181108937046e-11  7.6524224205604756e-11  5.4457620341654022e-11  5.2145808005056711e-10  1.0443016399614509e-10  2.2100845447102168e-11  5.7303995737534138e-10  3.0441884051888758e-11  6.2173043218766539e-10  1.1695157887611431e-11  1.0662664133388442e-09  1.7397863637103669e-10  2.4760453721314478e-10  1.0265902931159670e-10  2.8651510215198793e-11  8.3620991056602601e-11  2.7576144338623073e-11  2.0448512542264042e-10  3.7250849074233777e-10  2.7091327011400900e-10  3.0584268453150922e-10  1.3038561272342177e-10  9.2449328761469761e-11  6.2754714962614620e-11  3.6787495339581451e-10  4.9905526890891005e-10  1.0459051721880613e-10  9.9184401162742979e-11  1.4437750661407820e-10  7.6030537861733279e-11  4.5008524703272365e-11  5.3870260992933996e-11  3.1758381269119572e-11  8.8475941457293919e-12  1.7785378538940486e-11  9.8160275852356485e-11  2.2561708607892590e-12  1.1078524589455531e-11  1.8885934253258438e-10  3.4901169399025531e-09  2.1876976814284702e-10  4.2152038714002302e-11  2.1883781686192656e-10  9.1374576016810929e-11  1.1156074332680072e-10  4.3650009003336347e-11  1.6938108858456817e-11  8.6875518647537921e-11  7.7905012295028382e-10  7.9436422876121156e-11  1.8428249246409131e-10  3.2372062845960504e-10  4.8397138700684894e-10  9.6444590728279026e-11  1.0176661408295859e-10  5.7886649906832268e-11  7.6569639472115291e-11  1.1023888022222260e-10  5.6386323048824984e-11  5.9927785330596645e-10  5.8992077865778319e-11  2.8407638196332225e-10  8.7138214812273796e-11  1.2743575642791344e-10  3.0436212241561405e-10  4.1182791613403405e-11  6.1760390898527326e-11  2.7788943274116514e-10  1.1773979117915315e-11  1.1196166250424777e-10  8.7684090708341807e-11  7.6180857886116261e-11  5.6476731497762863e-10  1.6247802775237619e-09  2.8830429675363513e-10  2.9298691162421217e-10  9.0094633558378477e-11  6.8315905557163216e-11  2.4984289943064050e-10  1.1649665207424597e-10  9.7981675026887388e-11  1.0318541366504099e-10  1.9423992613769837e-10  7.2825662714160275e-11  5.2411855483346571e-11  7.0260495717495565e-11  3.9554303833639159e-11  8.5989304950271153e-11  1.9395493286175034e-10  1.6264135898977802e-10  1.1238223747356755e-10  2.7247896689677081e-10  4.6394722317221561e-11  1.3522833912978817e-10  5.3165367278235437e-10  6.5627769967932433e-11  1.1679344182741629e-10  1.2983426670271681e-09  5.7403365226570496e-11  3.4352379731748516e-10  5.2316646692298713e-10  1.5852298136467707e-10  1.2731337889828875e-10  1.2542149304152201e-10  8.9656698709069416e-11  2.5793590248101991e-10  2.8974781197912585e-10  1.7707689210549961e-10  4.7617762942991539e-10  4.2700173873184188e-10  1.1905519197401011e-10  2.0639700321190557e-10  6.5818907014183854e-11  8.3565535438640052e-11  6.2104689612665263e-11  2.3620898227272899e-10  4.0106865454035258e-10  3.0843518539659746e-10  3.2475276577889979e-10  8.4773815078255209e-11  2.3373541347376399e-10  4.8786908062718574e-10  1.6936005867546420e-10  4.6831940261209897e-10  1.8074760440514028e-10  1.3762018956381438e-10  1.1074706751831932e-10  5.0784399633236626e-11  5.3601143126705324e-11  3.2781791812636751e-10  6.1723986072188176e-11  6.4246927809408935e-11  1.2848456934991860e-10  3.1901148003491441e-10  3.1688675864911942e-10  1.5708805127208479e-10  1.1746871464186957e-10  6.1870451081037827e-10  6.4078478663121883e-10  1.6880160851851947e-09  2.7638440133477171e-10  2.0362618401461423e-10  4.5375797348654591e-10  4.5283000152628128e-10  1.2191462453356904e-09  3.0266229406351218e-10  2.4293692943670465e-10  3.2605197828461971e-11  1.2639710633633272e-10  3.2087317946947763e-10  5.0325973283334931e-10  2.1526720743547559e-10  6.6360553920027406e-10  2.9840421445256860e-10  2.1350463199816129e-11  4.7957923661621446e-10  3.3745722057955237e-10  3.8450271205839063e-11  3.3565975012575976e-10  4.1343813456962386e-10  5.4568778953332846e-10  1.4522112283961257e-10  6.6848432211362582e-10  1.9325328516521907e-10  4.6754124411935909e-11  1.2642426488548787e-10  1.3102999187055400e-10  3.1760522801013902e-10  7.7419188519424097e-11  2.5899234630604917e-10  1.9276863833737220e-10  8.0784012338207050e-12  2.4401236829573521e-10  5.7457070923169588e-11  8.9322751589917954e-11  1.2284409247643964e-10  6.5059521275085020e-10  4.1988793725249603e-10  3.1134304606180553e-10  1.1639565409125727e-10  1.3019558879182651e-10  9.5936564994064548e-10  5.7264144328017593e-10  1.3332468032941811e-10  1.4212478840004757e-10  9.3560022276597524e-11  4.8638636058951956e-10  1.3534642326355607e-10  1.7087215027961710e-10  9.3155510133855230e-11  7.0049411498425597e-11  6.2959603103506925e-11  1.4702556260827969e-10  9.6747789501968440e-11  1.2734381052008217e-10  4.1929386191729675e-10  7.5293865081783096e-11  6.0960936710030886e-10  1.2431305022160192e-10  2.2422918424480201e-10  2.7491303916114123e-10  5.7208436983959115e-10  1.1503265555167852e-10  4.0335100095110715e-11  6.1905652730283118e-11  1.4161381004040134e-10  1.5805932983761233e-10  5.0674827978445113e-10  8.3327223035342162e-11  1.5763081282687417e-10  2.4782183871081586e-10  1.3724086290809149e-10  2.3406613888235292e-10  3.3023612441025785e-10  3.1478563840299276e-10  1.0224902309344181e-10  1.7324492046616054e-10  1.4798693590980163e-10  2.2662926221848781e-10  4.5980063799287123e-10  3.7680768990012338e-10  2.0253891398385957e-10  1.9908021928519458e-10  1.2249373820142730e-10  1.7095936410213868e-10  3.0580144725041868e-10  3.8210813047765625e-10  3.6388331389874764e-10  1.6603576192779644e-10  2.1999432564922895e-10  1.9321809692372515e-10  1.5035152938890313e-10  3.9638048541446249e-10  3.1306070602633135e-11  1.0437197707106138e-10  1.2660755643274251e-10  7.9913945139491393e-07  4.0434143945198336e-10  1.7383788099248036e-10  6.0644594231713077e-11  2.5963141969589850e-10  1.3631474379638522e-10  6.3312305914811627e-11  1.0385475842844026e-10  2.0371991556484884e-10  2.0336247150163897e-10  1.9124372816614769e-10  1.8603086425825870e-10  3.0481906390315092e-10  6.3679974070525255e-11  7.9281694239141397e-11  1.8839623713002065e-10  1.2243778636316291e-10  3.5225331775889266e-11  3.9642878043300019e-10  6.3623093595593387e-11  6.1082159617195279e-11  1.9313641244688349e-10  9.7347325354360884e-11  2.3550753403344961e-10  2.9132147425861403e-10  2.3818817977689640e-10  7.8234224581614024e-11  1.8381229618740913e-10  9.5107074712311022e-11  3.2523096759004863e-11  8.9963318899534354e-11  5.7937633397855230e-11  7.9429891175434848e-11  2.3215233055800421e-10  4.6538347407347623e-11  6.5631667254749408e-11  9.3824268028688188e-11  9.2201152713823932e-11  9.2939097229260377e-11  2.5531564108987277e-10  8.7366676420388152e-11  1.8294377201733457e-10  2.0363706863014016e-10  1.0034568408872974e-10  1.6118735675679523e-10  3.1487837535154644e-10  1.2216028221180359e-10  6.3547588697994575e-10  1.6805373158205289e-10  1.4746112917170406e-10  1.4016864445181772e-10  2.2233618068395018e-10  4.3858932216661041e-11  3.9603618415572643e-11  7.5773064059764470e-11  4.3371018812871403e-10  2.0358038085936287e-10  6.3311638257040883e-10  4.4852395670973756e-10  1.1971583181495866e-10  5.5578050896564075e-10  3.6330114040858389e-10  1.8595345670975324e-10  6.9547903588786119e-11  9.2129356457833211e-11  1.7509804800807104e-10  1.8889436707021781e-10  4.1200867089103495e-11  4.7890128178392220e-10  2.7625304169395428e-10  2.9920252011696677e-10  5.3166847178740306e-11  3.4846202364188082e-10  2.6536704701428628e-10  5.9825894608178641e-10  7.2401626030919441e-11  6.0739806042901922e-11  2.4041331610061145e-10  7.1521133765595766e-11  4.1941864438882565e-11  1.4442599278049278e-10  2.4102833777443754e-11  6