<?xml version="1.0"?>
<VTKFile type="UnstructuredGrid"  version="0.1"  >
<UnstructuredGrid>
<Piece  NumberOfPoints="4852" NumberOfCells="9430">
<Points>
<DataArray  type="Float64"  NumberOfComponents="3"  format="ascii">-1 0 0  -1 -1 0  0 -0.9999999999999999 0  0 0 0  1 0 0  1 1 0  -1 1 0  0 1 0  -0.4999999999999999 0.9999999999999999 0  -1 0.5 0  -1 -0.5 0  -0.5 -1 0  0 -0.1608775713298009 0  0.9999999999999999 0.4999999999999999 0  0.5 1 0  0.1967448868031411 0 0  -0.3421843541124098 -0.1758257303858018 0  -0.3386580825671271 0.2257642535762154 0  0.1744677092971122 0.3476560630212747 0  -0.1869689523866096 0.5563494980315716 0  -0.5065646789106304 -0.5390405055080176 0  0.4907330262890927 0.2595464560008184 0  -0.06505536089383718 0.2020770621947089 0  0 -0.5061325913258391 0  -0.25 -1 0  -0.5636877697667466 0.5791158848470667 0  0.6626467309625996 0.6370511157748354 0  -0.1743411089469885 -0.5389653121448031 0  -0.5403054788979209 0.02620300129204841 0  -1 0.25 0  -0.2072347001433219 0.02401072451697372 0  -0.6558818919638583 0.3119333157715234 0  -1 -0.25 0  0.03920544885291319 0.5930248067027827 0  0.1953802272025464 0.1301498366184916 0  -0.1363992655686858 -0.2207278913004647 0  0.3724668391788123 0.6161476625807585 0  1 0.25 0  0.5355652144809806 0 0  -0.7499999999999999 -1 0  -1 -0.75 0  -0.6464141803104941 -0.3242315182286822 0  0.25 1 0  -1 0.75 0  0.02757118475249542 0 0  -0.25 1 0  -0.75 0.9999999999999999 0  1 0.75 0  0.75 1 0  0 -0.02898318711980711 0  0.05434779810189586 0.1430879106872568 0  -0.07811180262727713 -0.0280285112924588 0  -0.7024902910555876 -0.1324096429541032 0  -0.3231132832452656 -0.3480256355682948 0  -0.342418008882407 0.4387993598420526 0  -0.1009225035821481 0.7646069664016735 0  -0.3860380917158243 0.7032146255275193 0  -0.05548394878852477 0.4002504984851526 0  -0.07971100670841753 0.07227620909362327 0  0.3594563313719178 0.3718666769928052 0  -0.7187582339903534 -0.7320255481858459 0  0.4119804439720038 0.09155509420574919 0  0.6899988263592478 0.1940653412304435 0  -0.7497636739981784 -0.529375671658599 0  -0.3903000475673796 -0.7110433834819265 0  0.7214436548777848 0.4224546197652557 0  -0.7770012252257051 0.09848634248022935 0  0.1980018672242165 0.6999543683507712 0  -0.2003483311338576 0.289778865831738 0  -0.7999081656282293 0.5791301217214583 0  -0.7183674821143143 0.767370634279307 0  -0.04927277551645792 -0.374876869475762 0  0.5864409200544325 0.8180120344525478 0  0.8213232259704892 0.8079113849957846 0  -0.1026091088636286 -0.6960310817812435 0  -0.5160192854945007 0.1645052432613593 0  -0.2031147245697282 0.1263271290615559 0  -0.3607595421728372 0.07618460223127951 0  -0.3666049053339614 -0.05207806517439965 0  -0.4988438425139329 0.3971423170851618 0  0.375 0.9999999999999999 0  1 0.125 0  -0.01187146532556708 0.0717098339876759 0  0.06227723569257393 0.3933854885270023 0  -0.1723292459620087 -0.122493897233067 0  -0.2452373453315378 0.7740239595112735 0  -0.625 1 0  0.5340817684089038 0.4573528396469614 0  -0.5790295911078821 -0.8305950189919836 0  -0.2573244010710287 -0.782903132399649 0  -0.3211683773436438 -0.5094091549717548 0  0.8339891223026774 0.598405830887252 0  -0.5508971640445189 0.7914744473708616 0  0.125 1 0  -0.06779244894535599 -0.0935449250032486 0  -0.4963433319311494 -0.1432384063184139 0  -0.8750000000000001 -0.9999999999999999 0  0.02969005866663642 0.04184178068090324 0  1 0.375 0  -0.875 1 0  0.05777980189874502 0.7949630483692769 0  -0.1953953149313013 -0.3752123579034939 0  -0.07396201327143639 0.5725870565429135 0  0.2373455709830992 0.5197040548063884 0  -0.7928040361454145 0.2312313430067295 0  -0.4973912753174174 -0.3901941376381591 0  -7.69115224995705e-05 0.2723725357619172 0  0.511581624895355 0.6424510806575883 0  0.4004952047335327 0.8084045154473417 0  -0.8067648757020593 0.4264280052478179 0  -0.06360741764237289 -0.2216060392966532 0  -0.7107609361986988 -0.01346233337178162 0  0.09065057217962073 0.05301802342865532 0  -0.4801367105399821 -0.2517168808835014 0  0.7239137846962277 0.08403927255261907 0  -0.8098699960220737 -0.4129048022280654 0  0.33770322160023 0.1554079511173895 0  -0.7958096878928373 -0.2518073654813985 0  0.2366992365425371 0.2559133681418223 0  -1 -0.875 0  -1 0.875 0  0.1844458185918182 0.04890429786217089 0  -0.2486256272475656 -0.2294349396805226 0  -1 0.3750000000000001 0  -0.1719461431480112 -0.04184756619978162 0  -0.6503106099504721 0.4696832377603612 0  0 -0.07736776745332727 0  0.08068379576771934 0.26122237075823 0  -0.3750000000000001 1 0  -0.2189737406323254 0.4262585177109176 0  -0.1211447920408244 0.1509600913738733 0  0.1339899962023887 0.5555524413803891 0  0.1322993719795025 0.1950437551921962 0  -0.4763920977079739 0.2715514715452376 0  -0.04668136189473476 0.01385217734652311 0  0.8506849130192955 0.373231400709818 0  -1 -0.125 0  0.286808561180795 0.8377680892446142 0  -0.1118828277138332 0.3144440832857595 0  -0.125 -1 0  0 -0.7575037395175259 0  0.07821397079968176 0 0  -1 -0.375 0  -0.375 -1 0  -0.625 -1 0  0.7474787146812756 0 0  0.625 1 0  0 -0.2918843213980812 0  -1 0.625 0  -1 0.125 0  -1 -0.625 0  0.3284075310660084 0 0  0.004929205892015135 0 0  -0.125 1 0  0 -0.006571003003944568 0  1 0.625 0  1 0.8749999999999999 0  0.875 1 0  -0.5658752322743216 -0.6780071870709403 0  -0.00483189087993775 0.1611797051694672 0  0.3625698661536711 0.265027675505072 0  0.6529948415444652 0.2970398879820947 0  -0.8557084257767269 -0.6484689815821694 0  -0.8644985758103381 0.7879268186639228 0  0.4315354357002368 0.5037770340578523 0  -0.400399178723647 0.8566363763841549 0  -0.7805050401500266 -0.8758926131890735 0  -0.8716184209784921 -0.7858245330197086 0  0.1551273763924396 0.8430756024126058 0  -0.6597305886104454 0.1548161858427929 0  -0.5787785060715809 -0.06385769011427399 0  -0.8551970112166282 -0.06230414301573729 0  -0.298515963652376 0.5636217874046352 0  -0.4264937797793769 0.5716757768301813 0  -0.3781459714028388 0.3328090323049548 0  -0.6192459603439863 -0.2168829517034568 0  -0.274100144727185 -0.08999973856727095 0  -0.6426600127291482 -0.5911106810259618 0  0.8592613899895131 0.2682217608633892 0  -0.03288515804917598 -0.03313335192585207 0  -0.05530222713892763 0.1152397077590544 0  -0.1353448499264502 0.4335866603593218 0  -0.1206397086555922 0.03251602740670135 0  0.53795606568295 0.06588158521750977 0  0.5795559537672688 0.3626498916376172 0  0.6930370538352596 0.7770505309348336 0  -0.7943744635706477 0.8820374748059818 0  -0.6452159685509681 -0.4309741622358025 0  -0.1138565925115415 -0.3993334329774957 0  0.8714834624102255 0.4917271463823552 0  0.07615104415832874 0.0945722635331063 0  -0.6660179298815831 0.8692406204003214 0  0.4551183749516806 0.353460946310844 0  -0.02664824330590631 0.03601515978060901 0  -0.4114109284996657 -0.4413723144021135 0  -0.3635601604601973 -0.2691915456165321 0  0.3244571218053828 0.4840004745034855 0  -0.1974928138368864 0.2025684795873107 0  0.7059719333443121 0.5346684282924425 0  0.2623615389652055 0.3580448822578183 0  -0.3787964919676612 -0.851309053080166 0  0.1097337305555636 0.6831860749343356 0  -0.285275725587584 -0.6127816795744699 0  -0.4444380880867211 -0.6212325488177883 0  0.2978613739525431 0.6938877023228152 0  -0.8751892516145861 -0.1751133307668192 0  -0.181453071310868 0.8561347442140268 0  0.4549093955582041 0.1657098408506598 0  0.2803913582513524 0.04748795038037778 0  -0.1439363098328326 0.6581998648048463 0  -0.01179765757129744 0.7093646415609173 0  -0.05357836602568149 0.8761740957227437 0  0.005271000639279196 0.4714722107143971 0  -0.389457423342955 0.1549649229639057 0  0.5494098945700033 0.1353427629114455 0  -0.4787147294569849 0.6834564128057946 0  -0.8519990855372875 0.3345241600433398 0  -0.08767711452780444 -0.5372425026199235 0  -0.02718583522250708 -0.5528538381620295 0  -0.2140870160585841 -0.2885883498094653 0  0.8682132574540877 0.1529581996407056 0  -0.1669444903004113 -0.6610073248461973 0  -0.8892207052031627 -0.5300396728733043 0  -0.2838673349785291 0.3400502283250867 0  -0.6779732189089327 0.5761382132369061 0  -0.8981035840483573 0.5326538631457994 0  -0.8992142108527982 0.661983323621128 0  -0.6455173603652883 0.07381049237536884 0  -0.8596645247987281 0.02931137167877867 0  -0.8884257177595754 0.16889161344835 0  -0.1313768284325861 0.2301406471325226 0  0.1609743373204996 0.448238141489452 0  -0.04374760168332114 -0.125999848925993 0  -0.754952985487631 0.6715185053908873 0  -0.604737142163564 0.6991729082390914 0  -0.2557362174546708 0.07921441667238727 0  -0.2518531956688206 0.6496215253495848 0  -0.02758026769154787 -0.006611196237177374 0  -0.496182639829247 0.8778774894414406 0  -0.4797205283618701 0.4927695976590244 0  -0.2920244420322455 0.1451495684267849 0  0.002407782373905732 0.02381801644585713 0  0.7803226045837814 0.6868686253122849 0  -0.4729399761698023 -0.8246941171241821 0  0.2722430430526864 0.1968838223455337 0  -0.1476187721538813 -0.8621714090307705 0  -0.06502408208838158 -0.8289574099011269 0  0.4451669684008366 0.7079094512460813 0  -0.1159443079520182 -0.2899818753178505 0  -0.2661844706901892 -0.0259944611663072 0  -0.8945224058252318 -0.8972362075723188 0  -0.5745482628420699 0.2396192879562501 0  -0.4777880921456771 0.08880920624665392 0  0.4929071228151733 0.8270826083490942 0  -0.02731707027196491 -0.2608016762814113 0  -0.3118628293681947 0.8763364808081076 0  -0.144075580142671 0.0809642864046511 0  -0.4710009312822104 -0.03448200034269461 0  -0.3896637311506393 0.01272430768020467 0  -0.2931348990645522 0.02803034175376945 0  -0.38656265485677 -0.1203842092109884 0  0.8884306455125658 0.7003076731214631 0  0.7935502816884182 0.9116600607793228 0  0.5767647004223931 0.2106704061585798 0  -0.5620729730773583 -0.4711285360216312 0  0.600685770859723 0.7084668701910718 0  0.6795215149381181 0.8893554916340558 0  -0.05177642938683302 0.3046729781674115 0  -0.9026735260001786 0.9050820173841796 0  -0.128188928459016 -0.0672850957713845 0  -0.1698
[...]
<PointData  Scalars="w"> 
<DataArray  type="Float64"  Name="w"  format="ascii">1.7249864786577838e-10  1.0247684690412266e-11  4.4636124043645207e-10  2.5840264691350512e-09  6.2630227256420714e-10  1.5623011826517345e-12  8.6288405076706685e-12  7.2243903021051784e-11  3.8077659884777443e-11  2.0736619803448934e-11  1.0805932792990617e-10  9.4814751542219789e-11  4.0655494706801767e-10  2.6508934948845389e-10  8.8867918683698483e-12  5.5226623585877124e-10  9.1671331714751831e-11  7.1707760147457756e-11  1.3075936680551627e-10  3.4912850588733766e-10  6.6418773317853544e-11  1.0345538130665558e-10  5.8232371218864193e-10  7.8861476009950025e-07  6.0486608163575453e-10  1.0362041942609463e-10  8.5529179374311569e-11  1.7088159273762856e-10  7.5940732540211244e-11  1.9085884656347984e-11  4.7308387449445159e-10  9.4715617045539996e-11  2.4321517112731359e-10  1.7890242714207329e-10  4.5888044523945327e-10  2.3298390331292361e-10  7.6816019733621789e-11  4.6514470359008448e-10  5.9933196800668428e-10  3.0112631451901926e-11  4.9820681817122660e-11  1.1014735875979733e-10  9.0149173731976028e-11  1.8647547723026215e-11  1.0705570231429977e-09  8.3287219726619162e-11  3.0510529235080040e-11  9.1110526105635400e-11  1.2894835443565424e-12  5.9587891215305127e-10  2.2330917907218916e-10  2.1529775005322853e-10  8.4791189852065908e-11  2.5961731967000667e-10  2.5219875617593485e-10  2.1380573280242938e-10  3.4767730569504158e-10  9.0444556364728495e-11  5.8726896899503753e-10  2.5184463596679319e-10  2.9994128075412424e-11  3.2033876195371862e-10  3.7700777220618920e-10  1.3464622342387355e-10  5.3723333576516215e-11  1.7502998716108990e-10  6.8326640053783152e-11  1.8348501824286313e-10  2.3607931222000879e-10  4.4564239460650405e-11  6.3662644143735108e-11  4.0449990724925509e-10  5.4301662688775873e-11  8.3844367915005750e-11  1.6759279479100827e-10  1.6943226445850566e-10  2.5801671358417528e-10  2.8814305716428639e-10  1.8438358822863183e-10  1.9563130776407732e-10  6.3256434980341536e-11  2.5167182636255960e-10  2.7084766117994344e-10  2.0017904712710235e-10  2.3525251843994424e-10  1.2780054469901447e-10  4.3343237972597985e-11  1.0803535721821159e-10  9.1881757077299547e-11  2.6712955999053477e-10  7.0660515218218322e-11  9.5452094933243673e-11  7.6564930334214967e-11  9.1453358029238241e-11  3.9357925479025175e-10  2.0883220526237054e-10  2.4325996396192731e-11  6.6029047855188217e-10  2.5565116463898923e-10  3.0424688613154100e-11  2.7549426508761153e-10  4.2476452927830358e-10  7.0844038506709494e-11  9.5683167880462055e-11  1.4986472220936992e-10  6.1513172424190805e-11  2.7711684962231548e-10  8.2045275302710141e-11  1.4262582734709843e-10  6.4630428216173742e-11  3.1916338968757359e-10  2.5174648954009287e-10  2.3560559876497708e-10  6.5022920231075199e-10  1.2222368481060496e-09  1.3443557933427784e-10  1.6892769549673796e-10  9.6897646482872816e-11  4.5616626363673965e-10  2.5076552195693865e-11  2.5006507260060524e-11  2.8151994432120488e-10  9.3894420745875237e-11  5.8847108767003643e-11  5.0596508006553934e-10  5.4910263306125254e-11  6.1017263391969822e-10  1.1831277321493161e-10  7.3549332042002418e-11  8.2735369817745634e-11  3.4901166704018633e-10  1.6560471948666966e-10  4.6742858655057881e-10  1.3284998939352758e-10  6.3410031032032585e-10  4.2301452781304782e-10  1.0856005539375291e-10  5.0492396275545764e-11  1.3231827065474903e-10  2.6208137912162806e-10  1.0592465478798680e-10  6.3297510628023481e-10  9.3066868910757749e-11  1.2085302857714794e-10  6.4779815543899181e-11  6.6359286803756140e-10  8.2082044122084239e-11  3.1105351827477343e-10  1.4039666314136824e-10  1.2431672705163137e-10  1.9628302146563690e-11  2.8830808369534909e-10  1.6231327979231753e-09  5.3673057575897147e-11  9.8515299810416716e-10  7.5485316016539993e-11  2.2932080215554056e-11  2.3287293706765035e-11  1.1996824540037722e-10  5.7079724782097898e-10  4.3526692390033621e-10  1.6157050470531082e-10  1.0702210671359431e-10  1.5945074852506804e-10  1.8351694110817190e-10  5.8162453310735260e-11  7.3085574221934646e-11  1.9297287413873575e-11  5.8351471686282312e-11  2.9530889388721494e-10  9.1043521309258507e-11  1.0315294915924650e-10  8.1371305617549325e-11  9.2468297916994770e-11  5.2063554249393470e-11  9.6830135395399012e-11  4.5748598748162377e-10  5.6361674578514556e-11  1.6372604566128005e-10  1.6981956193085115e-10  4.7584040277033065e-10  2.0135344909675245e-10  2.8407316414452942e-10  1.4684864258866354e-10  1.4600454960272101e-10  1.4370993797257603e-10  2.0606498783370825e-11  2.9884944237006348e-10  6.6382605036339528e-10  2.4656345659870140e-11  2.5581527915211001e-10  8.5970095396273537e-11  1.5787641654764723e-10  1.1506443497099282e-09  1.4161213711570564e-10  1.6622700086153415e-10  2.3402699971404185e-10  2.9173883117592128e-10  1.0250803128958662e-10  2.0448126967852962e-10  4.1505576571083483e-10  2.2247456723994577e-10  2.4061486940274509e-10  1.1117303018409090e-10  1.1159074592491625e-10  1.0770127317392833e-10  7.3266707946632513e-11  2.1058914510855480e-10  9.0079179676680369e-10  7.4655582876684994e-11  1.0667668936842309e-10  7.9898657321702402e-11  9.8020798365427298e-11  1.6219961626626443e-10  3.8097904405588396e-10  7.6761040995345107e-11  8.3663496386001455e-11  6.8448492497426364e-10  2.5019608218397233e-10  3.0140287126355300e-10  2.0106606477859573e-10  8.0763918378292998e-11  7.7997999231743053e-11  3.3771066642995109e-10  5.6297207995126297e-11  8.0180628135603287e-11  4.8661551908809413e-11  9.4958743301525912e-11  3.9847819969629355e-10  8.8975480478958940e-11  1.9893713871570422e-10  1.6816349105847769e-10  9.2693206899905608e-10  5.9740456760123817e-11  1.9134308823674838e-10  1.1600189556579152e-10  1.0756201055823036e-10  7.6481088261665865e-10  7.4971721004390887e-11  8.3974815746149679e-11  1.1857948557040460e-10  1.1509605321004097e-09  3.9010262377734624e-11  7.6789110597447331e-11  2.8111781334011894e-10  2.6094482120930073e-10  3.4956342683979830e-10  1.7886873194691536e-10  2.0632532077580557e-10  4.0708600932339143e-10  2.7867647865792588e-11  1.0456440446721770e-10  1.2796680226156731e-10  3.6698692839552463e-11  2.7461539298599583e-10  4.2936822725768828e-11  3.4146424174642125e-10  1.3516816319695224e-10  1.1121867997339744e-10  1.9267179350871749e-10  5.0613196125176336e-10  7.0983965707069727e-11  2.5565297901094087e-11  1.4449694042249696e-10  8.0973878096332959e-11  5.7721400631525788e-11  7.1136656997012510e-11  1.8118055366582354e-10  4.7425584041003693e-11  2.6452582073940988e-10  2.5764964538704050e-10  1.2976950675230365e-10  1.3056406041224234e-10  1.2966422802214254e-11  7.2483062050257234e-11  1.4739077839205674e-10  1.6493822924014835e-10  5.0478643130569042e-10  3.4932496349651670e-11  8.0930001201245708e-11  3.2027719787073222e-11  2.4189044149359151e-10  1.2474354455279204e-10  1.8272214876071829e-10  7.5207776335778693e-11  8.7998778555927021e-11  1.1945216073711953e-10  2.0002036356944600e-10  2.2567113539126204e-10  2.6148169379315586e-10  4.4374422746784302e-10  2.1682098358878681e-10  2.1123156948828006e-10  1.4422387949116479e-10  8.3159174039165944e-11  1.7713505426766440e-10  1.7484995213812119e-10  6.3561458227163139e-10  1.2453414112673507e-10  6.1485675144493955e-11  4.1620650340250713e-10  1.9014761728550594e-10  2.0429560824398189e-10  2.0838611821013656e-10  3.1088224902430223e-11  4.4269783588921160e-11  9.5057873236656166e-11  7.0833742653022144e-10  2.9675390635039707e-10  1.8000766111442156e-10  1.3454891773901177e-10  3.4118097830187066e-10  6.9083000374769540e-11  1.1368334465075990e-10  3.5690369916510476e-10  8.7816847747191512e-09  9.4337784413381515e-11  2.8235580109611471e-10  6.2440785497285708e-10  1.2463571647375169e-09  1.9865614411583440e-10  1.5562394654034019e-09  4.2153376217683175e-10  2.2648923889709454e-10  1.1983353725310947e-10  4.1039033699147871e-11  6.2273631314987667e-11  1.2833384911795828e-10  1.5431648984306948e-10  6.1518094294913589e-11  9.8302717869513956e-11  1.0927228688563664e-10  1.2183315714484720e-10  1.9209864161963187e-10  5.0634940044378408e-10  3.2635568517745843e-10  1.6640141251204054e-10  9.2560102817635797e-11  6.0790469070714815e-11  5.8539976043149086e-11  7.2512684366211380e-11  1.8329058248512298e-10  2.3138890136293694e-10  1.0327747353102997e-10  1.0500194226691784e-10  2.3790140233571166e-10  1.3406209897114381e-10  6.7301262861412365e-11  5.7580759656661874e-11  1.0591361641204246e-10  3.3680873180198634e-11  1.8897947610546874e-10  3.2035663539044263e-11  1.6072561531620564e-10  1.7898762873253106e-10  1.5742559989171540e-10  3.8098222369233808e-10  7.8829066567712851e-11  7.9668460020783156e-11  1.4239173754864706e-10  3.1809594287608070e-10  1.5398081032868139e-10  2.6255624287318215e-10  1.0938960136364363e-10  1.3628561749694488e-10  1.6182155118013687e-10  2.9773154990411187e-10  1.2838275853857060e-10  3.2938037754874283e-11  1.1466913102106952e-10  1.1445353643863385e-10  1.4106227622365268e-10  2.4495208870836391e-10  1.6611758155361566e-10  3.4284562521640852e-11  1.2619992758045660e-10  2.3377411370538401e-10  2.6872014315494143e-11  3.3240258524950884e-10  1.6546981216737467e-10  3.9180495290276088e-10  1.1839596302708699e-10  2.4580623819670956e-10  3.2379388898978514e-10  7.2871064599753555e-11  1.0360040923640753e-10  2.1557771071279077e-10  6.9252591046748496e-11  4.9767799107622114e-10  1.6032034051826470e-10  9.5078983537998875e-11  1.0652151727805146e-10  2.0564054645738760e-10  5.5460488593888595e-10  4.8263274293397367e-10  1.7531918826272848e-10  1.7472107841437190e-10  2.0496931173256629e-10  3.9043680042309447e-10  4.3572205938757517e-11  2.2216930624436435e-10  7.3819035187436841e-11  1.2563738727485061e-09  1.1427016492743841e-10  4.5776323810492825e-11  5.6752462379832572e-10  3.4415520272893377e-10  2.5197373980381026e-10  2.1599825830266657e-10  6.3712310629424961e-11  1.5203878700301404e-10  3.2272036250405900e-11  4.4399364517521033e-10  7.9088548107423694e-11  1.3011366621265266e-10  1.2837863865271313e-10  6.3933416592569896e-11  3.4386824910828548e-10  4.2162922561186514e-11  1.1431702305159008e-10  2.5217277970550850e-10  1.8120269927076568e-10  7.2930925672456873e-10  9.0093220323705339e-11  5.8291278264288816e-10  1.4022458316784836e-10  3.6012446032187863e-10  5.7831119217258095e-10  2.4599237820459714e-10  1.5423947407812041e-10  2.7749195243215651e-10  4.8231380426953144e-10  3.4873027377594809e-10  7.4389139901453446e-11  5.1924700478412721e-11  1.6533041722467369e-10  3.6067235387407706e-10  1.8817436948456170e-10  1.2207385940330389e-10  1.6374123426342918e-10  7.7125861116336883e-11  6.9583894780565152e-11  2.0315030486578351e-10  5.6191478211655378e-11  2.0716960540844756e-10  9.0909954232205404e-11  4.9225900732743222e-10  5.0416396032048658e-10  8.1804857440824010e-11  4.1343782328214787e-11  4.1379859388175041e-10  6.6608720717546441e-10  2.5988562212833804e-10  1.0092719598007682e-09  2.9204373812467611e-10  3.2095300590106036e-10  2.7565577545378555e-10  2.7029792792365183e-10  9.8221799060943109e-11  2.9674242581562486e-11  1.9669834551412397e-10  9.6053910161473115e-11  2.0853436265895816e-10  7.6215854038691147e-11  1.2036801265825731e-10  2.1168124717451719e-09  1.7869335465129926e-10  7.9550851830695025e-11  8.0114181504189394e-11  4.0492355898661743e-10  2.4697225598512981e-10  1.9263490281366594e-10  2.0829172638770727e-10  4.3409433687296646e-11  7.6933376147043066e-10  2.4540983230747920e-10  5.3511417073616758e-10  2.5164068998141335e-10  2.3322086706103421e-10  3.0993645168001481e-10  9.4215991182009647e-11  3.2184138645319730e-11  3.5325596282358276e-11  3.7730327222036759e-10  3.3848812768378899e-11  1.0930430302596578e-10  1.0412263473559445e-09  7.5468471581780735e-11  3.3470261390176580e-10  2.5862294918954947e-10  6.1554837131800171e-11  5.5695420782114260e-11  1.8021459445375302e-10  2.4870297195858510e-10  4.5429383348203480e-11  1.1296571914537932e-10  1.5652126759817781e-10  7.2843326779614753e-11  1.6954787947465244e-10  2.1641133882824466e-09  4.2411581674580454e-10  3.2199942243079785e-10  1.0512290776849941e-10  1.0321347013475470e-10  1.8140680235327121e-10  7.6129959265048607e-11  1.3713533823940749e-10  4.9397394355087428e-10  8.6217185863577320e-11  2.3937783424025976e-10  2.1800253673353042e-10  1.3831714110836879e-10  4.8086279850401158e-11  7.3295942144913208e-11  5.1856049448488400e-11  1.1483967643740692e-07  1.0469872022807317e-10  2.1993841979396538e-11  5.7904632896273802e-10  2.9498865825488323e-11  6.2715079147731340e-10  1.1544943352417421e-11  3.8710297990950662e-10  1.7997004497316899e-10  2.6236223577560992e-10  1.0199451141311476e-10  2.8119224990260288e-11  8.2329856429641148e-11  2.7009585679672103e-11  2.0682862010891089e-10  3.7497371475024461e-10  2.7090683299763982e-10  3.2203780083405420e-10  1.3324628760524621e-10  8.8276161171096886e-11  5.9928035238424682e-11  3.6890530181183767e-10  4.9483166633436125e-10  1.0798943513630861e-10  1.0020934187267987e-10  1.4562418789657257e-10  7.2954726674575268e-11  4.3248790802736164e-11  5.1559404983870812e-11  3.0502655289486789e-11  8.7027953194211096e-12  1.7455455326840803e-11  9.3479204019059433e-11  2.2014868893897817e-12  1.0765736393690138e-11  1.8641731685756822e-10  3.5205943430742048e-09  2.0763654393262383e-10  3.9155512659872074e-11  2.1987682755258935e-10  9.0002083430626343e-11  1.1058183822749807e-10  4.1873525677344262e-11  1.6419887030744225e-11  8.3584264642900996e-11  7.6119700997563915e-10  7.7128668753062544e-11  1.8630746311184411e-10  3.2361736734036125e-10  5.0540107981688608e-10  9.6672204277454233e-11  1.0159664067068085e-10  5.7494196466798123e-11  7.6774941254119306e-11  1.0665993326520409e-10  5.5671653870845149e-11  5.9817869191994054e-10  5.7629162902701265e-11  2.8344739197352839e-10  8.6337910495304136e-11  1.2764487591353738e-10  3.1590664596767160e-10  4.1500454192666368e-11  6.0565048245823617e-11  2.6695528231032630e-10  1.1646859600972548e-11  1.1273366200462545e-10  8.4695605653384258e-11  7.5218004508123697e-11  5.7566287481483752e-10  1.6188134024908110e-09  2.9622085552335327e-10  2.8786114815287807e-10  8.9831737289175986e-11  6.7152984343278519e-11  2.4906953468711179e-10  1.1300943643874181e-10  9.4520922336578721e-11  9.9127684305721694e-11  2.0082060501374223e-10  7.1741518142229040e-11  4.9521540857617005e-11  6.6830685211205646e-11  3.7863947263553995e-11  8.2285836915534521e-11  1.9177528216819227e-10  1.6344963523090069e-10  1.1219707843412826e-10  2.7023488155052827e-10  4.6090951347292561e-11  1.3537329948458925e-10  5.3540419173901125e-10  6.5151344726293041e-11  1.1273147269787075e-10  1.2976677308711787e-09  5.8769793730794682e-11  3.4671709086926620e-10  5.2215386350089649e-10  1.6090214345264415e-10  1.2587430219715608e-10  1.2675042581706288e-10  8.4209317825234902e-11  2.4859069995529532e-10  2.8873234917218915e-10  1.7913184479490768e-10  4.8207680259596218e-10  4.2744965262329929e-10  1.2053802124013877e-10  2.0829571468034206e-10  6.4035851716757205e-11  8.2754729437277949e-11  6.1329870409597582e-11  2.3434709144207017e-10  4.0502818496023895e-10  3.0994118850662099e-10  3.3466312360094375e-10  8.5030875368871123e-11  2.2917624588998673e-10  4.8037589003365451e-10  1.7731867236326125e-10  4.6945556660100553e-10  1.7774036892087319e-10  1.3706646495744419e-10  1.1226174515295535e-10  5.0972726351737439e-11  5.1591322792249706e-11  3.3757832948145391e-10  6.1958999808132513e-11  6.4047699286881847e-11  1.2533431285565706e-10  3.2983484204847850e-10  3.2180374587909044e-10  1.5590334067773026e-10  1.1716435823863880e-10  6.0940096079911409e-10  6.4660179402521568e-10  1.6420320853103034e-09  2.7225972860823138e-10  1.9734459553150062e-10  4.4517895976058144e-10  4.6718570794850319e-10  1.2126078502343845e-09  3.0157872453758920e-10  2.3753667544692120e-10  3.3115614513106725e-11  1.2434832869561948e-10  3.2832792774986827e-10  4.8093492236014575e-10  2.1303600059671875e-10  6.8838953698717366e-10  2.9687236033554364e-10  2.0747301739708960e-11  4.9998063574029935e-10  3.3504633190040391e-10  3.8632495873022341e-11  3.3450529235222960e-10  4.1548923060289076e-10  5.4559907961978053e-10  1.4728254752043116e-10  6.8424713594280076e-10  1.9813156580447242e-10  4.6478639074840045e-11  1.2631873189861188e-10  1.3117627081754263e-10  3.1670025423543494e-10  7.6561828088961117e-11  2.6913859538402616e-10  1.8127362172396551e-10  7.8733279459063700e-12  2.2434715703256058e-10  5.5652556764264892e-11  8.8841372354063602e-11  1.2146298552691374e-10  6.4376627043338223e-10  4.1866372685942191e-10  3.1335965838006901e-10  1.1635599156316735e-10  1.2884766048604155e-10  9.2147094912106902e-10  5.5259821182713663e-10  1.3556300916229224e-10  1.4026136267870990e-10  9.6623787076391700e-11  5.0330027408709493e-10  1.3356435978947234e-10  1.7041367787287795e-10  9.3710545752880280e-11  6.8926456041008989e-11  6.2154440496037612e-11  1.4671367081288041e-10  9.4122647468536157e-11  1.3648339946746397e-10  4.5321883847419682e-10  7.2161611752424777e-11  6.1099339601956649e-10  1.2535375919272886e-10  2.2512533060993321e-10  2.7459653990557098e-10  5.6358608201068502e-10  1.1559244168911131e-10  3.9810653133213197e-11  6.0144324830601005e-11  1.4290961280730655e-10  1.5789462603897663e-10  5.1550202417144033e-10  8.1802858312790671e-11  1.4918845914515169e-10  2.3675952009238351e-10  1.4359244608052275e-10  2.3976925386893642e-10  3.4157214692679056e-10  3.1457420012486857e-10  1.0180129228109419e-10  1.7382679884309731e-10  1.5240637761005324e-10  2.2912384388644320e-10  8.7781469934600613e-10  3.7413787391417248e-10  2.0147050899336491e-10  2.0249176934967083e-10  1.1954748521103839e-10  1.6896470801752233e-10  3.0099987379452292e-10  3.8403030446097993e-10  3.6642178792556583e-10  1.6574516256013345e-10  2.2338265026454141e-10  2.0308540617184689e-10  1.4996446284464076e-10  3.9375823795258717e-10  3.0308449391763142e-11  1.0329228424220334e-10  1.3026791011390081e-10  2.0684605349999041e-06  4.1440117919733115e-10  1.7098935701340540e-10  6.1472042462209525e-11  2.5959733207137876e-10  1.3786091932144352e-10  6.3321648893074443e-11  1.0207197805808286e-10  2.0392653088453676e-10  2.0227231117925326e-10  1.8758493725369442e-10  1.9015084162587036e-10  3.0703456182249972e-10  6.2767417661985415e-11  7.9545779261854930e-11  1.8949657406314882e-10  1.2506542919178103e-10  3.3890748382419780e-11  4.0237269218333942e-10  6.4346147405165053e-11  5.9501595143021852e-11  1.9066357334428359e-10  9.6474483808373667e-11  2.3455005884261219e-10  2.9600828435010477e-10  4.0641657910147613e-09  8.2680224112193666e-11  1.8137345478168059e-10  9.5002809973685176e-11  3.1020914320415665e-11  8.6439337461559401e-11  5.8195424512142477e-11  7.8339231574946722e-11  2.2450297429398474e-10  4.5646286429240977e-11  6.4348038029584484e-11  9.1236974637376716e-11  8.9710136450030980e-11  9.3710803251346827e-11  2.5432883811905166e-10  8.9005400806874988e-11  1.9127671470348427e-10  2.1399796027939757e-10  1.0625841448850860e-10  1.6171011362432003e-10  3.1740705018876182e-10  1.2246228007981474e-10  6.2201224280674361e-10  1.7197510593691090e-10  1.4707000846740747e-10  1.3873086496331482e-10  2.2116344245112851e-10  4.2911237953725430e-11  3.8228315854782631e-11  7.5275560757071996e-11  4.5311773607075183e-10  2.0019367135747550e-10  6.5845622070206844e-10  4.5275982965760199e-10  1.2239291337928268e-10  5.5204990766795884e-10  3.5949369858941108e-10  1.8645430410944413e-10  6.9614139856468103e-11  9.4027476970875289e-11  1.7592397584626323e-10  1.8849921327042287e-10  4.0168548190236759e-11  4.9807291375668299e-10  2.9302617989743887e-10  3.1312898872106957e-10  5.0532546296058153e-11  3.6149988735287456e-10  2.5339923177613282e-10  5.9422472343377983e-10  7.3024227639928184e-11  5.8584733726560894e-11  2.4194857656536883e-10  7.0969798823669284e-11  4.0730878424259218e-11  1.4222737712219486e-10  2.3509510011520926e-11  6