<?xml version="1.0"?>
<VTKFile type="UnstructuredGrid"  version="0.1"  >
<UnstructuredGrid>
<Piece  NumberOfPoints="4852" NumberOfCells="9430">
<Points>
<DataArray  type="Float64"  NumberOfComponents="3"  format="ascii">-1 0 0  -1 -1 0  0 -1 0  0 0 0  1 0 0  1 1 0  -1 1 0  0 1 0  -0.4999999999999999 0.9999999999999999 0  -1 0.5 0  -1 -0.5 0  -0.5 -1 0  0 -0.1608775713298009 0  1 0.5 0  0.5 1 0  0.1967448868031411 0 0  -0.3627259996205169 -0.1877470634512374 0  -0.3604339028161921 0.2395278275369322 0  0.185687289812994 0.3635952669695298 0  -0.1968285677269804 0.5736572843147552 0  -0.5170517407433408 -0.5505850912135029 0  0.5032746805266504 0.264168775170703 0  -0.07416592428841461 0.2224950012285312 0  0 -0.5061325913258391 0  -0.25 -1 0  -0.5753921448620871 0.5899682841984972 0  0.6699633166532341 0.641932759080979 0  -0.1844772204763776 -0.5504767836007251 0  -0.5618898548695801 0.0283002981912479 0  -1 0.25 0  -0.2307205602358259 0.02567176978241029 0  -0.6697027097170547 0.321715223131798 0  -1 -0.25 0  0.03976911819657529 0.6099514734392835 0  0.20883601669251 0.1321440133705516 0  -0.146306379354219 -0.2341514430225196 0  0.3821491083439569 0.6266403424106221 0  1 0.25 0  0.5355652144809806 0 0  -0.75 -1 0  -1 -0.75 0  -0.6596486569732531 -0.3337379342679775 0  0.25 1 0  -1 0.75 0  0.02757118475249542 0 0  -0.25 1 0  -0.7499999999999999 1 0  1 0.75 0  0.75 1 0  0 -0.02898318711980711 0  0.060785977268683 0.1567492008700423 0  -0.08999529214968714 -0.03095973988170775 0  -0.7162745999413733 -0.1360180034764765 0  -0.3381514423422117 -0.3632179437238826 0  -0.3586193094895659 0.4553790592659983 0  -0.1048685988769755 0.775530315582746 0  -0.3959740618240531 0.7139351217728513 0  -0.06092977025732636 0.4219590376711909 0  -0.09399009758019702 0.083033311698264 0  0.3738060161648066 0.3818322834113561 0  -0.7225815388047517 -0.7371846826161168 0  0.4204129575734608 0.09043493144235699 0  0.6973154429214067 0.1939290830842945 0  -0.755419992730881 -0.5369262607433014 0  -0.3968796152203406 -0.7198548543346311 0  0.7296022516292298 0.4261153374795763 0  -0.7878191787902247 0.1018081573959309 0  0.2038561768949473 0.7110165693684171 0  -0.2168580880580227 0.3093153440823321 0  -0.8060912352820278 0.5861075943017494 0  -0.7243185826641746 0.7727532719356479 0  -0.05323805845344887 -0.3828577738287732 0  0.5911382395781292 0.8216660499915152 0  0.823929470360901 0.8094377344682773 0  -0.1081377508948903 -0.7029111068327859 0  -0.5371050328870131 0.1736231431057249 0  -0.2251476672486453 0.1383729827826122 0  -0.3857444357077404 0.08162741088908229 0  -0.3910361426285623 -0.05562803308854968 0  -0.5150387628282403 0.4104366557435971 0  0.375 0.9999999999999999 0  1 0.125 0  -0.01549434547333066 0.08385196917186395 0  0.06599685428306959 0.4134782254531117 0  -0.1881855633600401 -0.1340788451306854 0  -0.251989211078413 0.783409274046966 0  -0.625 0.9999999999999999 0  0.545663224330902 0.4648113527626941 0  -0.5822964291599606 -0.8350785176483784 0  -0.2621135851792411 -0.7900548802789171 0  -0.3327345143374405 -0.5229735229286449 0  0.8382506713044118 0.6006885715957521 0  -0.558412415951562 0.7977482717547711 0  0.125 1 0  -0.07477677219142545 -0.1004648177736275 0  -0.5167655815311434 -0.1496808378926578 0  -0.8749999999999999 -1 0  0.03232349814619834 0.04744749757699478 0  1 0.375 0  -0.8749999999999999 0.9999999999999999 0  0.05840839646866769 0.804125447549113 0  -0.2068937291194769 -0.3898480767876453 0  -0.07912913843896728 0.5903251805052877 0  0.2472058876207877 0.5340752521775135 0  -0.8025281316976368 0.2373884534749411 0  -0.5116524521612014 -0.4030889801738229 0  -0.001119004272712743 0.2936499296110205 0  0.5204192209286945 0.6499034793440935 0  0.4060878578510375 0.8140361728796456 0  -0.814104775199945 0.4337035857064965 0  -0.06809478993738965 -0.2294475914681382 0  -0.7248575989895419 -0.01297162532094685 0  0.09785804835898718 0.0542637462812637 0  -0.4980373600740427 -0.263082765861369 0  0.7271518774204522 0.08272001508989602 0  -0.8158051063789548 -0.4192575448457831 0  0.3507440476271224 0.1571302787464064 0  -0.8041462460805046 -0.2570039516599557 0  0.2517674818483944 0.2655937591712128 0  -1 -0.875 0  -0.9999999999999999 0.875 0  0.1923352255960667 0.04433356818308509 0  -0.2648492676413036 -0.2446628498957149 0  -1 0.375 0  -0.1917288108870266 -0.04736356680330597 0  -0.6621354862843372 0.4801261612524104 0  0 -0.07736776745332727 0  0.08774174057748575 0.2791003426325995 0  -0.375 1 0  -0.2328852090637932 0.4454274902497702 0  -0.1372444149738858 0.167543210702233 0  0.1396924985622989 0.5718162886467818 0  0.144328251742342 0.2062217380309952 0  -0.496189300316859 0.2839189417731846 0  -0.05666735794433611 0.0172009338718317 0  0.8556571480735141 0.3744122368912903 0  -1 -0.125 0  0.2911751991528894 0.8433276743127353 0  -0.1228425521789628 0.3361913915450163 0  -0.125 -1 0  0 -0.7575037395175259 0  0.07821397079968176 0 0  -1 -0.375 0  -0.375 -1 0  -0.625 -1 0  0.7474787146812756 0 0  0.625 1 0  0 -0.2918843213980812 0  -1 0.625 0  -1 0.125 0  -1 -0.625 0  0.3284075310660084 0 0  0.004929205892015135 0 0  -0.125 1 0  0 -0.006571003003944568 0  1 0.625 0  1 0.875 0  0.8749999999999999 1 0  -0.5726577932742932 -0.6860744245168577 0  -0.006400256107255234 0.1795932458386515 0  0.3774733543986106 0.2718296336209171 0  0.6626941313889532 0.2998104446622677 0  -0.8585399650559719 -0.6528632155887935 0  -0.8671784935601836 0.7910202935327916 0  0.4434431455132225 0.5138666303682268 0  -0.4059940500708256 0.86160873324605 0  -0.7821727379298027 -0.8779668524689368 0  -0.873260672777832 -0.7883547198986097 0  0.1577412238790412 0.849417812102231 0  -0.675449951812221 0.1614949108219521 0  -0.5985428261031429 -0.06597619992108467 0  -0.8626134152544928 -0.06275402402704555 0  -0.3112655735912121 0.5789735172215592 0  -0.4395391908763341 0.5847270019654546 0  -0.3970763028782673 0.3484579570448391 0  -0.6356887024698082 -0.2243435726722889 0  -0.2965293629918073 -0.09842081347734701 0  -0.6501606645350085 -0.5995864714911286 0  0.8637029040558833 0.267459084249198 0  -0.03775033393973079 -0.03468802690882034 0  -0.0651735986582445 0.1311974765268634 0  -0.1454130994244071 0.4542125606408553 0  -0.1392368355746867 0.0365386754699867 0  0.5426776576306243 0.06494561770646697 0  0.5908632478426533 0.3682456967783919 0  0.6975552077779419 0.7802151057027139 0  -0.7973719823189114 0.8840963301510953 0  -0.6559409390677706 -0.4410966894171537 0  -0.1229117943257092 -0.411329778710973 0  0.8753561024876952 0.4935042063415876 0  0.08465882238888288 0.1016672834415714 0  -0.6705048567594714 0.8723237511999626 0  0.4686575044116699 0.3609255860187481 0  -0.03368440470442804 0.04381321141345117 0  -0.4246951194803721 -0.4553124316946579 0  -0.3812961318787215 -0.2834358479242923 0  0.3364918442415308 0.4963604472252128 0  -0.2169552615521781 0.219495961235295 0  0.7138273366800583 0.539054839422156 0  0.2761296706349593 0.3708696487598998 0  -0.3821138965051169 -0.8564185731294193 0  0.1127472809871248 0.6962274402221996 0  -0.2946639616941343 -0.6241037600394838 0  -0.4531059519892158 -0.6318836643432595 0  0.305356391424879 0.7035276246484942 0  -0.8814026493219851 -0.17754485043702 0  -0.1852397058264111 0.8619100544562611 0  0.4661812204703087 0.1675306805634603 0  0.2861798974479245 0.04466065771779983 0  -0.1508238902291031 0.673101211854315 0  -0.01353557883229091 0.7225914370798555 0  -0.05487200038084453 0.8814800776215878 0  0.004233854393354539 0.4917056191695328 0  -0.4128359723017898 0.1649767471072612 0  0.5575272771211546 0.1354271001967227 0  -0.4890621291493512 0.6937396549943402 0  -0.8583330842472986 0.3404575118567034 0  -0.09659644755731189 -0.546559735545901 0  -0.0298817028106528 -0.5585577751447302 0  -0.2271178553149646 -0.3042406398627369 0  0.8710328348533164 0.1513749888928803 0  -0.1751046896471905 -0.6700283172189347 0  -0.8925472668219392 -0.5345109536100199 0  -0.3016121081192189 0.3578032713477755 0  -0.6875084204639625 0.5853303333905115 0  -0.9014243392556416 0.537152156391246 0  -0.9018651201840842 0.6657766627447896 0  -0.6627845480887581 0.07768006010341022 0  -0.8670172394483631 0.03062783833616103 0  -0.8944780844581282 0.1715983364797677 0  -0.1456384007421186 0.2502221836690887 0  0.1695152001112577 0.4649421061947882 0  -0.0471275392147681 -0.1314693247564997 0  -0.7614608094805013 0.6783158736701238 0  -0.6137256098611004 0.7075318181912412 0  -0.2803492239209172 0.08606716476034268 0  -0.2616224358792298 0.6634339099545209 0  -0.03322280480122878 -0.006289919651047715 0  -0.5015718502040077 0.881503328683964 0  -0.4939237423540198 0.5059519426565325 0  -0.3158953624763192 0.1562896917868811 0  0.001108920474638791 0.02899764573847817 0  0.7849827462944646 0.6895677213678317 0  -0.4765088323480663 -0.8301329401731895 0  0.2872470074085746 0.2016507316762974 0  -0.1490915849915916 -0.8662009445147797 0  -0.06530632385586718 -0.8316091392559525 0  0.4529086795081362 0.7151996214696625 0  -0.1243045264490538 -0.302211444785864 0  -0.2904762959813382 -0.02916552233629789 0  -0.8953667891110829 -0.8982815311433489 0  -0.592295969700793 0.2497046140059638 0  -0.5008766786359655 0.09453694512501111 0  0.4979923052384252 0.8314391186013513 0  -0.02940172477709141 -0.2648257509571261 0  -0.3165803123800915 0.8806874382623359 0  -0.1642618478788724 0.09051936424960574 0  -0.4938367601630395 -0.03561167315891562 0  -0.4146198568408918 0.01369211831324405 0  -0.3183940573598747 0.02993312817381887 0  -0.4091394527861195 -0.1279778119449989 0  0.8908271635686721 0.7017329940294343 0  0.795203647291459 0.9125435676921946 0  0.5866918115520617 0.2125021236518035 0  -0.5738687579942664 -0.4826271885904422 0  0.6075332482730701 0.7137352712148564 0  0.6822137932007797 0.8911860159197972 0  -0.05800667901348141 0.3267186225544669 0  -0.9039505017863703 0.9062432597549236 0  -0.1432332809056009 -0.07500813225703093 0  -0.1830443316098468 -0.1969661103018019 0  -0.273189537718
[...]
<PointData  Scalars="w"> 
<DataArray  type="Float64"  Name="w"  format="ascii">1.3381203187039107e-10  1.0029786601984632e-11  4.3922159922993182e-10  2.9290916143565266e-08  6.1602308267963389e-10  1.5544022999815407e-12  8.4938095711654983e-12  6.3602219571936535e-11  3.2749925030077753e-11  1.8795738546323864e-11  8.6838921893195181e-11  8.0226885179870329e-11  4.7489795911271551e-10  2.2726793239221384e-10  8.2093676760143634e-12  1.9407711757555212e-09  8.7787425538745494e-11  6.6385658769502023e-11  1.3072418613424440e-10  2.8079888518371423e-10  5.6210821830852817e-11  1.0341376260857973e-10  5.8560478194042935e-10  2.6140929277208816e-08  5.0834709484958257e-10  8.5736955720226288e-11  7.7904346652979321e-11  1.5475965193379311e-10  6.5264099403541171e-11  1.6979899858910908e-11  4.7401758493340284e-10  7.7362390227461047e-11  1.9190483265518451e-10  1.5107022422107428e-10  5.4814311120294801e-10  2.3849477006409411e-10  6.7702160466375431e-11  4.2595443962817595e-10  5.8399246979052779e-10  2.7909173100167738e-11  4.4076094987789269e-11  8.9132942564818928e-11  7.6899670318342531e-11  1.6015089048430529e-11  1.5141521175030427e-09  7.6612645128218310e-11  2.8486226043408612e-11  8.3629663716028172e-11  1.3787700056545503e-12  8.3388047772808412e-10  2.8824157679814524e-10  2.8031306573778771e-10  6.9874630559563629e-11  2.2885071214473168e-10  2.1284307492596259e-10  1.5868717165613928e-10  2.8006285701984701e-10  8.2402071646433216e-11  7.0939831806223368e-10  2.3171718384522730e-10  2.6624314227591685e-11  3.3013092016297142e-10  3.4356724740976124e-10  1.1514129410491425e-10  4.5769349305958508e-11  1.5541074218307491e-10  5.4710871557195326e-11  1.5224072667305148e-10  2.2221845569780070e-10  3.8299909454059089e-11  5.5264490596967930e-11  5.2563640166364813e-10  4.7054676750089214e-11  7.7836330113395011e-11  1.6206262823981964e-10  1.4262158074778932e-10  2.6288820548964333e-10  2.4256083257955154e-10  1.6142958694189176e-10  1.5679053839255213e-10  5.5847046775975367e-11  2.3903627844615772e-10  3.7738387449814863e-10  1.7764043287652619e-10  2.4258577767811886e-10  1.0275105960718056e-10  3.6155259358778273e-11  9.7966707315753184e-11  7.9743638569692581e-11  2.2056556321884893e-10  6.0381509022731816e-11  8.5411159625651093e-11  6.3382550476369338e-11  7.6546925824203110e-11  4.6609599599961294e-10  1.7474035462085234e-10  2.2970927789730163e-11  9.3515898253148133e-10  2.2205699597691063e-10  2.7659193924330243e-11  2.2438089082052027e-10  4.0046312806088693e-10  7.0707444566463202e-11  8.6570842581842203e-11  1.2381915658275890e-10  5.5365873220602479e-11  2.8444849650243431e-10  6.9499686461554664e-11  1.1983094852147761e-10  5.3568910343877708e-11  3.8730202009769882e-10  1.9284086370044640e-10  3.0356933517483321e-10  5.4301011909998085e-10  1.2121949413421225e-09  1.1704200750005236e-10  1.9040839302972273e-10  8.3195288644199047e-11  4.5470276585295861e-10  2.3613300815691373e-11  2.3567295463948372e-11  3.0704400395803751e-10  9.1329757641632723e-11  4.8121393790666961e-11  5.6010273328291113e-10  4.5748095609421454e-11  9.1670700864328354e-10  1.3161789815097695e-10  6.4709194735761324e-11  7.4569761170796038e-11  3.6091401732799286e-10  1.4027825829882225e-10  4.8060964738975315e-10  1.1136021350577924e-10  9.1221363417081064e-10  3.7038135596119923e-10  8.7288334267803159e-11  4.4120459154660711e-11  1.3672215230773434e-10  2.4521060736363079e-10  3.8594492803928473e-10  6.8360048393289595e-10  7.0950898381368092e-11  1.0140669145977137e-10  5.6772840300786348e-11  6.4622450922134439e-10  7.2590069473771624e-11  3.7881488191814631e-10  1.1882834452719808e-10  9.9371623845719179e-11  1.7259404363762241e-11  2.8355484432293363e-10  3.0205166161545160e-09  4.7833095878895687e-11  1.9414434744008745e-09  6.6498270643770010e-11  2.1187051454709649e-11  2.2366263447134335e-11  1.0069546965087575e-10  6.0950047336148162e-10  4.7099894510368842e-10  1.5043716621505233e-10  9.1689034631882126e-11  1.3864798917528829e-10  1.7604336384659666e-10  4.8382943339788048e-11  6.5726872827050221e-11  1.7906929338513152e-11  4.8641187680451173e-11  2.2350957091599480e-10  8.1571650016450236e-11  8.3962382764882725e-11  7.5468655693578734e-11  7.6727003588337960e-11  4.8421171378186585e-11  8.0626548505357421e-11  4.2878856687131875e-10  4.8811175255849468e-11  1.5121096586697782e-10  2.3167202161464827e-10  5.6301182611904092e-10  1.7249259700228031e-10  3.2554478126750864e-10  1.3798709473152219e-10  1.3104121657082814e-10  1.2651892033778374e-10  1.8780203200759003e-11  2.2576010615111085e-10  6.4333617247824839e-10  2.1448135892331629e-11  2.9223622620795553e-10  7.3292315328129817e-11  1.4117119549535051e-10  1.6359830184343417e-09  1.1933133323948735e-10  1.5866252964332703e-10  2.1355640368271120e-10  2.7153043390913656e-10  8.8470795647844113e-11  1.9391497403819783e-10  3.4270292760452459e-10  1.9251303603581939e-10  2.0195569943543607e-10  9.0772543082901244e-11  1.0316460890630568e-10  8.7556230132654348e-11  5.9683632925209138e-11  2.0250170275619330e-10  1.0130777346302407e-09  6.3938084252545679e-11  8.9356773192457832e-11  7.4399230826571321e-11  8.9424309688045408e-11  1.5653706941441541e-10  3.4641689595622363e-10  6.8678979767468086e-11  6.3719084938092261e-11  7.4135166164344087e-10  9.0537782168810093e-10  2.8385683264423718e-10  1.9334387755707213e-10  7.9011006990499107e-11  6.4375260560295834e-11  2.8411360319474066e-10  4.6971084727591775e-11  6.6055296311510507e-11  4.3721055350647833e-11  7.8181535044518714e-11  3.0265930347396222e-10  7.2206316830826251e-11  2.0634358209970530e-10  1.5503996977398901e-10  1.0989137052358560e-09  5.1799204683917975e-11  1.5621932554417627e-10  1.1708593313692182e-10  8.8916677908004691e-11  1.2090897510586898e-09  5.9877536442818220e-11  7.0812649827545641e-11  1.2111463408932091e-10  2.0760571512223838e-09  3.4700240075529051e-11  6.7002359421019499e-11  3.1344829691201836e-10  2.3386637944233990e-10  3.2833052453050439e-10  1.5420457376230765e-10  2.0893333335543716e-10  3.7801287936151477e-10  2.6242617136848163e-11  9.0601030477225404e-11  1.0877267287207404e-10  3.2560350771481557e-11  2.9609254483114951e-10  3.6223743805404645e-11  3.6131998261409656e-10  1.2388358554171592e-10  1.0023957078889875e-10  1.9258373101320349e-10  4.4403920684320772e-10  6.4007559838348249e-11  2.4001427301748939e-11  1.3429173941890423e-10  6.8846749101534421e-11  5.0575811091263399e-11  6.3726768887808264e-11  1.8134174858776587e-10  4.2378781987680949e-11  3.0622368960041055e-10  2.6027900773288704e-10  1.3827776298029448e-10  1.6291443051108775e-10  1.2403262042781894e-11  6.8831877212366009e-11  1.5606254360652662e-10  1.3028326856096744e-10  6.3889655324013840e-10  3.1002645449665557e-11  7.1160379238127161e-11  3.0022366812705655e-11  2.8876074510409551e-10  1.0788303044560841e-10  1.4922049292104046e-10  6.8801648675903786e-11  6.6935985061331209e-11  1.0963382322233090e-10  1.6921361535563819e-10  2.3191621045927209e-10  2.3850180897555418e-10  4.9996285524174353e-10  1.9951212662490351e-10  2.1041451874809034e-10  1.2386114917832482e-10  7.1623499445962334e-11  1.4800108042046866e-10  1.4656737137234672e-10  9.5022174536717293e-10  1.0971059585115053e-10  5.4476105418706033e-11  4.3722691641641565e-10  2.4514522144327056e-10  1.5858498105344420e-10  1.2720219439778027e-10  2.8831503341859682e-11  4.0728129003074866e-11  7.9427936286034275e-11  8.1555546510030370e-10  3.7603929643623736e-10  1.6304527876417628e-10  1.0724479018032382e-10  2.9598304068144948e-10  5.9104966176600688e-11  1.0182879877005453e-10  4.1642582262904512e-10  1.6270773779105726e-09  8.0209535934665931e-11  2.9687833659126765e-10  7.0238436318479011e-10  1.7425998877112389e-09  3.0041800683838656e-10  1.8548236512748772e-09  4.7053858533381609e-10  2.1260509141195776e-10  1.3198657192043025e-10  3.3298662193883233e-11  5.3250884894966671e-11  1.1660136079091626e-10  1.2494066385939649e-10  5.1375894646388983e-11  1.0699074018305445e-10  9.7077991402235520e-11  1.0287900341327707e-10  2.5009587918094540e-10  6.2330409163210503e-10  3.2490520925528307e-10  1.5399141401500540e-10  8.3770578249084164e-11  5.4987320777295081e-11  5.5554557413206668e-11  5.9923062593664820e-11  1.5728902929167759e-10  1.8069954031697189e-10  8.4187222516490884e-11  8.2531006202396127e-11  1.9868974994282343e-10  1.1870048191509099e-10  6.0277897501835490e-11  4.8393569081473774e-11  1.0762533027973846e-10  2.8618172803710621e-11  1.4550077355196507e-10  2.9131076749739622e-11  1.6108885996284118e-10  1.7629630924118054e-10  1.4327802776002632e-10  3.2988428294293800e-10  7.0683921562832795e-11  6.7860343542752087e-11  1.1402694426516240e-10  2.4140632356535280e-10  1.3715740985295426e-10  2.4224669549652346e-10  9.4431699043317364e-11  1.1200556903202280e-10  1.1879741327106876e-10  2.5894912392619735e-10  1.2759162429748375e-10  2.8807871907986840e-11  9.7409658693003670e-11  9.9840193595983595e-11  1.1752537376828695e-10  2.0170642740564850e-10  1.4423003163598919e-10  2.9857853217707929e-11  1.0990656964874683e-10  2.1971000369971264e-10  2.4490969019867277e-11  3.0247306807362872e-10  1.7441468638515817e-10  5.8633801218772738e-10  1.0464499385519075e-10  1.8478312833157985e-10  2.7456352090634908e-10  6.1592473157212516e-11  9.0748046467868172e-11  1.8976734810435762e-10  6.1663286356663989e-11  4.9920112538972722e-10  1.7116444440812839e-10  7.9691037743493828e-11  9.4194294074291776e-11  1.8142077802034513e-10  5.9113960127173494e-10  5.8017360580739528e-10  1.4731037142043419e-10  1.4031556743249812e-10  1.5610547597420958e-10  3.0688456358118770e-10  3.7982914128935204e-11  1.7502478516093915e-10  6.3967315958223141e-11  1.0848097922996926e-09  9.8829687864130903e-11  3.8203794931042303e-11  7.0722046468086717e-10  3.4290499653947995e-10  2.1716917411202870e-10  1.7233299352643545e-10  5.3507548909933045e-11  1.2742593673778728e-10  2.7037057262442290e-11  3.8888237362086171e-10  6.6406415070460820e-11  1.0494737402582409e-10  1.1188085185417128e-10  5.1463125693330469e-11  3.3220905221519303e-10  3.6433680794236376e-11  9.2744643597919886e-11  2.4646818989622154e-10  1.7053560442895310e-10  8.1510511895486988e-10  7.8196242269763541e-11  6.0886606584390448e-10  1.2427667131545236e-10  4.7938571419118722e-10  1.1262455942378633e-09  2.4959636456164219e-10  1.4774236794752839e-10  2.3381833552541815e-10  6.2012434775246349e-10  3.1063832462382489e-10  5.9923692049660250e-11  4.2087613387601563e-11  1.8008526581524545e-10  4.6036752224188936e-10  1.4900501999423409e-10  1.0221591884551300e-10  1.3125920326289189e-10  6.6907513789678981e-11  5.8553319900540383e-11  1.8015359697976307e-10  4.8377475975462975e-11  1.7556457221899606e-10  8.4400864675160799e-11  5.4507859043245402e-10  3.9264561168927876e-10  7.2276519457321324e-11  3.6290465364237288e-11  3.7227013561402070e-10  7.0540290127122436e-10  2.3857513710892402e-10  1.3167388536607782e-09  3.0983745645602298e-10  3.5330847186561266e-10  3.8981578879770737e-10  2.8473638339436785e-10  8.3577372290794574e-11  2.7266838457039141e-11  1.6476509253885983e-10  8.0528783184243451e-11  1.7407126517457342e-10  7.0993622189614756e-11  9.9511676344848055e-11  3.9285270244583375e-09  1.6344800368369544e-10  7.1343409594525525e-11  6.7219533607550547e-11  4.6575201910527593e-10  2.4233603143943676e-10  1.9205187953924662e-10  2.0319368701654357e-10  3.8710979511707773e-11  7.9476978783012062e-10  2.3271491627421721e-10  5.2301592605117653e-10  2.4035993131951224e-10  1.9309297559097957e-10  2.7063479252606857e-10  8.7368068899159841e-11  3.1148486826249965e-11  3.3837584661351758e-11  5.3066990590076710e-10  3.0666654629105555e-11  9.1978013320845122e-11  1.1792436231882632e-09  6.5488673849434680e-11  2.9023782325026325e-10  2.2625579495603673e-10  5.6565627333842942e-11  4.9050509259514137e-11  2.0671587734541225e-10  2.7494674293194367e-10  4.1651357618018580e-11  1.0250728067369559e-10  1.3321660621806603e-10  6.8946899094030640e-11  1.4498639378352040e-10  3.2124168747040751e-09  3.4208589444946888e-10  3.0595260541299183e-10  1.1544439232339680e-10  9.1943815806127890e-11  1.4909934539516027e-10  6.5806656688915071e-11  1.1679749661281446e-10  4.0849724248680596e-10  7.6399269385070722e-11  1.9033881076483152e-10  1.8164514424993115e-10  1.4058821206145257e-10  4.0802680635596329e-11  5.9257790849389108e-11  4.1789902765814461e-11  4.2575018529695241e-10  8.6630356538455625e-11  2.1641126594253395e-11  5.8924088295154929e-10  2.6849325492077598e-11  6.0285823910347202e-10  1.1525542945085384e-11  3.2632785186904279e-09  1.9277285065944974e-10  2.2647917487925805e-10  8.0351931804801211e-11  2.6526545734812818e-11  6.7648263244029182e-11  2.3473478812736548e-11  1.6671419859968469e-10  3.5909635898716464e-10  2.5160285988524664e-10  7.1857586110156498e-10  1.6324851932034537e-10  7.6037399490587943e-11  5.3641717058260073e-11  5.7780123976976581e-10  4.4938199967367287e-10  8.5724150990378766e-11  7.9631948107019026e-11  1.1779203065587914e-10  6.7935663417942747e-11  3.8253434506803715e-11  4.3511627708698301e-11  2.7522617691500465e-11  8.3229041901026656e-12  1.6076483518271522e-11  8.6736865979437676e-11  2.1531429913469811e-12  1.0466449064083500e-11  1.9537336276372726e-10  4.8013102388819397e-08  1.6890050156483419e-10  3.4001341658876084e-11  1.8598212585051842e-10  7.7116643185366970e-11  9.4566131890235103e-11  3.8006302354361451e-11  1.4721940024703711e-11  7.3614822708229323e-11  1.3313967386100280e-09  6.9824913667816135e-11  1.7824562819795881e-10  2.9290522499463403e-10  4.8284044608533301e-10  8.9822455424843137e-11  9.2532817448225438e-11  5.2822223365431627e-11  7.3576698020773891e-11  9.0091763461963918e-11  4.6485648081197245e-11  5.6527784448575707e-10  5.3188003627520503e-11  3.0275703589453909e-10  7.2772037828042448e-11  1.1558400822056522e-10  2.4970850960108304e-10  3.8636053147886527e-11  4.8780181642536884e-11  2.0708773834797162e-10  1.0019081084339814e-11  9.4391516824361522e-11  8.2797448621425601e-11  7.0875355544758926e-11  5.3930788877781250e-10  1.8939049068890329e-09  2.8673456721774005e-10  3.0989586790809972e-10  8.5818999916169625e-11  5.8577753929839240e-11  2.0282844211871309e-10  9.8579871149239054e-11  8.2680357260122723e-11  8.3733873189333743e-11  1.5417493741182179e-10  6.1631311172467260e-11  4.5081234606712270e-11  6.1170984086331348e-11  3.4997312522791907e-11  7.5289491346867737e-11  2.0622874064620946e-10  1.5752822057860121e-10  1.0717849638297699e-10  2.5055181895905945e-10  3.8855554257987281e-11  1.2254094655263899e-10  5.4239575047716234e-10  5.4577723397066861e-11  9.7419575798650202e-11  1.2873423888727002e-09  5.1735210342068478e-11  3.6085324215724822e-10  6.3134561131437509e-10  1.6812957595136796e-10  1.0777227782931665e-10  1.2295548298189340e-10  7.8249517416995667e-11  4.2831472768835855e-10  3.0518382453141129e-10  1.7581667083273489e-10  5.3015312905751761e-10  4.2745614882201028e-10  9.5304765343698560e-11  1.6090028472807550e-10  5.6782137854667349e-11  7.1129522453426911e-11  5.7399978929924746e-11  1.9439387096079276e-10  3.7806534562922555e-10  2.9545119699044450e-10  3.0450079991885832e-10  7.0813908816187453e-11  2.8896333649369594e-10  6.0366512881740858e-10  1.3633751007172973e-10  3.6425464564948730e-10  1.5293583846642223e-10  1.2359019610445370e-10  9.4457522766987229e-11  4.7049311057531844e-11  4.6283288822293202e-11  2.9830166909152375e-10  5.0420827032088706e-11  5.8190457910567740e-11  1.1119001052403011e-10  3.0533970529030248e-10  2.9677437541518749e-10  1.4019553039393017e-10  1.0856273575476797e-10  7.8289680437869481e-10  6.6588372322702452e-10  2.3120035481366017e-09  3.9468094003380333e-10  2.5718161675657737e-10  6.0724583634557109e-10  3.9118340734539753e-10  1.7354095297473535e-09  3.4097782570395859e-10  2.0301907903592611e-10  2.8314410786696813e-11  1.0110255050679214e-10  3.1062717918102227e-10  4.2444311297660771e-10  2.4115159258305560e-10  6.5209292283313615e-10  2.4362807661568962e-10  1.9059995832805567e-11  4.0298800055051481e-10  3.9661745420961988e-10  3.3465927847515513e-11  3.2628128323504092e-10  3.9219630468671814e-10  5.1062005915243517e-10  1.4247840922309975e-10  6.2117117946076077e-10  1.6793758168672804e-10  4.0928314949416934e-11  1.1776921929508915e-10  1.1402109267079113e-10  3.4309143872127101e-10  6.3640148643959597e-11  2.0664411512813002e-10  1.5092828961097918e-10  7.0577278538262237e-12  2.4401795055669071e-10  5.1469417551152546e-11  8.0151757399930946e-11  1.1404470894029387e-10  7.2775427555958480e-10  5.3246465929117344e-10  2.8415211682348865e-10  1.0948520847458363e-10  1.0405277145523481e-10  1.0863056650952511e-09  7.5516424740433011e-10  1.2036976348465620e-10  1.2736197854334238e-10  8.4533192874016469e-11  4.3167488263127109e-10  1.0806611058013175e-10  1.3799453006899702e-10  7.5293756233027276e-11  6.3580880331142958e-11  5.7233705219014148e-11  1.2803586504178877e-10  8.9324860980837925e-11  1.1084736746322321e-10  3.1498225381486535e-10  6.1697024871424635e-11  9.6251504680569728e-10  1.0140182866284002e-10  2.2656116836948012e-10  2.0653345831995287e-10  7.2186980258574390e-10  9.9833263834790218e-11  3.4062314770526458e-11  5.1771674909119996e-11  1.3729382470104344e-10  1.4547237416254410e-10  4.3536331409256986e-10  7.3660103680398675e-11  1.2028696948462124e-10  1.9387329682365410e-10  1.1834064579989785e-10  1.9758620247627574e-10  2.8882143361435220e-10  3.0874861246039761e-10  8.1142630226764453e-11  1.6243877513554779e-10  1.2551234662516549e-10  2.0801842183532763e-10  4.8005185500720454e-10  3.7174334354600530e-10  1.9820433055638247e-10  1.5102200505384700e-10  9.7897795392883733e-11  1.4690413984349610e-10  3.1807760891155093e-10  3.5467967266731806e-10  3.3939501388383320e-10  1.7204968423994792e-10  2.0964105747812727e-10  1.7183228371962963e-10  1.1989384107007590e-10  3.5294144366780758e-10  2.6826937344263820e-11  8.5099843185971142e-11  1.1598170253139415e-10  1.1289461081502721e-07  3.4906961712508315e-10  1.4759580838473997e-10  5.8072970790329459e-11  2.5634645797182252e-10  1.2100729037102049e-10  5.0866981229777988e-11  8.8346762955741711e-11  1.9798354360125523e-10  1.8211798588350691e-10  1.6381943223616742e-10  1.5813329719956224e-10  2.5731704429175593e-10  5.0546534142713457e-11  6.9843220441895534e-11  1.5995064423208381e-10  1.1106111239604097e-10  3.0834683117872676e-11  3.3679875428126261e-10  5.3346551136000734e-11  5.2293110110248403e-11  1.6953165140809905e-10  7.8570459573147869e-11  2.0779063228519752e-10  2.9499138088249881e-10  1.3252328375608564e-10  7.3285915485704998e-11  1.4365218219636068e-10  8.2760624954960118e-11  2.9374288241638435e-11  7.6595163310314473e-11  5.4683868893970680e-11  8.2852009928699565e-11  3.5054852217378812e-10  3.9112796975169008e-11  5.3699238368404705e-11  7.9547821035137755e-11  7.8376389869779246e-11  8.3167449556088351e-11  2.6289099013999797e-10  7.7969293471993758e-11  1.6090495518527228e-10  2.1633915847920131e-10  1.0585059794072986e-10  1.4868383302805479e-10  2.9422845741477282e-10  9.9176947951889272e-11  7.2657966064270540e-10  1.3952873034211674e-10  1.2603356955182663e-10  1.4869943320792404e-10  1.7333662480302408e-10  3.9606715744650796e-11  3.4862799161550729e-11  6.4898079871660711e-11  4.2851662034074281e-10  2.2302257359913258e-10  5.6765325450866477e-10  4.7252023621185863e-10  1.0659653912635096e-10  5.8335644430573782e-10  3.4545993471853844e-10  1.6215868055319135e-10  5.8840144960066564e-11  7.8434516864241797e-11  1.6879342214547151e-10  1.9211032117634001e-10  3.6001325407031191e-11  4.4972150230533457e-10  2.4632935619066894e-10  2.9004195411392918e-10  4.7421501651470154e-11  2.9755205741994079e-10  2.2806410398504566e-10  1.2753801614772855e-09  6.4926888525357492e-11  5.1545041721810035e-11  2.2640006796122720e-10  6.1205254808241073e-11  3.5184593423345722e-11  1.1650723339545545e-10  2.1399609189530109e-11  5