<?xml version="1.0"?>
<VTKFile type="UnstructuredGrid"  version="0.1"  >
<UnstructuredGrid>
<Piece  NumberOfPoints="4852" NumberOfCells="9430">
<Points>
<DataArray  type="Float64"  NumberOfComponents="3"  format="ascii">-1 0 0  -1 -1 0  0 -1 0  0 0 0  1 0 0  1 1 0  -1 1 0  0 0.9999999999999999 0  -0.5 1 0  -1 0.5 0  -1 -0.5 0  -0.5 -1 0  0 -0.1608775713298009 0  1 0.5 0  0.5 1 0  0.1967448868031411 0 0  -0.3407316251397419 -0.1757236561047952 0  -0.3368233742777952 0.2244606874280864 0  0.1741870500776619 0.3461360836510124 0  -0.1853756148902388 0.5549300761281701 0  -0.5042905284326018 -0.5379694850226898 0  0.4905585457699387 0.2575994220047542 0  -0.06424029774048581 0.2008996106672403 0  0 -0.5061325913258391 0  -0.25 -1 0  -0.5616169063629456 0.5777314527508781 0  0.6618353998743266 0.6347929592693669 0  -0.1757614864793097 -0.5379936338717787 0  -0.5389707108609098 0.0257865032685554 0  -1 0.25 0  -0.2060070034803463 0.02379342309150958 0  -0.6545517507843635 0.3099144095578051 0  -1 -0.25 0  0.03935838150967049 0.5916938243094791 0  0.19515818190196 0.1288566672992854 0  -0.1358757322072938 -0.2201499042596317 0  0.3716301233548232 0.6147377293395648 0  1 0.25 0  0.5355652144809806 0 0  -0.75 -1 0  -1 -0.75 0  -0.6453828984311977 -0.3234225556219771 0  0.25 1 0  -1 0.75 0  0.02757118475249542 0 0  -0.25 1 0  -0.75 1 0  1 0.75 0  0.75 1 0  0 -0.02898318711980711 0  0.05436584592190442 0.142110482862373 0  -0.07759261711453702 -0.02783630396487272 0  -0.7011342689824034 -0.1323800022993411 0  -0.3215081077067645 -0.3475454333868303 0  -0.340543325217673 0.4375634459807162 0  -0.1001919522144406 0.7643051703525575 0  -0.3836382720417651 0.7027029111177339 0  -0.05481177299021132 0.3988570650251417 0  -0.07880575359312762 0.07185065752565055 0  0.3591795588062488 0.3698137283569562 0  -0.7166469299204764 -0.7305414010529904 0  0.4118653521819426 0.09014505365297612 0  0.6899382188949883 0.1922650101007639 0  -0.7475815634102209 -0.5277323799531146 0  -0.3878560118688652 -0.7106923460111777 0  0.7215115425351103 0.4197607794059697 0  -0.7759186455899908 0.09740066886621 0  0.1971744457053964 0.6986652884881773 0  -0.1987597252732584 0.2884787367901039 0  -0.799070528036663 0.5776713914499469 0  -0.7168953190526355 0.766523840911959 0  -0.05055985806434096 -0.3739105348883523 0  0.5851491081595919 0.8168460823606783 0  0.8205737725459408 0.8063552392774992 0  -0.1061550452088966 -0.6971594773438899 0  -0.5145820128881095 0.1631688459927711 0  -0.2017278279242493 0.1255886484599139 0  -0.3591249923061647 0.07551754712823115 0  -0.3651220282426144 -0.05221981802906642 0  -0.4968025238254962 0.3954849239202303 0  0.375 1 0  1 0.125 0  -0.01174181915341534 0.07112645609666714 0  0.0623701147862493 0.3917588522412419 0  -0.1712752034403454 -0.1223691653761576 0  -0.2432369338308752 0.7736525035620923 0  -0.625 1 0  0.5336331622999791 0.455031724841093 0  -0.5766644636178789 -0.8302152921828586 0  -0.257291718511664 -0.7833946713496307 0  -0.3195828560476424 -0.5087614907439715 0  0.8339535183342763 0.5961906567640261 0  -0.5489630928439559 0.7909373910648954 0  0.125 1 0  -0.06737504063072967 -0.09341719025490522 0  -0.494592112007502 -0.1431604664275215 0  -0.875 -1 0  0.02961896777590399 0.0415299364251915 0  1 0.375 0  -0.875 1 0  0.05741331152363843 0.7939393265660768 0  -0.1952067392108346 -0.3741447169580812 0  -0.07290435595614855 0.5709985581690804 0  0.2368829377628079 0.5179980031825223 0  -0.7923256879317762 0.2299535555117335 0  -0.4953883456296798 -0.3894377469494771 0  0.0002746327852123962 0.2710258207437421 0  0.5104779855004966 0.6407416296114763 0  0.3993741675539964 0.8075010507862282 0  -0.8062676619960772 0.4247768273447377 0  -0.06383629825914393 -0.2207858774155191 0  -0.7095844322795805 -0.01384753729569069 0  0.0905494352781471 0.05242706781044479 0  -0.478270327941872 -0.2513820014915467 0  0.7238441773256066 0.08315243214909732 0  -0.8086584439357055 -0.4115377558933731 0  0.3375617468087745 0.1537790301080013 0  -0.7944492777768196 -0.25097523172598 0  0.2364509028865117 0.2543920686420985 0  -1 -0.8749999999999999 0  -1 0.875 0  0.1843322174460795 0.04794410338141253 0  -0.247332104190615 -0.2292256679026664 0  -1 0.3749999999999999 0  -0.1709344510617938 -0.04174329599946858 0  -0.6490534786047019 0.4679450710175846 0  0 -0.07736776745332727 0  0.08062371327043596 0.2597926419474806 0  -0.375 1 0  -0.2170943250536681 0.4248746124525573 0  -0.1199518360189989 0.1500499313713592 0  0.1335569043553522 0.5542887609370429 0  0.1320820113507024 0.193714116492227 0  -0.474911508940536 0.2700148906365959 0  -0.04612046285702088 0.01384953490190026 0  0.8511844168722309 0.3711268968324268 0  -1 -0.125 0  0.2859987481949985 0.8369321521985246 0  -0.1107456256616959 0.3130330419644801 0  -0.125 -1 0  0 -0.7575037395175259 0  0.07821397079968176 0 0  -1 -0.375 0  -0.375 -1 0  -0.625 -1 0  0.7474787146812756 0 0  0.625 1 0  0 -0.2918843213980812 0  -1 0.625 0  -1 0.125 0  -1 -0.625 0  0.3284075310660084 0 0  0.004929205892015135 0 0  -0.125 1 0  0 -0.006571003003944568 0  1 0.625 0  1 0.875 0  0.8750000000000001 1 0  -0.5634343498158846 -0.6768637534955927 0  -0.004536382551134706 0.1601080630655509 0  0.362454309767367 0.263429359095643 0  0.6529425906644056 0.2948434268674601 0  -0.8550398865745992 -0.6471542498273398 0  -0.8634638217579156 0.7871444103377584 0  0.430905969109862 0.5018883683351495 0  -0.3988410786057615 0.8556871459847929 0  -0.7791191207385663 -0.8751424153184264 0  -0.8708313374651006 -0.7847567276766687 0  0.1543759520441672 0.8422224890571951 0  -0.6585674247915476 0.1532556484702587 0  -0.5778114837045615 -0.06393227452817288 0  -0.8546115049607322 -0.06240493070725349 0  -0.2964601554424272 0.5623059346605234 0  -0.4241056336992245 0.5701309564075809 0  -0.3762440925699967 0.3314143136810828 0  -0.6187212569484436 -0.2164623396535594 0  -0.2728196371198765 -0.08995679709830355 0  -0.6407098369334694 -0.589201411467819 0  0.8595633614934043 0.2666947791426929 0  -0.03275358199624249 -0.03296613034255114 0  -0.0546312020679945 0.1144732061623168 0  -0.1338532712271095 0.4321171986178052 0  -0.1196800759236594 0.03233222237588582 0  0.537785977144715 0.06485954050342639 0  0.5793210621221807 0.3602650786908683 0  0.6917974349105338 0.7754060393489839 0  -0.7934875525343233 0.8811619135499499 0  -0.6436678507358042 -0.4298381611264393 0  -0.1153752688622752 -0.3976895045353772 0  0.8719660408877513 0.4896036731346385 0  0.07603934600424664 0.09379280065042304 0  -0.6647673565985149 0.868176625471213 0  0.4548052166602171 0.3512708882457108 0  -0.02623121299352537 0.03576508193855016 0  -0.4092435154992598 -0.4406340845865966 0  -0.3619302561482541 -0.268934873700036 0  0.3239645034388854 0.482115066659707 0  -0.1960713876183465 0.2015733843604013 0  0.705731837844875 0.532119693531715 0  0.262053250755395 0.3563296261704182 0  -0.3768295856261026 -0.8516612432978219 0  0.1095248906265958 0.6821926105180147 0  -0.2845718223623394 -0.612238253904726 0  -0.4416937324345755 -0.6204721860623257 0  0.2967302604023996 0.6925747903421445 0  -0.8750659638351621 -0.1748017135284098 0  -0.180266071113738 0.8547321062432949 0  0.4547787123676454 0.1638577707884108 0  0.2802923476275725 0.04678750655615312 0  -0.1426707919204404 0.6577218207554648 0  -0.01137081578779952 0.7088796344235752 0  -0.05344805484693895 0.8748584328887066 0  0.005509387848927101 0.4699867734543934 0  -0.3877520415673409 0.1538364648414908 0  0.5491924207009493 0.1337082706299889 0  -0.4763518164522091 0.68273790920887 0  -0.8515900017731368 0.3332486367896598 0  -0.09146299183432723 -0.5364161444696296 0  -0.0298910083929829 -0.5520986575273306 0  -0.213180786611132 -0.2880164692921039 0  0.8683904604957732 0.1519304304179859 0  -0.1693443900197568 -0.6609918626054605 0  -0.8895985608063179 -0.5289561071492116 0  -0.2819582408921481 0.3385729908712801 0  -0.6766738918859716 0.5746055550785052 0  -0.8975340854071403 0.5316262496213769 0  -0.898440696381593 0.6610666616600425 0  -0.6445446322217073 0.07285588232833944 0  -0.859176201592127 0.02882949588277149 0  -0.8882627518698722 0.1682576833649878 0  -0.1301356415564749 0.2290131836574035 0  0.1607014412579644 0.4463681066939517 0  -0.04349043446551935 -0.1258177410945456 0  -0.7537337878811613 0.6704255985122516 0  -0.6028791878372842 0.6984056693685103 0  -0.2544004504775806 0.07864758745379991 0  -0.2498743113832558 0.6490313418115382 0  -0.02738030368131785 -0.006413866600366986 0  -0.4946877507412774 0.8769430411863064 0  -0.4772168515463145 0.4909741729662012 0  -0.2905166196493783 0.144263454544393 0  0.002339746574280497 0.02358660086371882 0  0.7797476691089413 0.684620258257681 0  -0.4704162940169272 -0.8247013728779604 0  0.2720172457013001 0.1952216916781574 0  -0.148663933165526 -0.8631145589992235 0  -0.06577759934250849 -0.8297589723668327 0  0.4440247229157587 0.7064552210417793 0  -0.1163608221835164 -0.288785971564083 0  -0.2648994172112649 -0.02608610960830296 0  -0.8940363767187459 -0.8967160911748409 0  -0.5731138080037834 0.2378768155613671 0  -0.4763045842194776 0.08799800033452165 0  0.491710837606084 0.8261490292098193 0  -0.02787512109694283 -0.260273135621795 0  -0.3103471966399221 0.8751534376116503 0  -0.1429572915375379 0.08050206386304173 0  -0.4694257961767705 -0.03467647990814664 0  -0.3880650193144061 0.01233416471639706 0  -0.2917488658898615 0.02770688404096101 0  -0.385058029057237 -0.1203595043799153 0  0.888257616705776 0.6986758520560952 0  0.792843356643305 0.9110083339469741 0  0.5766513927553073 0.2086574966104526 0  -0.5606996192654684 -0.4699759928956598 0  0.599439162655097 0.7067619393433201 0  0.6785270958780862 0.8886816217706238 0  -0.05098434349043831 0.303217537940958 0  -0.902224883512606 0.9047009686414479 0  -0.1274242987881744 -0.06712119201964022 0  -0.1688640276458899 -0.1826824359130002 0  -0.2523915996627791 -0.1436635922027909 0  0.03724114902289388 0.2015918713411723 0  0.9018540566035682 0.8941540
[...]
<PointData  Scalars="w"> 
<DataArray  type="Float64"  Name="w"  format="ascii">1.7372160929861524e-10  1.0307643195558600e-11  4.4515182386785813e-10  2.5595659982179912e-09  6.2463393476868369e-10  1.5669782504265165e-12  8.6741331713065220e-12  7.5505505142173493e-11  4.0715941823022148e-11  2.1135615378223081e-11  1.0494212413651263e-10  9.5948501110828343e-11  4.0242306505490277e-10  2.7317848852223638e-10  9.0764806539923227e-12  5.2780450238422721e-10  9.1579043403005889e-11  7.2377577961381817e-11  1.3113094597408563e-10  3.5569171552550136e-10  6.7898314995528219e-11  1.0538709140906685e-10  5.7871091501910002e-10  3.7396997304739647e-08  5.8420566050203152e-10  1.0819834651788440e-10  8.7674584843452162e-11  1.6994563348919130e-10  7.7014859702192789e-11  1.8931545076746770e-11  4.7065116944221977e-10  9.8159316953499486e-11  2.3980953641932020e-10  1.8081058941252975e-10  4.5555955131402468e-10  2.2795284551056473e-10  7.7719434693095372e-11  4.7392025685150696e-10  5.8928206105248624e-10  3.0855566534087118e-11  5.1152861274480560e-11  1.0706724689441066e-10  9.2031853829339497e-11  1.9615626929388126e-11  1.0479088391627608e-09  9.0167120645886031e-11  3.2079402230696819e-11  9.4834250714657574e-11  1.2504888696972412e-12  5.8820085720034383e-10  2.2147833557398272e-10  2.1383587548392246e-10  8.1872645921045933e-11  2.5557858191744208e-10  2.6119363565227882e-10  2.0069806464607170e-10  3.5497459648727897e-10  8.9752457565813217e-11  5.8113255147604282e-10  2.5281362798007335e-10  3.0704537799325664e-11  3.1625258207569827e-10  3.7889669828972021e-10  1.4363872073642563e-10  5.4005541489080522e-11  1.7746394321728681e-10  7.0847674661393346e-11  1.7672203104306545e-10  2.3374241369114143e-10  4.5514641591449063e-11  6.3908175407546901e-11  4.2569379980790470e-10  5.6091691544685403e-11  8.6812426123994697e-11  1.6950225894039877e-10  1.7049403223994304e-10  2.5909772306626945e-10  2.9175900496883452e-10  1.8300435511048303e-10  1.9305082480144651e-10  6.4707965269349908e-11  2.5231794161524338e-10  2.6336569092324924e-10  2.0190025054004562e-10  2.3525599531200758e-10  1.2325128747412704e-10  4.6422641492709446e-11  1.0965633063887968e-10  9.4027436956746310e-11  2.5492812389168850e-10  6.9978739425379080e-11  9.7912886416800723e-11  7.7421633146676321e-11  9.4575263339979604e-11  3.9075751437132774e-10  2.1005324351147959e-10  2.5173163789679600e-11  6.5232165932734296e-10  2.5637355371322908e-10  3.1497884104365973e-11  2.7615201762918045e-10  4.1864158748910697e-10  7.2215934001006797e-11  9.7727257149019451e-11  1.5755683310843061e-10  6.4877735455337185e-11  2.7556704074714128e-10  8.2968185056811376e-11  1.4566611521764615e-10  6.5194268053403328e-11  3.1163747790613995e-10  2.4444000924752515e-10  2.3202788636874177e-10  6.4449906327050407e-10  1.2142562337069655e-09  1.5115382375835472e-10  1.6573385333669834e-10  1.0379427902249094e-10  4.6032927459357466e-10  2.5532845815580282e-11  2.5623967887768226e-11  2.7820442917990255e-10  9.2751828009333168e-11  6.1022642552215282e-11  5.0399724521284748e-10  5.7308528899098865e-11  5.9734145617907741e-10  1.1933970373183777e-10  7.7645769158291549e-11  8.2991765394786016e-11  3.4476368900087170e-10  1.7390439060330462e-10  4.6642846276885793e-10  1.3497744162571627e-10  6.2132424140785949e-10  4.3725224318886601e-10  1.0848481382366145e-10  5.1979003290844481e-11  1.3117184718113359e-10  2.5699332640292508e-10  4.3509493181049589e-10  6.0545414152725846e-10  9.0679562891194592e-11  1.2071993038053596e-10  6.7917046657319304e-11  6.5800294616642826e-10  8.4692926204037051e-11  3.2166478797877036e-10  1.4686015626127744e-10  1.2398563089852515e-10  1.9711532623369062e-11  2.8402079921163129e-10  1.5720758344740545e-09  5.8111416420040703e-11  9.5857136692209323e-10  7.8011400909280102e-11  2.4166733475982272e-11  2.4031685058269727e-11  1.2188148503722894e-10  5.6300619347301323e-10  4.4912228760717671e-10  1.6129395756884644e-10  1.1306930892422153e-10  1.6603120056848056e-10  1.8637429899093160e-10  5.8245752741808112e-11  7.6360372853057113e-11  2.0188253350140690e-11  6.0059364264221035e-11  2.9231982430071756e-10  9.2861802401535593e-11  1.0668787841188422e-10  8.2968205134571006e-11  9.5989478599251323e-11  5.3339840296641390e-11  9.5240022309654156e-11  4.5821574990336358e-10  5.6077226372084971e-11  1.6429424706787613e-10  1.7107512346916118e-10  4.6708526933717956e-10  1.9872644201522245e-10  2.8403456835547725e-10  1.4377042040389649e-10  1.4514712094879410e-10  1.4765086844922448e-10  2.1009231214450479e-11  2.8140407369684548e-10  6.5166148454450359e-10  2.5303488427970062e-11  2.5226280195839578e-10  8.8503767429273988e-11  1.5806316634125042e-10  1.1096060743333349e-09  1.3879506212583600e-10  1.6554159600366777e-10  2.3351776517097529e-10  2.8997329223488827e-10  1.0468351085067539e-10  2.0521771246535826e-10  4.2019929089148734e-10  2.1772496771090702e-10  2.3933936188928012e-10  1.1092374111988217e-10  1.1201527817370133e-10  1.1393873804193318e-10  7.0349408995938953e-11  2.0904295257634159e-10  8.8739258620409085e-10  7.9015950233182063e-11  1.0932408459091836e-10  7.7870447146398785e-11  9.7287480308504157e-11  1.6304352707576242e-10  3.7833311735544973e-10  7.8836142821950303e-11  8.3794934524418208e-11  7.8434531360486539e-10  8.9267196429765753e-10  2.9623410217054745e-10  2.0048370643616639e-10  7.6117090831005539e-11  7.9535609882144447e-11  3.3827889361842183e-10  5.8241622375054886e-11  8.2695225795591721e-11  5.0007731807513779e-11  9.2957725466783739e-11  4.1552871822605916e-10  9.0564850655619880e-11  1.9894509880679466e-10  1.6579075150127862e-10  9.0632411912826494e-10  6.1355946009885565e-11  1.9777977390140728e-10  1.1590809742748783e-10  1.1286287812783137e-10  7.4609093188338072e-10  7.4165710793033026e-11  8.4494505930346934e-11  1.1816701353296681e-10  1.1076557318985310e-09  4.0412388426251612e-11  7.8139748954779954e-11  2.7942257653586884e-10  2.5222084637851327e-10  3.4588181467326792e-10  1.8104603898579672e-10  2.0401490932380260e-10  4.0655512316971223e-10  2.9086012158567000e-11  1.0490106085969081e-10  1.2851729171903001e-10  3.7415772706181163e-11  2.7173734138336602e-10  4.3885027885225875e-11  3.3491110041335283e-10  1.3693564224939893e-10  1.1080651042873817e-10  1.9228017463491904e-10  5.0452529634018815e-10  7.2467102881733294e-11  2.6667947779431328e-11  1.4517135892048855e-10  8.2582732000819970e-11  5.8719064864288899e-11  7.5166147231457817e-11  1.8072016463388612e-10  4.9168547847126488e-11  2.6384243859447228e-10  2.5606060612107520e-10  1.3001821612709293e-10  1.2904560350487414e-10  1.3575315224143735e-11  7.1803598726476229e-11  1.4671043969443266e-10  1.6805361747884950e-10  4.9859761336006226e-10  3.7300930058803104e-11  8.1788174886145435e-11  3.3237260301239057e-11  2.3967287922663386e-10  1.2537718164628033e-10  1.8398281336205159e-10  7.5427655180735101e-11  8.6768903259909798e-11  1.2173114488523958e-10  2.0378568579125958e-10  2.2417881884070090e-10  2.6271996905516930e-10  4.3923560013286875e-10  2.1523456830827366e-10  2.1039696828270911e-10  1.4508936919845283e-10  8.0572730977352563e-11  1.7345999257328089e-10  1.6728099657603195e-10  6.2456990618947459e-10  1.2807624748589791e-10  6.2430682423309501e-11  4.0856534836430900e-10  1.8983339286061804e-10  2.0549293674839483e-10  1.2464202772810667e-10  3.2288721686140131e-11  4.4684386633178570e-11  9.8475819927186932e-11  6.8805955122974880e-10  2.9334003669663439e-10  1.8178050697649983e-10  1.3685904389501705e-10  3.3559018871541714e-10  6.8161857402854103e-11  1.1125020030609559e-10  3.5165177835100525e-10  1.6056639277592398e-09  9.8489749318613691e-11  2.8291124782059327e-10  6.1324330415025905e-10  1.2294197538965945e-09  1.9689820952957060e-10  1.5286243260049667e-09  4.1941781695470582e-10  2.2619870724664377e-10  1.1715948755965655e-10  4.1298690476862549e-11  6.6101949389239664e-11  1.2677613679963063e-10  1.5634513625574847e-10  6.3607355067796775e-11  9.9193085621448631e-11  1.0813782727915635e-10  1.2956446100799255e-10  1.9242091795419918e-10  4.9817146140636921e-10  3.2054539294524733e-10  1.6636713313650296e-10  9.6688071713267576e-11  6.2099653773724270e-11  5.9384610784395631e-11  7.0188398543854746e-11  1.8274021818454181e-10  2.2151725096275180e-10  1.0611601043936754e-10  1.0521149968933121e-10  2.3975515515163511e-10  1.3591983601032085e-10  6.9047049336189833e-11  6.0105021249052891e-11  1.0577224484052416e-10  3.4072058534238512e-11  1.8469195299818594e-10  3.2625947668707284e-11  1.6164515512631023e-10  1.7945783651677792e-10  1.5431229695310569e-10  3.9595664336134656e-10  8.0074294264925166e-11  8.3497658903811685e-11  1.4399373706376897e-10  3.0215713420806351e-10  1.4662271703186392e-10  2.6360454655047838e-10  1.1105119852097541e-10  1.3542826875225379e-10  1.5439133669852106e-10  2.8170775288206828e-10  1.2811600215347437e-10  3.3463341783134573e-11  1.1640730194135122e-10  1.1250058963182832e-10  1.4985150790679520e-10  2.5075327593333518e-10  1.6931362469754268e-10  3.4968034752902487e-11  1.3063331901264837e-10  2.3176330005417423e-10  2.8889529626809560e-11  3.3170451657419967e-10  1.6491518962056756e-10  3.8894274639107752e-10  1.1402739285806644e-10  2.3231779429346717e-10  3.2603877624135859e-10  7.5679694150122381e-11  1.0483831781337258e-10  2.1715282281539058e-10  7.2427467887096891e-11  4.8537002527342203e-10  1.6061958262761788e-10  9.8361302190571853e-11  1.0817718690483898e-10  2.0897418415102368e-10  5.4399291940649593e-10  4.7799070884414008e-10  1.8058375630735895e-10  1.7089032608761260e-10  2.0748315263277577e-10  4.0326748055936407e-10  4.5691937345241096e-11  2.2436948329352467e-10  8.2852704681708327e-11  1.2421735595600549e-09  1.1925842125468955e-10  4.6479424830391948e-11  5.5255539074460828e-10  3.3548738516058179e-10  2.4867543769513083e-10  2.0769017561063025e-10  6.3689157134094960e-11  1.5342038975841332e-10  3.3461350923294874e-11  4.3988747519296804e-10  8.1684325456073855e-11  1.3892976193771832e-10  1.2831221531370425e-10  6.6524994349913084e-11  3.4984220531628761e-10  4.3447147067735704e-11  1.1770396682154071e-10  2.4898598721636152e-10  1.8063456562867985e-10  7.1614669446039019e-10  9.1716608174792182e-11  5.7774301633087250e-10  1.4529933627952086e-10  3.5528647154371570e-10  5.5123612601873140e-10  2.4535334724275604e-10  1.5579169932345018e-10  2.7303544563276432e-10  4.7998201195505688e-10  3.4355842761901627e-10  7.5085635381599888e-11  4.8661152052187318e-11  1.6425540006479574e-10  3.5738471737316952e-10  1.8507876922243980e-10  1.2637908292081633e-10  1.7110659502521269e-10  7.9963619109043552e-11  7.0684391016489474e-11  1.9966844359544731e-10  5.7869137721481305e-11  2.0730401112881507e-10  9.1384956322988532e-11  4.8237746477468440e-10  4.9063211525668986e-10  8.1569904114316547e-11  4.1914295359431572e-11  4.0347752449934306e-10  6.5130527239899264e-10  2.5985758012195594e-10  9.8635816553779115e-10  2.9017793106831483e-10  3.1871376605466681e-10  2.7242217145660067e-10  2.6682446614856303e-10  9.7251372589957676e-11  3.0991162008643779e-11  1.9542012667202026e-10  1.0835903891092747e-10  2.1616624087498994e-10  7.5423764196790479e-11  1.2173815079974038e-10  2.0382621448714573e-09  1.7784998769646352e-10  8.0624976563018679e-11  8.1615984036772838e-11  4.0002610928842290e-10  2.4483762590018248e-10  1.9061483543427911e-10  2.0985053673802631e-10  4.4414427390043416e-11  7.5987936115159879e-10  2.4259771250423683e-10  5.3396905962709862e-10  2.4860696698208621e-10  2.4305592473749292e-10  3.1163683900718651e-10  9.4580483429085027e-11  3.2858187418043476e-11  3.5776105011610280e-11  3.6870260206964030e-10  3.6060649405702825e-11  1.1688509047266216e-10  1.0215084370882200e-09  7.5333300851863894e-11  3.4569502431322494e-10  2.6165445690282572e-10  6.1817598141585632e-11  5.9876403909471941e-11  1.8082113634788811e-10  2.4586752063037730e-10  4.7701312751171072e-11  1.1403870758684779e-10  1.6059921199483749e-10  7.6646025893674212e-11  1.6827648964132052e-10  2.1248544886749494e-09  3.4933808349743981e-10  3.2028560807699980e-10  1.0749569682319598e-10  1.0631888163701732e-10  1.8641925047538999e-10  7.9187442838456076e-11  1.3369639599032359e-10  4.9989353919362760e-10  8.7520876446891629e-11  2.4155337230203788e-10  2.1283221408072639e-10  1.3906216923844917e-10  5.0754177835475334e-11  7.6704947970580834e-11  5.4502114728691291e-11  3.7100760947837561e-10  1.0642800306324645e-10  2.2119961498128262e-11  5.7251560187882955e-10  3.0306534177931919e-11  6.2273779528983650e-10  1.1590984684627513e-11  7.4035567706842631e-10  1.7579147445074204e-10  2.5026656317683050e-10  1.0362472076834947e-10  2.8732239872675046e-11  8.4347937426774004e-11  2.7917818950266005e-11  2.0086292686852756e-10  3.7326590085546236e-10  2.7168687448599509e-10  3.2559216940329492e-10  1.3391680317711822e-10  9.5640128470768651e-11  6.3438150020595137e-11  3.6079338100565115e-10  5.0055559247028575e-10  1.0411712178139977e-10  9.9732413970852920e-11  1.4631968490297129e-10  7.5277154477239666e-11  4.6269996151161321e-11  5.4544196932014322e-11  3.2005936232034761e-11  8.7761201192443299e-12  1.7608218780969663e-11  9.7439440823061112e-11  2.2438470266180298e-12  1.0996550490802537e-11  1.8569586588136567e-10  3.4918340677581069e-09  2.2624400212145618e-10  4.1687651068956026e-11  2.2365927184920428e-10  9.2623804434544198e-11  1.1220390933143531e-10  4.3411393092255775e-11  1.7048200526062710e-11  8.7644235665774193e-11  7.2791338271455932e-10  7.8763655957636861e-11  1.8362583748094621e-10  3.2413775377611329e-10  4.8521067174067071e-10  9.6655322334557121e-11  1.0194945331173428e-10  5.8413787380959405e-11  7.7335967886618250e-11  1.1135502401758561e-10  5.6742399501645102e-11  6.0264615015754430e-10  5.9266642378998989e-11  2.7893738385171687e-10  8.8268951774742110e-11  1.2803750930591466e-10  3.0960591503567643e-10  4.1307815495426486e-11  6.2997573281382200e-11  2.8578782691554633e-10  1.1815581546987660e-11  1.1308105556953169e-10  8.8972403280548776e-11  7.6543553047422630e-11  5.6465878463133590e-10  1.6141960056727724e-09  2.8961764536201765e-10  2.8976779952889634e-10  9.1051126640969412e-11  6.8475831048021851e-11  2.5545287712487150e-10  1.1601762726638080e-10  9.8065544447858658e-11  1.0457894395522616e-10  1.9661986220297340e-10  7.3876588611804510e-11  5.1705089071256282e-11  6.9558799246425158e-11  3.9219130665177241e-11  8.5305957644022093e-11  1.9211143471002770e-10  1.6258312289431909e-10  1.1233352323285788e-10  2.7249248033216372e-10  4.6678421957770201e-11  1.3653282175703333e-10  5.2398870786116861e-10  6.6263938349159862e-11  1.1948190453583421e-10  1.3211138258502331e-09  5.8114647728568516e-11  3.4087574299258763e-10  5.1490008133624565e-10  1.5921439337185003e-10  1.2731748805214110e-10  1.2664822546779811e-10  8.8808390829221657e-11  2.4710312626076188e-10  2.8757456542222513e-10  1.7714744244332894e-10  4.7051988028756306e-10  4.2447472028953122e-10  1.2096567060559823e-10  2.0991608017003589e-10  6.5697591067383194e-11  8.4406493463116900e-11  6.2313868278464291e-11  2.4103594236415088e-10  4.0193678661356510e-10  3.0863169353899767e-10  3.2889671424947361e-10  8.6229398954908024e-11  2.2818394285628328e-10  4.8102934253298441e-10  1.6815105400801330e-10  4.8146014005226325e-10  1.8500625372461641e-10  1.3890795649931261e-10  1.1189878250649789e-10  5.1238197921089970e-11  5.3778417183644621e-11  3.3064515386131477e-10  6.2612777616170442e-11  6.3618332063486967e-11  1.2847637624900707e-10  3.2408396859162035e-10  3.2027060052589657e-10  1.5823473357063679e-10  1.1776029080480643e-10  5.9303330400597386e-10  6.3162015333061894e-10  1.5954569034913081e-09  2.6782119876824135e-10  1.9840913600723918e-10  4.4271419786240447e-10  4.5974972697471091e-10  1.1688786384995119e-09  2.9818447696223178e-10  2.4367536897615615e-10  3.2872670114349540e-11  1.2886782615370767e-10  3.1864607956274451e-10  4.8270970863776736e-10  2.1118294595736271e-10  6.7136133542506837e-10  3.0478505857072269e-10  2.1484028533512617e-11  4.8618193562093089e-10  3.3176686762107193e-10  3.8687542437140262e-11  3.3612818892524072e-10  4.1451212084715840e-10  5.4906817433419693e-10  1.4644726835589603e-10  6.7677108845743681e-10  1.9695177164665971e-10  4.7745251191046050e-11  1.2790418822222541e-10  1.3331521998131215e-10  3.1341636994812719e-10  7.8466779046038944e-11  2.6175705790797112e-10  1.9648365758942131e-10  8.1224770353075455e-12  2.3277353435627266e-10  5.7325670048383925e-11  9.0489695167196932e-11  1.2347438493822249e-10  6.3463297974596513e-10  4.1230272537888838e-10  3.0512946855492103e-10  1.1795164007761219e-10  1.3135200980160913e-10  9.0058102173021958e-10  5.4008658437899181e-10  1.3495552873836103e-10  1.4390680460390550e-10  9.4985996223599200e-11  4.9443443455343882e-10  1.3854648072514704e-10  1.7387601566164397e-10  9.4388277258550840e-11  7.0335373206332085e-11  6.2978952203387855e-11  1.4838865773705883e-10  9.8812062769562604e-11  1.2755121696737927e-10  4.2251045549315431e-10  7.7738045737837568e-11  5.9606158116845777e-10  1.2480839515376491e-10  2.2570746125631100e-10  2.7872160474913371e-10  5.4996772329234530e-10  1.1677070812010538e-10  4.0573647497308429e-11  6.2679000505540855e-11  1.4315523169787429e-10  1.5991635520049509e-10  5.1544391469608288e-10  8.3574554075605336e-11  1.6424042811269328e-10  2.5434195801357541e-10  1.3968995422634388e-10  2.3679093751993087e-10  3.3336255560005867e-10  3.1391978729547951e-10  1.0456891675375922e-10  1.7471078408419688e-10  1.5013452952712281e-10  2.2918593785259549e-10  4.8017115051811529e-10  3.7534483346902703e-10  2.0213032250071116e-10  2.0084366715203857e-10  1.2638312273379390e-10  1.7152518464932627e-10  3.0053485270175344e-10  3.8167904766715378e-10  3.6241896615487361e-10  1.6694224781334731e-10  2.2092205470893466e-10  1.9669445768131476e-10  1.5201492824960059e-10  3.9807233948707671e-10  3.1672251089895862e-11  1.0555878899651040e-10  1.2812457794422945e-10  1.4324620760100640e-07  4.0927521457440766e-10  1.7400048765219750e-10  6.1420580144166354e-11  2.5796226837747736e-10  1.3733974148097431e-10  6.4706873969458482e-11  1.0506807141122843e-10  2.0319916174829737e-10  2.0664435369258116e-10  1.9804304999649072e-10  1.8896438298202988e-10  3.1094275401458654e-10  6.5539787444071434e-11  8.0391400376789842e-11  1.9130268849199356e-10  1.2383563264748772e-10  3.4725199668277317e-11  4.0414338712341668e-10  6.4335497276675539e-11  6.1085978112958748e-11  1.9616817366385210e-10  9.9636812359867549e-11  2.3615076199619473e-10  2.9161331092320279e-10  1.4919540298511659e-10  7.8645798572083655e-11  1.8839515246969831e-10  9.6081041123464015e-11  3.2332771119689005e-11  8.8841185859588611e-11  5.8360909500413892e-11  7.9015418335640121e-11  2.2482924735489864e-10  4.6896063559474137e-11  6.4969000861370573e-11  9.3934932921207715e-11  9.3287349121343786e-11  9.4167222743497783e-11  2.5135869737079903e-10  8.8240264125488838e-11  1.8662365700885539e-10  2.0641107826747335e-10  1.0206266697099776e-10  1.6117148537187667e-10  3.1606212615888427e-10  1.2370466611435112e-10  6.1570971099988599e-10  1.6979841889329602e-10  1.5012101161125888e-10  1.3892224455270443e-10  2.2476610165950286e-10  4.3807551854990822e-11  3.9470544941416411e-11  7.6367342015524843e-11  4.3448133323281360e-10  2.0067205857072311e-10  6.3855335427570575e-10  4.4612099780450799e-10  1.2122839482244818e-10  5.4966780243198467e-10  3.6356461569617724e-10  1.8848017471236093e-10  7.1377090028784428e-11  9.3139759880371193e-11  1.7592484918914976e-10  1.8841447695637583e-10  4.1456742381402122e-11  4.8226579111887840e-10  2.8072437656694249e-10  2.9807429451009560e-10  5.2809192618470667e-11  3.5352436966371568e-10  2.7103189358463809e-10  5.7770616593496539e-10  7.2576567115617127e-11  6.1787474068856443e-11  2.4074360449365170e-10  7.1937913390679642e-11  4.2513691928455471e-11  1.4588490224918223e-10  2.4285821145209972e-11  6