<?xml version="1.0"?>
<VTKFile type="UnstructuredGrid"  version="0.1"  >
<UnstructuredGrid>
<Piece  NumberOfPoints="4852" NumberOfCells="9430">
<Points>
<DataArray  type="Float64"  NumberOfComponents="3"  format="ascii">-1 0 0  -1 -1 0  0 -1 0  0 0 0  1 0 0  1 1 0  -1 1 0  0 1 0  -0.5 1 0  -1 0.5 0  -1 -0.5 0  -0.5 -1 0  0 -0.1608775713298009 0  1 0.5 0  0.5 1 0  0.1967448868031411 0 0  -0.3401869540532025 -0.1754804199524151 0  -0.3360208998522183 0.223709653138218 0  0.1739048633810951 0.3453553321820969 0  -0.1844107236062293 0.5542948098311538 0  -0.503277374900538 -0.5370994318260279 0  0.4903943553897759 0.2564102171927825 0  -0.06400366475442927 0.2004811276755638 0  0 -0.5061325913258391 0  -0.25 -1 0  -0.5605442312786536 0.5768132305085142 0  0.6612666538827588 0.6332287415954932 0  -0.1760368412846909 -0.5374331177606199 0  -0.5382344035207918 0.02533247861556411 0  -1 0.25 0  -0.2055796784078291 0.02366694098471018 0  -0.6538947550552413 0.308800240573771 0  -1 -0.25 0  0.03935790044977456 0.5909845334953933 0  0.1950179826719076 0.1283962449635336 0  -0.1361322121052324 -0.2196471281925158 0  0.3708692456496032 0.6137266514126961 0  1 0.25 0  0.5355652144809806 0 0  -0.7499999999999999 -1 0  -1 -0.75 0  -0.6446416995131933 -0.3227175419374487 0  0.25 1 0  -1 0.75 0  0.02757118475249542 0 0  -0.25 1 0  -0.75 0.9999999999999999 0  1 0.75 0  0.75 0.9999999999999999 0  0 -0.02898318711980711 0  0.05428179957732259 0.1418169678645999 0  -0.07747379175372682 -0.02777921034721157 0  -0.7006777538914237 -0.1322547626204492 0  -0.321236836968218 -0.3468872452348294 0  -0.3393611317035736 0.4366501545793425 0  -0.09961831357303051 0.7637959422231289 0  -0.3824382649559425 0.7021405840050742 0  -0.05444338215677378 0.3981438885527877 0  -0.07860629489912364 0.07173130819907501 0  0.3587847467277493 0.3687382370193826 0  -0.7155758676822356 -0.7296538189800467 0  0.4117576308881327 0.08959540509260554 0  0.6899347693042278 0.1912292323239404 0  -0.7470581765894158 -0.5266298974549981 0  -0.3870099847130409 -0.7103869817731343 0  0.7215403021885672 0.4179745326304675 0  -0.7756125808388598 0.09680930106190855 0  0.1966450604417008 0.698042498662988 0  -0.1980222615819216 0.2878160304507197 0  -0.7984948331078203 0.5769577570466121 0  -0.7162216940505459 0.7659825322387374 0  -0.05136365827988235 -0.3733946689096653 0  0.5844372965346726 0.8161223636327255 0  0.8201420778567611 0.8055501900983131 0  -0.1053579770745067 -0.6971001741042576 0  -0.5137568481889617 0.1622627444904917 0  -0.2012094239314268 0.1252420061789559 0  -0.3584347716526968 0.07507814429626773 0  -0.3644777923463946 -0.05230694523437966 0  -0.4958229198179704 0.394389209250142 0  0.375 1 0  1 0.125 0  -0.01174738314833292 0.07101525248314 0  0.06227654341600926 0.3910536516658009 0  -0.1710208673739186 -0.1222084021460929 0  -0.2423447682745622 0.77328524907022 0  -0.625 1 0  0.5332234207513603 0.4534743415395783 0  -0.5755568245879561 -0.8299107124011591 0  -0.2571044115534001 -0.78346665970355 0  -0.3192826594260881 -0.5080769927174855 0  0.8338979397250834 0.5948148241827879 0  -0.548048026737516 0.790473157981305 0  0.125 1 0  -0.06728920012437478 -0.09333909084386259 0  -0.4939697789545783 -0.1430476238233165 0  -0.8750000000000001 -1 0  0.02956664875886904 0.04148286130268997 0  0.9999999999999999 0.375 0  -0.875 1 0  0.05739169191310868 0.7935362558418919 0  -0.1957883699919311 -0.3733072633097233 0  -0.07240631557405725 0.570379977369454 0  0.2363588858237184 0.5171394835089657 0  -0.7918979738714775 0.229061875796908 0  -0.4946763111227154 -0.3886839048295835 0  0.0003519470361443065 0.2704691978119416 0  0.5096480812464426 0.6395213986339081 0  0.398650117261704 0.8069140299710088 0  -0.8057802544011289 0.423955568482324 0  -0.06423651635838729 -0.2203944015534915 0  -0.7091335026675891 -0.01417287385840113 0  0.09048326084447712 0.05228709214747912 0  -0.4776584518823213 -0.2509418704254467 0  0.7238485503151392 0.0826948962974302 0  -0.8083306324116261 -0.4107712395972654 0  0.3374187245467393 0.153075016131037 0  -0.7941946577111363 -0.2505839873440018 0  0.2362276077200394 0.2536591652825323 0  -1 -0.875 0  -1 0.875 0  0.1842638637367345 0.04769036034099098 0  -0.2471276096314063 -0.228778444134562 0  -1 0.375 0  -0.1706170284178428 -0.04171534905030529 0  -0.648165958190517 0.4668753127962979 0  0 -0.07736776745332727 0  0.08049767336885864 0.2592406233447286 0  -0.375 1 0  -0.2161581608731031 0.4240861317573415 0  -0.1195935947483085 0.1497340918457045 0  0.1332412916936894 0.5534562822963094 0  0.1319215847621148 0.1932312235018105 0  -0.4739607051495022 0.2689610081262467 0  -0.04602383638996815 0.01387097105595627 0  0.8514543149905204 0.3698148416761722 0  -1 -0.125 0  0.2854590110624237 0.836538086523783 0  -0.1102461325104985 0.3123833549808709 0  -0.125 -1 0  0 -0.7575037395175259 0  0.07821397079968176 0 0  -1 -0.375 0  -0.375 -1 0  -0.625 -0.9999999999999999 0  0.7474787146812756 0 0  0.625 1 0  0 -0.2918843213980812 0  -1 0.625 0  -0.9999999999999999 0.125 0  -1 -0.625 0  0.3284075310660084 0 0  0.004929205892015135 0 0  -0.125 1 0  0 -0.006571003003944568 0  1 0.625 0  1 0.875 0  0.875 1 0  -0.5620938915754277 -0.6760980445346387 0  -0.00451159397488653 0.1597936406713913 0  0.3622475824154102 0.26242826933014 0  0.652920977659079 0.2933685764642769 0  -0.8544682497574794 -0.6462944566773955 0  -0.8631915071452497 0.7868309670275888 0  0.4302914754049333 0.5006536847793047 0  -0.398071648646234 0.8556006060921327 0  -0.778464852068854 -0.8746595485501326 0  -0.8702818144926886 -0.7841268058534976 0  0.1541040347890703 0.8419085297277454 0  -0.6579753243863398 0.1523735908095863 0  -0.5770707745669195 -0.0640706477681674 0  -0.8543379704503077 -0.06252469543772284 0  -0.2951922140401064 0.5616281786239634 0  -0.4228923716860556 0.569393454669358 0  -0.3752453653146923 0.3304625849722073 0  -0.6179129022515054 -0.2161178857817913 0  -0.2723225802080304 -0.08990183117953969 0  -0.6395630800232146 -0.5881883965159291 0  0.8597264232593245 0.2657871770241997 0  -0.03273122923310258 -0.03291871124050314 0  -0.05448487292314902 0.1142605107643234 0  -0.1331621426790852 0.4313798646132521 0  -0.1194138536587474 0.03227866232566577 0  0.5377317416165313 0.06444108602155767 0  0.5791281650038086 0.3586835143801818 0  0.691097565722642 0.7744040175417816 0  -0.7931599243308332 0.8809859351847774 0  -0.6428642497319773 -0.428845634856226 0  -0.1164731378166109 -0.3968298187818066 0  0.8722136815204655 0.4883413188207839 0  0.07595298652755163 0.09359055533628052 0  -0.6642534270698167 0.8679508161533069 0  0.454502509900205 0.3499823591338243 0  -0.0261808865152531 0.03573313807901279 0  -0.4086571430046534 -0.4399016814966366 0  -0.361440346007609 -0.268448941294707 0  0.3233978785921833 0.481116821331491 0  -0.1954602988833724 0.2010485109024935 0  0.7055283358764354 0.5303201691978439 0  0.2617007550136878 0.3554342735855439 0  -0.376216367390765 -0.8517460367237565 0  0.1092346436678449 0.6815399147030495 0  -0.284371483695161 -0.6117411151813955 0  -0.4407189034938518 -0.6198171598997031 0  0.2960515494407129 0.691847241677451 0  -0.8747455473845761 -0.1746659942978716 0  -0.1797455744714536 0.8547285014921353 0  0.4546522995531127 0.1629749015326624 0  0.2802295716659535 0.04654556187539394 0  -0.1418504306046968 0.6570453565322171 0  -0.01112625186948651 0.7082430379668283 0  -0.05321175654221463 0.874814154687755 0  0.005664736732613791 0.4692329558909217 0  -0.3869852733226903 0.1531460089081035 0  0.5491033678048718 0.1329194904469219 0  -0.4751917012731084 0.6820565878581004 0  -0.8512689797779789 0.3325063166007124 0  -0.09124723878248588 -0.5360363214021442 0  -0.02817190914389122 -0.5519315890165959 0  -0.2133884720573602 -0.287348659587825 0  0.8685198112036118 0.1514018877760022 0  -0.1692670134012349 -0.6608194734925963 0  -0.8891198458102045 -0.5282408548442181 0  -0.2810131020994364 0.3377851842608971 0  -0.6757522673655787 0.5737006973119585 0  -0.8972994762273375 0.5311700541287172 0  -0.8982030762733525 0.6606937590870963 0  -0.6438952057119468 0.07221713202173478 0  -0.8589121290209631 0.0285095350276375 0  -0.8879698494927228 0.1677812351724653 0  -0.1296665936368162 0.2284988645150127 0  0.1603491305576091 0.4455892124799616 0  -0.04347403920246889 -0.125727663124127 0  -0.7530325626085478 0.669723864096046 0  -0.6018732696247249 0.6976463561843175 0  -0.2538272550226497 0.07833439806489913 0  -0.2487221480483178 0.6484134000803697 0  -0.02734948688107712 -0.006359979334528544 0  -0.4939946113639439 0.8768733562834198 0  -0.4761597721679987 0.4900517797077416 0  -0.2898150988735265 0.1437350560010461 0  0.00230405837039332 0.02356266208009145 0  0.7793637667262701 0.6832363175599393 0  -0.4694474872925562 -0.8246224098572217 0  0.2718373277805794 0.194544978527959 0  -0.1485064826591734 -0.8631761331600371 0  -0.06543362395693443 -0.8296309730167294 0  0.4431561348227062 0.7055581029821222 0  -0.1172247499685808 -0.288033685274156 0  -0.2643854602784668 -0.02616154158058672 0  -0.8937049051487923 -0.896408116971631 0  -0.5723291650117318 0.2367896353406408 0  -0.4755360512875676 0.08737529081324749 0  0.4909971886904636 0.8255315989700831 0  -0.02833726246111252 -0.2601478942234869 0  -0.3097164840022897 0.8752256738560391 0  -0.1426040083689132 0.08032151463463907 0  -0.4687538093690182 -0.03488387161915622 0  -0.3873860672014046 0.01205951599044451 0  -0.2911595936225191 0.02747361599444243 0  -0.3844299414547475 -0.1202804106367752 0  0.8881010813483341 0.6978014833508983 0  0.7924940621935535 0.9105961725398022 0  0.5765724290531968 0.2075408797959022 0  -0.5596431269511053 -0.4690370842599444 0  0.5986348394005241 0.7055698417303424 0  0.6780403384849298 0.8881593059469259 0  -0.05071090062955048 0.3026126375063259 0  -0.9020861825432798 0.9045836469305247 0  -0.1272144517787655 -0.06704358344781099 0  -0.1687850036235788 -0.1823374154207037 0  -0.251987308938506 -0.1434718276189791 0  0.037185263
[...]
<PointData  Scalars="w"> 
<DataArray  type="Float64"  Name="w"  format="ascii">1.7560063346279974e-10  1.0376236497440602e-11  4.4510330557763158e-10  2.5836832254958175e-09  6.2389376481728793e-10  1.5680113303123929e-12  8.6880651265818357e-12  7.5275285542945595e-11  4.0806427192171257e-11  2.1182121675948226e-11  1.0830839379172411e-10  9.6515982212652109e-11  4.0242825743458213e-10  2.7865859069233918e-10  9.1764549330393237e-12  5.2222513239873753e-10  9.0941658042162080e-11  7.2421070183631140e-11  1.3076170926631193e-10  3.5756765823912702e-10  6.7369449311991260e-11  1.0438965520537255e-10  5.7281742406742551e-10  1.2027482445885422e-08  5.8124215104963658e-10  1.0915975936369602e-10  8.9331750041599448e-11  1.7144257784487751e-10  7.6740829422216228e-11  1.8873789950257535e-11  4.6778727538403871e-10  9.8435194881938886e-11  2.4407272305021350e-10  1.8182666754212885e-10  4.5232859191649068e-10  2.2532816756561785e-10  7.8542331367537985e-11  4.7916868883943817e-10  5.8569292453656531e-10  3.1339374439215223e-11  5.2907893734161329e-11  1.0836612607723749e-10  9.3099588917978601e-11  1.9890689284550362e-11  1.0435860558054233e-09  8.8305868957152034e-11  3.2192159306777611e-11  9.6948887409771222e-11  1.2357137295423690e-12  5.8660770456452882e-10  2.1980231569771625e-10  2.1276290808181690e-10  8.2740894907538381e-11  2.5249173648574004e-10  2.6134321888909543e-10  2.0602223923865736e-10  3.5929314939463441e-10  8.9433017630245787e-11  5.7539732695887833e-10  2.5205812682107217e-10  3.1477188120896075e-11  3.1388901039383017e-10  3.7916196374868571e-10  1.4458995147133598e-10  5.4412413853309257e-11  1.7853299489592412e-10  7.1112347542243676e-11  1.7895492944128187e-10  2.3338117520132515e-10  4.6315825050419568e-11  6.5074658967131819e-11  4.3194753489841800e-10  5.7193833060672025e-11  8.8654513180412176e-11  1.7366006693596985e-10  1.7100207944200856e-10  2.5642666749933283e-10  2.9143652220408663e-10  1.8291313210277638e-10  1.9623893788875970e-10  6.5492398758325452e-11  2.5232213382030201e-10  2.6084492663427099e-10  2.0162601850277591e-10  2.3393372560756073e-10  1.2551582128807907e-10  4.7066140550411040e-11  1.1034658953681058e-10  9.5087917295554577e-11  2.5473107001176811e-10  6.9519072401663335e-11  9.9955875716039126e-11  7.8845463953048979e-11  9.5089827175070426e-11  3.8864900445043196e-10  2.1001143424300762e-10  2.5641519820191265e-11  6.4877635613710823e-10  2.5733226870797776e-10  3.1806246480570974e-11  2.7896709983941646e-10  4.1312822920751726e-10  7.1220153335984394e-11  9.7504359623213553e-11  1.5798135555406309e-10  6.4000480903227234e-11  2.7360328669541019e-10  8.3859575763138379e-11  1.4775797682423780e-10  6.6484622454969427e-11  3.1040001306612995e-10  2.4822161907055823e-10  2.3054817357390690e-10  6.4475407458513566e-10  1.2086565040345312e-09  1.5031108672370793e-10  1.6445072778161821e-10  1.0304706193454142e-10  4.5818855496054154e-10  2.6074140249279627e-11  2.5802773744610477e-11  2.7716422205240372e-10  9.1405990964713138e-11  6.1694086300065909e-11  5.0080307902336795e-10  5.7948226700773192e-11  5.9409783885985585e-10  1.1848944416963857e-10  7.7449601083902413e-11  8.2904826473422477e-11  3.4127950555856617e-10  1.7401961936355082e-10  4.6407252114135879e-10  1.3595959140975164e-10  6.1608276703312580e-10  4.4759402393511771e-10  1.0973465589210223e-10  5.2428926537621193e-11  1.2999858193554672e-10  2.5792556995921821e-10  4.0978376781797897e-10  5.9998728293925344e-10  9.3576708202868489e-11  1.2036150853178907e-10  6.9339076950463378e-11  6.5532088458314552e-10  8.6950980851411555e-11  3.3034095964390242e-10  1.4895188717746431e-10  1.2488670304164863e-10  2.0171605800332555e-11  2.8254560287092705e-10  1.5673197060493524e-09  5.7258153454451715e-11  9.5511414120813271e-10  7.9674688955189009e-11  2.4764007421453847e-11  2.4443204052142709e-11  1.2246792592246109e-10  5.5804761523223672e-10  4.4417009114038662e-10  1.6108697046154774e-10  1.1592745661210705e-10  1.6840501046697178e-10  1.8805304850236709e-10  5.9036548392052651e-11  7.8386423864110876e-11  2.0539757113569445e-11  6.0510998774528137e-11  2.9674397503216991e-10  9.2453193402461757e-11  1.0654908504346376e-10  8.3121506360365728e-11  9.7015946466038472e-11  5.3559306838223209e-11  9.6183809022082122e-11  4.5564923114426164e-10  5.7265210215140941e-11  1.6412407662888244e-10  1.7105749904177501e-10  4.6148916924831146e-10  1.9883714679317220e-10  2.8151443073381361e-10  1.4255674728076938e-10  1.4521875913428435e-10  1.5140229430605262e-10  2.1215390440462490e-11  2.8817458458638741e-10  6.5485768535201113e-10  2.5757240296520723e-11  2.5028563665959807e-10  8.9941373013059204e-11  1.5812402397269582e-10  1.0996385805266390e-09  1.3746309063537720e-10  1.6370994083665228e-10  2.3447492338502771e-10  2.8757851094096006e-10  1.0652170902231164e-10  2.0474081959213504e-10  4.2288382128416580e-10  2.1963335702887531e-10  2.4077584514317366e-10  1.1049135381493153e-10  1.1320386900275570e-10  1.1361790963917490e-10  7.1793032587350590e-11  2.0822616325493652e-10  8.8096599009364381e-10  7.8508818425180682e-11  1.0916166272029232e-10  7.7926783119752986e-11  9.7214433020438792e-11  1.6261499180299906e-10  3.7715018512675342e-10  7.9742290839988785e-11  8.5943455255921591e-11  8.0938895843439024e-10  1.0172611875069252e-09  2.9237491463738643e-10  1.9965422475617423e-10  7.7226225794550806e-11  8.1435721369648337e-11  3.3747438835452723e-10  5.9255109510154115e-11  8.4201862079974309e-11  5.0545090998886511e-11  9.3749409307209930e-11  4.1732043785246584e-10  9.1131783053439048e-11  1.9731608761350504e-10  1.6664850828896943e-10  8.9823681168700068e-10  6.2332221943961366e-11  2.0062504254483572e-10  1.1520101279535518e-10  1.1309881204085808e-10  7.4258970814901015e-10  7.5856419748883203e-11  8.5790340798614173e-11  1.1819782667974822e-10  1.1013264651306735e-09  4.1371988513528348e-11  7.8376025014304297e-11  2.7817394411264916e-10  2.5404095738348257e-10  3.4724710773992876e-10  1.8400965487427592e-10  2.0375320574512665e-10  4.0431117120072174e-10  2.9660081078852865e-11  1.0597710947900991e-10  1.2864510868265040e-10  3.7885948889217115e-11  2.7048745527298004e-10  4.4282701263955249e-11  3.3225173603214453e-10  1.3618152287296462e-10  1.1054318088125702e-10  1.9132275523497165e-10  5.0330991217071177e-10  7.3597957305157539e-11  2.7184462912781089e-11  1.4487782708296176e-10  8.2488921434866847e-11  5.9921186848271881e-11  7.7047252168938223e-11  1.7912031876914884e-10  4.9730237626474498e-11  2.6283147661913379e-10  2.5398497537672030e-10  1.2860863984894418e-10  1.2826464456669898e-10  1.3839946194368954e-11  7.1427030706027847e-11  1.4600776187006299e-10  1.6988050405991964e-10  4.9483513268115328e-10  3.7080747472318580e-11  8.2536886620508767e-11  3.3669550683116708e-11  2.3751219972553038e-10  1.2647775336094719e-10  1.8633362369700270e-10  7.5248724649675407e-11  8.8746007715338924e-11  1.2143950445189910e-10  2.0378769697796412e-10  2.2383626001940634e-10  2.6183701931952913e-10  4.3628699786953272e-10  2.1448969726359793e-10  2.0943782455014861e-10  1.4590122285689098e-10  8.0393388895502174e-11  1.7264215573481984e-10  1.6712338748130146e-10  6.2220582880641301e-10  1.3018456674437952e-10  6.2715778991408014e-11  4.0584242653851403e-10  1.8896082189223461e-10  2.0989462471958488e-10  1.2294454480354814e-10  3.2993305677440600e-11  4.5061865149039724e-11  9.9622891822680772e-11  6.7796817131536917e-10  2.9226447463067912e-10  1.8140210833328062e-10  1.3731529485351094e-10  3.3702095175286058e-10  6.7718699211389190e-11  1.1013197974416452e-10  3.5156430011042292e-10  1.3433485696633724e-09  9.9615452784460210e-11  2.8190689737653569e-10  6.1096371225223115e-10  1.2218829472827709e-09  1.9680675759913118e-10  1.5180890296639096e-09  4.1690764819185167e-10  2.2592731611233730e-10  1.1636629220484319e-10  4.2204515278364935e-11  6.6525190090268363e-11  1.2655161751092474e-10  1.5740803228206903e-10  6.4246441517982417e-11  9.8757480767006838e-11  1.0733370412277326e-10  1.2825798981437560e-10  1.9189676190478165e-10  4.9420139745980076e-10  3.1809712768632186e-10  1.6660834890108272e-10  9.6694494330322636e-11  6.2096430211013947e-11  5.9457094343362721e-11  7.0962320973173262e-11  1.8296248326751760e-10  2.2805876526161248e-10  1.0686176288981302e-10  1.0665238145412881e-10  2.4038016143011188e-10  1.3722518257838862e-10  7.0362301085187977e-11  5.9880670576593319e-11  1.0560374569462149e-10  3.4508873725747927e-11  1.8811956412274794e-10  3.3201867758864881e-11  1.6102193478450897e-10  1.7946673064119904e-10  1.5203567126055415e-10  4.0211500345103465e-10  7.9792321814127863e-11  8.3761015085091916e-11  1.4574900075791393e-10  3.0907616884783122e-10  1.4470056306021629e-10  2.6352428666269031e-10  1.1134192036934825e-10  1.3646773448681377e-10  1.5857128110213988e-10  2.8202164708911051e-10  1.2742949770805237e-10  3.3953769533118662e-11  1.1835834145212926e-10  1.1262955143064025e-10  1.4912490856898747e-10  2.5541116255903222e-10  1.7208592047908856e-10  3.5300660816907873e-11  1.3021566341340815e-10  2.3275248242491655e-10  2.9436928859257153e-11  3.3042880962179792e-10  1.6331715631696286e-10  3.8689196663314043e-10  1.1324703735479005e-10  2.3796224772836007e-10  3.2611520483955126e-10  7.6275567196472793e-11  1.0611586815731328e-10  2.1928384339598040e-10  7.4334418840000239e-11  4.8228512970132826e-10  1.5962542102255464e-10  9.8956783896740632e-11  1.0915496819386245e-10  2.1098275728570900e-10  5.3923954031250140e-10  4.7494010814942129e-10  1.8171274992639874e-10  1.7268924717939850e-10  2.0934323152917043e-10  4.0391075674051008e-10  4.5814155402224388e-11  2.2672988277154894e-10  8.2603050299728605e-11  1.2376672042175634e-09  1.1861322260780743e-10  4.6242959690788432e-11  5.4594158969045674e-10  3.3167058878794765e-10  2.4749693889946405e-10  2.1159948017254851e-10  6.4586053403793964e-11  1.5444673105548782e-10  3.3788953462392189e-11  4.3842479149958897e-10  8.2873548355299134e-11  1.3907423520003875e-10  1.2797782772966318e-10  6.6501569141276216e-11  3.4948097145560616e-10  4.3690419594908254e-11  1.1906735946086798e-10  2.4466147592854624e-10  1.7891192153424116e-10  7.0927417678746974e-10  9.3221063061717654e-11  5.7428884581673458e-10  1.4898549292274285e-10  3.5230669316778673e-10  5.4626742169277156e-10  2.4345237929729092e-10  1.5540315100212236e-10  2.7147712140345632e-10  4.7809272451068947e-10  3.4589341564381933e-10  7.6009888210703366e-11  4.9587989810472840e-11  1.6308525178410408e-10  3.5502926732672237e-10  1.8758908649344014e-10  1.2804060047576773e-10  1.7302973846988761e-10  8.1899496827295723e-11  7.1896284360264407e-11  1.9982421993756184e-10  5.8471126930469993e-11  2.0811428376837414e-10  9.0955393030262672e-11  4.7814294312627229e-10  4.9851768840324684e-10  8.2323377631461884e-11  4.2069341479602179e-11  3.9759180113436812e-10  6.4642144736516678e-10  2.5898907090649498e-10  9.7874896613519744e-10  2.8737197597273604e-10  3.1628707352400626e-10  2.7109637756577365e-10  2.6491626892020823e-10  9.7986391948360847e-11  3.1569696945746161e-11  1.9468305228022764e-10  1.0697412974417259e-10  2.1639230556648171e-10  7.5587688653912825e-11  1.2437315856919811e-10  2.0298389683314115e-09  1.7680562749807264e-10  8.1410830072078445e-11  8.2905689025432185e-11  3.9792127286815435e-10  2.4270189342462435e-10  1.8977948235187538e-10  2.0820612976833990e-10  4.4955397690602771e-11  7.5221555757269669e-10  2.4196871265401239e-10  5.3469535662594324e-10  2.4941307559349989e-10  2.4381441388219489e-10  3.1353109915089920e-10  9.4603499881200753e-11  3.3214577010694263e-11  3.6296031579243521e-11  3.6595566755760908e-10  3.6382140935027415e-11  1.1796021754382696e-10  1.0168705672268547e-09  7.5347630721187258e-11  3.5311859727922144e-10  2.6380398753658381e-10  6.2228973030254140e-11  6.0427679258485853e-11  1.7932111551875868e-10  2.4462917255286475e-10  4.8879732115985860e-11  1.1350850448791767e-10  1.6203049440146978e-10  7.6409748465885887e-11  1.7069230208440598e-10  2.1136345906756720e-09  3.4366904943321767e-10  3.1918342537463334e-10  1.0683013478419257e-10  1.0840448751832348e-10  1.8963438521160783e-10  8.1187464668556415e-11  1.3458557761756337e-10  4.9995980846676116e-10  8.7348633020224004e-11  2.4391027725866358e-10  2.1642597204311485e-10  1.3896101712984318e-10  5.1882794179629757e-11  7.8645918985971014e-11  5.6196615346874611e-11  3.9400249641380576e-10  1.0702904515446934e-10  2.2151430113800046e-11  5.6980160504928203e-10  3.0965900357663548e-11  6.2032950780826022e-10  1.1727762745797469e-11  8.6700202571250125e-10  1.7455503376772865e-10  2.5051483971923810e-10  1.0550314966597034e-10  2.8908017548264292e-11  8.5967062910314938e-11  2.8174530155417119e-11  2.0780324820296643e-10  3.7224025894824364e-10  2.7173579122572677e-10  3.2727171417135785e-10  1.3446613925250332e-10  9.4937038480036646e-11  6.4018884802812264e-11  3.5958336543882046e-10  5.0411544244082229e-10  1.0611927616673486e-10  1.0120892986210948e-10  1.4756750557420631e-10  7.6845083418126083e-11  4.5908385550395140e-11  5.5376794271845991e-11  3.2390575168359243e-11  8.8916877397394945e-12  1.7909518046680047e-11  9.9549309259918711e-11  2.2555797179052810e-12  1.1090420316509432e-11  1.8581469372989248e-10  3.4822680373522323e-09  2.2659796495509560e-10  4.2891514230230080e-11  2.2112205504344356e-10  9.3727231749668277e-11  1.1285568005864694e-10  4.4173694956510186e-11  1.7231609934993081e-11  8.8744760991711777e-11  7.2242694184489894e-10  8.0191005502211608e-11  1.8353561482667594e-10  3.2429933926432915e-10  4.8461650622072623e-10  9.6485932463062736e-11  1.0204793292403526e-10  5.8731446405788114e-11  7.7155756333646571e-11  1.1325613611160892e-10  5.7921061018728336e-11  6.0779579709997396e-10  5.9484134675075403e-11  2.7659616587936530e-10  8.8470516581574022e-11  1.2818806007392510e-10  3.1370397390972714e-10  4.1736761654465922e-11  6.3768777950040691e-11  2.8935486778838681e-10  1.2019804113229613e-11  1.1372326030326414e-10  8.8772850787678665e-11  7.7147289573431514e-11  5.6036796012756677e-10  1.6118035924376016e-09  2.9600504338934136e-10  2.8857058446404697e-10  9.1022237190789937e-11  6.9794135082616978e-11  2.5585171132214426e-10  1.1818840717120741e-10  1.0052975153249948e-10  1.0519591171172042e-10  1.9956772779785551e-10  7.4482378197746108e-11  5.3062493306596762e-11  7.1063312719636015e-11  3.9996958082871457e-11  8.7060688236631898e-11  1.9072331228821510e-10  1.6186416423710636e-10  1.1160288464740806e-10  2.7703998605031056e-10  4.7529066589602948e-11  1.3660684007234547e-10  5.1962743837559881e-10  6.7193603017034436e-11  1.1829386255071755e-10  1.3424468230434737e-09  5.8540583570160739e-11  3.3573300707706611e-10  5.0839418866481375e-10  1.5779558045939553e-10  1.2893636481500957e-10  1.2586119794262169e-10  9.0644025335832576e-11  2.4682570339938660e-10  2.8519386612539476e-10  1.7766617023867471e-10  4.6542138505264120e-10  4.2212052398666342e-10  1.2231016877053850e-10  2.1175795517405515e-10  6.7051634124904431e-11  8.5370439044684568e-11  6.2927429645801183e-11  2.4039498722135689e-10  4.0060936328982268e-10  3.0750333336234078e-10  3.2443176896199174e-10  8.6389162725138519e-11  2.2643872528729094e-10  4.7715314832625785e-10  1.7219229466814154e-10  4.8383035024440476e-10  1.8423851186066127e-10  1.3901523647533737e-10  1.1233974108559297e-10  5.1524153685973198e-11  5.4846252212616247e-11  3.3263864150233467e-10  6.3161016468594686e-11  6.4912193363896130e-11  1.3015235155019317e-10  3.2149337298412113e-10  3.1957367218962926e-10  1.5748660987949585e-10  1.1773154040240471e-10  5.8661482779910639e-10  6.2489397834678075e-10  1.5861665701492719e-09  2.6648303466651756e-10  1.9841070090916326e-10  4.4131696864521172e-10  4.5604690501571132e-10  1.1578599301303046e-09  2.9559351414436970e-10  2.4818125373041380e-10  3.3278684013281797e-11  1.3031126799907392e-10  3.2846024886472040e-10  5.0324790128815973e-10  2.1205861853321247e-10  6.6317845072349859e-10  3.0724759008450319e-10  2.1686492410847659e-11  4.8694713953100176e-10  3.3267517151436202e-10  3.8870188886967995e-11  3.3355704850284049e-10  4.1400995987230330e-10  5.4319915766720036e-10  1.4564239870078367e-10  6.7154782682164057e-10  1.9593961980531998e-10  4.7645135361942720e-11  1.2767212013687698e-10  1.3309348533640367e-10  3.1433852156313214e-10  7.9573992358279615e-11  2.6562450882073269e-10  1.9660409331607817e-10  8.2229322151132098e-12  2.4044021866803242e-10  5.8377309461145179e-11  9.0673666955833246e-11  1.2466363420326470e-10  6.2821599003454053e-10  4.1063917260320823e-10  3.0241676248264428e-10  1.1737307081416868e-10  1.3280003541934223e-10  8.9195639019719628e-10  5.3570642626879797e-10  1.3495764929162847e-10  1.4296290998736733e-10  9.3870785690779902e-11  4.8844959090231471e-10  1.3958539618007560e-10  1.7569582262231657e-10  9.5604012121562489e-11  7.0925008752466113e-11  6.3624627770938972e-11  1.5049628318439177e-10  9.8646110827079083e-11  1.2968311494102611e-10  4.3740461626060686e-10  7.7440907133073243e-11  5.9265140309081004e-10  1.2793020746182992e-10  2.2401992144917930e-10  2.8205474600104097e-10  5.4565250625491371e-10  1.1665374076601432e-10  4.1311470910163145e-11  6.3470990104659471e-11  1.4210841748805266e-10  1.5935387098044368e-10  5.1876720023982747e-10  8.4869005847064329e-11  1.6388551643610385e-10  2.5314277892025364e-10  1.3827528662290840e-10  2.3738068092255122e-10  3.3441900690534936e-10  3.1092722753410883e-10  1.0560273762668235e-10  1.7529751017823150e-10  1.4962505630108590e-10  2.2837166156916081e-10  4.7949491570206183e-10  3.7358794784146564e-10  2.0192607104734589e-10  2.0712428171077525e-10  1.2611269919187098e-10  1.7309653935398259e-10  2.9923572898102133e-10  3.8082767635459092e-10  3.6128346544463837e-10  1.6575855723105702e-10  2.1992011560731807e-10  1.9579767364613867e-10  1.5520506210069423e-10  3.9956621725462520e-10  3.1933428576002374e-11  1.0607365938212755e-10  1.2757978869960669e-10  7.4363470732363665e-08  4.0740811683960793e-10  1.7743978685591385e-10  6.1235293786934841e-11  2.5635369901085834e-10  1.3858206113427346e-10  6.4835013778199102e-11  1.0604820470829933e-10  2.0253369865019356e-10  2.0675498828284285e-10  1.9603108992972492e-10  1.9001179868438110e-10  3.1015303248220049e-10  6.5861723048573143e-11  8.0490388262194310e-11  1.9201652339743641e-10  1.2258270284621701e-10  3.5607875561595189e-11  4.0356050550789073e-10  6.5035354822989620e-11  6.2291394287083051e-11  1.9482854123101440e-10  9.9635748791160599e-11  2.3787820259089796e-10  2.9262052524822551e-10  1.8701550589767072e-10  7.9241446278845890e-11  1.8857158218770907e-10  9.6754128681531019e-11  3.2934806181370508e-11  9.1156044652499883e-11  5.8485243075491834e-11  7.8571496756119611e-11  2.2412790549025773e-10  4.7639083012201997e-11  6.6682129744974205e-11  9.4996952472003959e-11  9.4322581352399246e-11  9.4256750836781327e-11  2.5447636980151067e-10  8.7804432717814988e-11  1.8533846549527345e-10  2.0225390946722061e-10  9.9508845905508180e-11  1.6075610675153589e-10  3.1525456923522315e-10  1.2473666956239010e-10  6.1264117454658491e-10  1.7154013352594648e-10  1.4982401762580643e-10  1.3813958542740667e-10  2.2996988940837412e-10  4.4377581734686762e-11  4.0225890103167800e-11  7.7363238761410681e-11  4.3359963133677995e-10  1.9932363574251956e-10  6.4216620988838298e-10  4.4120768386893432e-10  1.2165232079087747e-10  5.4602794757176519e-10  3.6522150285662060e-10  1.8934623907128162e-10  7.1310859016155776e-11  9.4063287532674717e-11  1.7444175742473110e-10  1.8746187107858334e-10  4.1915081699626150e-11  4.8382438844264814e-10  2.7978571298154092e-10  3.0477447437628297e-10  5.3962575805946803e-11  3.5182072320487192e-10  2.6756207212823829e-10  5.7548717449721520e-10  7.3630963228032785e-11  6.2111838299885549e-11  2.3905609987397955e-10  7.3071415357969579e-11  4.2959933831912040e-11  1.4881691296776927e-10  2.4493687924881981e-11  6