<?xml version="1.0"?>
<VTKFile type="UnstructuredGrid"  version="0.1"  >
<UnstructuredGrid>
<Piece  NumberOfPoints="4852" NumberOfCells="9430">
<Points>
<DataArray  type="Float64"  NumberOfComponents="3"  format="ascii">-1 0 0  -1 -1 0  0 -1 0  0 0 0  1 0 0  1 1 0  -1 1 0  0 1 0  -0.5 1 0  -1 0.5 0  -1 -0.5 0  -0.5 -1 0  0 -0.1608775713298009 0  0.9999999999999999 0.4999999999999999 0  0.5 1 0  0.1967448868031411 0 0  -0.3438076621769074 -0.1765785658497348 0  -0.3408712257881947 0.2273417376421045 0  0.1745015326674421 0.3499017914238433 0  -0.1881874223043584 0.5583010522741392 0  -0.5063048874833228 -0.5400634959300539 0  0.4916327731374187 0.2606819734733994 0  -0.06651611871094526 0.2036837565744935 0  0 -0.5061325913258391 0  -0.25 -1 0  -0.5645848483900311 0.5802897193445137 0  0.663056287315766 0.637260331716167 0  -0.175748533215174 -0.5399047965389884 0  -0.542650792434646 0.02676110395346828 0  -1 0.25 0  -0.2089125673358253 0.02492996361439975 0  -0.6574027828324114 0.3124751102973875 0  -1 -0.25 0  0.03864633438884562 0.5951421968838201 0  0.1952978198687067 0.131275989184609 0  -0.1374092262248453 -0.2210351149066017 0  0.372964349556865 0.61774470331757 0  1 0.25 0  0.5355652144809806 0 0  -0.7499999999999999 -1 0  -1 -0.75 0  -0.6476221332141028 -0.3251114201366549 0  0.25 1 0  -1 0.75 0  0.02757118475249542 0 0  -0.25 1 0  -0.75 0.9999999999999999 0  1 0.75 0  0.75 1 0  0 -0.02898318711980711 0  0.05315713515811361 0.1442695630866403 0  -0.07850015910482384 -0.02684682301047998 0  -0.703469975195786 -0.1328546109301759 0  -0.3236824438117969 -0.3494613319855563 0  -0.3443303020444201 0.4409777826773623 0  -0.1016023750282952 0.7664756543487681 0  -0.3864856919884267 0.7049080422462918 0  -0.05687193537596402 0.402763872737628 0  -0.08020409553372243 0.07294289088545303 0  0.3604129486797786 0.3734093596918906 0  -0.71789065485701 -0.7318907817191121 0  0.412578212286256 0.0916834763557048 0  0.6905183079428033 0.1940792424882082 0  -0.7487994412005472 -0.5295518680828519 0  -0.3891675462391465 -0.7120546124568216 0  0.7221875985157582 0.4225871615507276 0  -0.777889705397118 0.09844755467268576 0  0.1978828629981899 0.7012827791433414 0  -0.202260802727819 0.2919122130854192 0  -0.8005884786816442 0.5794629207256143 0  -0.7185342082613581 0.7678668671073806 0  -0.05228560716180916 -0.3746963635219029 0  0.5862750646149693 0.8182498678551646 0  0.821268812717786 0.807361295867988 0  -0.1045901586592582 -0.6977807579846039 0  -0.5184619889951189 0.1655000968630047 0  -0.2049983863137104 0.1276613440967281 0  -0.3631201657168761 0.0771354788394271 0  -0.3687946507836558 -0.05188102871161394 0  -0.5004009344713035 0.3985822024861674 0  0.375 1 0  1 0.125 0  -0.01311443286351871 0.0714698223555717 0  0.0616684889538076 0.3956606874789896 0  -0.1734518177573323 -0.1224620468702415 0  -0.2453546391415942 0.7755013663980742 0  -0.625 1 0  0.5349551080433254 0.458425198022805 0  -0.5778839804515572 -0.8310445947512644 0  -0.2574330596338275 -0.7841279595482649 0  -0.321075552030492 -0.5108429460699472 0  0.8344469284198557 0.5979477024370504 0  -0.5511065274128027 0.7923395106696995 0  0.125 1 0  -0.06859135032631528 -0.09299861206772704 0  -0.4978402740148186 -0.1436742284042987 0  -0.8749999999999999 -1 0  0.02813435285480605 0.04205827649163869 0  1 0.375 0  -0.875 1 0  0.05719151453076018 0.7959165816977445 0  -0.1963774087385919 -0.3760991974761727 0  -0.07479162770145355 0.5744582999580445 0  0.2377391892089077 0.52152473721161 0  -0.7941991959419018 0.2316413549234303 0  -0.4977482987443129 -0.391479349064151 0  -0.001329953354649431 0.2744919722596547 0  0.5119762658615175 0.6434244880512859 0  0.4004718088859857 0.8091643462311663 0  -0.8078634477057323 0.4266872375768941 0  -0.06473128544188475 -0.2212949752716518 0  -0.7120531675598493 -0.01340605292160115 0  0.08987806982459245 0.05384237480088708 0  -0.4811150132392404 -0.2528051712216706 0  0.7240569895949395 0.0838837366241008 0  -0.8097152424292722 -0.4129996467053739 0  0.338386656917686 0.1562819185863813 0  -0.7958549801215979 -0.2520143445306302 0  0.2370829414751923 0.2577574584865661 0  -1 -0.875 0  -1 0.875 0  0.1842943378077689 0.04932170293424242 0  -0.2496659754718018 -0.2304329408193319 0  -1 0.3749999999999999 0  -0.173211995971524 -0.04112242383814758 0  -0.6517699559344801 0.4705608237140056 0  0 -0.07736776745332727 0  0.07994510141668007 0.263200713728202 0  -0.375 1 0  -0.2205067912436038 0.4285381673471658 0  -0.1225756978046826 0.1522499293884699 0  0.1337507991663397 0.5578471717986141 0  0.1317985106757723 0.196689992459283 0  -0.4788362437097067 0.2729375250384233 0  -0.0461181215050493 0.01450967799010142 0  0.8513413740028282 0.3729096267250286 0  -1 -0.125 0  0.2867733946596399 0.8383821981031369 0  -0.1135323237347609 0.3166890132736944 0  -0.125 -1 0  0 -0.7575037395175258 0  0.07821397079968176 0 0  -1 -0.375 0  -0.375 -1 0  -0.625 -1 0  0.7474787146812756 0 0  0.625 1 0  0 -0.2918843213980812 0  -1 0.625 0  -1 0.125 0  -0.9999999999999999 -0.625 0  0.3284075310660084 0 0  0.004929205892015135 0 0  -0.125 1 0  0 -0.006571003003944568 0  1 0.625 0  0.9999999999999999 0.8749999999999999 0  0.875 1 0  -0.5651998391260471 -0.6785067378109207 0  -0.006221376344411631 0.1623216937910161 0  0.363528370357298 0.2667359861380609 0  0.6537625501748807 0.2975747420278936 0  -0.855751997180878 -0.6483625172478626 0  -0.8642393862738079 0.7879603783431012 0  0.4323316965778433 0.5052960189268793 0  -0.4005294716835804 0.8567237591594188 0  -0.7798128956969451 -0.87576226838412 0  -0.8714001099633132 -0.7855456729291889 0  0.1547326541506735 0.8437050364040199 0  -0.6615108711425429 0.1551369193942573 0  -0.5810961583160997 -0.06383934989991981 0  -0.8559117251753917 -0.06238014164256928 0  -0.2998305246918627 0.5654103036603947 0  -0.427472892907499 0.5729657477183268 0  -0.3802206414193927 0.3347290496112969 0  -0.6214216936835587 -0.2175490670652632 0  -0.275949107738328 -0.08995922577389057 0  -0.6424333980773389 -0.5911228297010152 0  0.8597722117125132 0.267845881438827 0  -0.03325189685010398 -0.03224825327977793 0  -0.05642098432200856 0.1159658878444619 0  -0.1366577611068532 0.4359352829034241 0  -0.1213440213790768 0.03339631900539729 0  0.5381673636173132 0.0657743004501308 0  0.5804075594321267 0.3635681227471513 0  0.6929193678091877 0.7769361409278219 0  -0.7943146641342161 0.881757057009345 0  -0.6456181005310562 -0.4318428524908039 0  -0.1161102332226087 -0.3994538936362745 0  0.8720912782061926 0.4912522488851278 0  0.07496768891217623 0.09552627100140525 0  -0.6660393470644126 0.8689962686597037 0  0.4560764314933385 0.3547563142670727 0  -0.02651682370409675 0.03566872864967532 0  -0.4113656721987981 -0.4427624162045193 0  -0.36462038177168 -0.2704915409549996 0  0.3251568470461071 0.4856589175599976 0  -0.1995204255657115 0.2044038891072365 0  0.7066595167446653 0.5348536002009689 0  0.2629289157669097 0.3600205139417607 0  -0.3776502947023721 -0.8522340462106774 0  0.1095598388304637 0.6850287620734431 0  -0.2853435027145115 -0.6140390018645373 0  -0.4434465589491238 -0.6223077158778872 0  0.2978226445337166 0.6951175413911286 0  -0.8761177662202353 -0.1752745282668606 0  -0.1815322258065391 0.8559206030619494 0  0.4556898454044389 0.1663054260990683 0  0.2805830265815392 0.04777153570642162 0  -0.1448510082140715 0.6606388681593918 0  -0.01235402326471163 0.7115455899985466 0  -0.05401482277371113 0.8759916457753177 0  0.004242848150297112 0.4738709265617606 0  -0.391847908662304 0.1561949127000996 0  0.5498805548386673 0.1355026669802422 0  -0.4792180264360302 0.6849680327106898 0  -0.8528878554141244 0.3348197924097271 0  -0.09112529045730489 -0.5379596844978984 0  -0.03059469997425353 -0.5530646935797479 0  -0.2149428801557953 -0.2895872881258134 0  0.8684306415458847 0.1525892432917239 0  -0.1685352998428741 -0.6622948155398748 0  -0.8902158525694018 -0.5300898624168294 0  -0.2857881094852399 0.3420370200013703 0  -0.6790421110504491 0.5768914398876538 0  -0.8983275758217389 0.5327892000894908 0  -0.8991541345161201 0.6620567826554905 0  -0.6476312122870618 0.07412380110470947 0  -0.8604920514508057 0.02928406017549333 0  -0.8894094001583854 0.1690364996476318 0  -0.133089151466116 0.2320806575914424 0  0.1610248093781655 0.4501504052714088 0  -0.0443611986407474 -0.1257619702146931 0  -0.7554411246501703 0.6721333212878571 0  -0.6053040098264285 0.7003591631995478 0  -0.257930910981363 0.08030678840962244 0  -0.2526961146137239 0.6517563850448571 0  -0.02724330073562833 -0.005667851751431756 0  -0.4962673175190719 0.8777391989453197 0  -0.4806638394409444 0.493977320118217 0  -0.2944303403675907 0.1465844997149648 0  0.001294434601138625 0.02295002845104851 0  0.7805953923494862 0.6864064605847822 0  -0.4715805414765114 -0.825478106484599 0  0.2727356024862881 0.1981360901523688 0  -0.148150637113302 -0.8632238304811 0  -0.06539343762356715 -0.8298193155498695 0  0.4454057504413348 0.7087876925516686 0  -0.1174946243852441 -0.290011450103218 0  -0.2681849695709059 -0.02546259386394462 0  -0.8943617316154853 -0.8970712038734224 0  -0.5766044707313129 0.2404721372214445 0  -0.4802793246108794 0.08968405481495346 0  0.4928227648512837 0.8275997025600856 0  -0.02835583913793444 -0.2604857741891015 0  -0.311806658542112 0.8760178268205496 0  -0.1453570150671018 0.08201694840171973 0  -0.4731022398083363 -0.03419668913020855 0  -0.391958449695454 0.01327566201082543 0  -0.2953646247691989 0.02884322186833662 0  -0.3884892805395754 -0.1206796170778224 0  0.8886590941674766 0.6997405764750436 0  0.7933841918548041 0.9115005386561839 0  0.5774878930135598 0.211098140117008 0  -0.5628542539070884 -0.4721062754575804 0  0.6008216827470674 0.7089197943653506 0  0.6793058751598188 0.8894628266891481 0  -0.05316102099592349 0.306855872736112 0  -0.9025845658585745 0.9050223310329382 0  -0.1291668162272524 -0.06655980623196171 0  -0.1708362522116511 -0.1833475134593802 0  -0.2551573225627668 -0.14414641346220
[...]
<PointData  Scalars="w"> 
<DataArray  type="Float64"  Name="w"  format="ascii">1.6624572553734291e-10  1.0242980732128802e-11  4.4510329189930043e-10  1.6239116113123665e-09  6.2507791604121648e-10  1.5652992670960083e-12  8.6368466332629931e-12  7.3509773179731643e-11  3.9247073252265320e-11  2.0695033137234038e-11  1.0059391634208089e-10  9.3474676212648037e-11  4.0819764326118152e-10  2.6263351545091662e-10  8.8820362030110362e-12  5.5638041006185860e-10  9.1803649677956663e-11  7.1503207674857896e-11  1.3181317286332254e-10  3.4207080945462341e-10  6.6864146059946637e-11  1.0562530792827193e-10  5.9461601924666574e-10  1.7404706793376639e-06  5.8147136358436573e-10  1.0353047701608829e-10  8.4924332984124093e-11  1.6954322579266755e-10  7.5737961910982779e-11  1.8637455019580678e-11  4.8217339296196607e-10  9.4465221863348140e-11  2.3035368241730810e-10  1.7479965924741044e-10  4.7296727953611500e-10  2.3460141627175250e-10  7.4920079766781279e-11  4.6354699774965886e-10  5.9668265743339961e-10  3.0223376519929851e-11  4.9368919463093773e-11  1.0417697692548698e-10  8.8766563827393955e-11  1.8823457629588007e-11  1.0584435476732135e-09  8.9125662007975504e-11  3.1388335534539934e-11  9.1848796395706831e-11  1.2761282432606901e-12  5.9868808010601825e-10  2.3102476332060568e-10  2.2790088469559151e-10  7.9667536362710744e-11  2.5623782202328145e-10  2.5308971801197195e-10  1.8949586374063823e-10  3.3893501120578994e-10  8.8461660376813132e-11  6.3006329936922651e-10  2.5035665058465221e-10  2.9793441792207052e-11  3.2127790912587875e-10  3.7487934668116997e-10  1.3924725100002420e-10  5.2871372271587032e-11  1.7397066994379440e-10  6.7981284270723301e-11  1.7102087701942409e-10  2.3240135681465715e-10  4.3796592039556181e-11  6.1728686107828919e-11  4.4268280178450778e-10  5.3773452883682523e-11  8.4323929714404267e-11  1.6648563437159278e-10  1.6578915814447218e-10  2.6502550709888343e-10  2.8610959147113673e-10  1.8219189139869253e-10  1.8479975265250083e-10  6.2618635437875883e-11  2.5138802779556021e-10  2.9112889921476604e-10  1.9746244774586248e-10  2.4135180064393421e-10  1.1808749994046632e-10  4.4170921644586899e-11  1.0708838227223015e-10  9.1563200139774812e-11  2.5473749609014490e-10  6.9313211898174296e-11  9.4272285782361946e-11  7.4038914797678018e-11  9.0901416417822686e-11  4.0774031158957883e-10  2.0601480706146741e-10  2.4658011241546136e-11  7.2154564431805896e-10  2.5131032799065288e-10  3.0657469499593509e-11  2.6372745884221901e-10  4.2127231997059924e-10  7.2244784796996116e-11  9.6056735223564622e-11  1.5156665540331462e-10  6.4335737799576247e-11  2.7887468029576805e-10  7.9815662997285813e-11  1.3967976699696079e-10  6.2413801587445199e-11  3.2317180735542224e-10  2.3372483475275869e-10  2.4857903739027174e-10  6.3191519260514547e-10  1.2211556758772354e-09  1.4676996505330292e-10  1.7055659985545994e-10  1.0136673249699852e-10  4.6725397952111315e-10  2.5022283346062374e-11  2.5193508108650821e-11  2.9115811616861883e-10  9.4742190430765379e-11  5.8351759915169894e-11  5.2032128967876335e-10  5.4687214794237849e-11  6.2575767418233434e-10  1.2092476317540158e-10  7.5488992253726941e-11  8.1693318379195704e-11  3.5607728904700480e-10  1.6786393888094923e-10  4.7591067792061610e-10  1.3029324316037087e-10  6.8724845532705721e-10  4.1730240279995471e-10  1.0446096939744496e-10  5.0266534840424595e-11  1.3219560128538916e-10  2.5685653411549226e-10  4.0012183861183406e-10  6.3994901530228406e-10  8.6162967431012245e-11  1.1892582063442412e-10  6.5694748585498570e-11  6.6178367486094556e-10  8.1105272560523293e-11  3.3705529733104346e-10  1.4042552294737421e-10  1.1924078213206183e-10  1.9136317751261373e-11  2.8875507227761447e-10  1.4273240271032041e-09  5.6908550922211312e-11  9.2434006440378281e-10  7.5237896303664714e-11  2.3378805929891031e-11  2.3560344700786318e-11  1.1883656371411137e-10  5.9380948873921683e-10  4.5585657557502976e-10  1.6073934015424076e-10  1.0868487267031579e-10  1.5979182912537242e-10  1.8268273641260357e-10  5.5944772379188069e-11  7.3942043036935594e-11  1.9719233943737341e-11  5.7740053463972705e-11  2.7805011414183277e-10  9.1690978730207933e-11  1.0340698922061860e-10  8.1359319711154759e-11  9.1956488307096321e-11  5.2259267923835833e-11  9.2669482817007919e-11  4.6298091953447263e-10  5.4518546912662553e-11  1.6333108196336198e-10  1.7976700511248704e-10  4.9099254824980883e-10  1.9441122234687180e-10  2.9764022385846701e-10  1.4602491893516070e-10  1.4316180690314303e-10  1.4155186811551614e-10  2.0490933694677123e-11  2.7039061543640104e-10  6.4836795405978494e-10  2.4419400471142199e-11  2.6777133631769468e-10  8.4952899646662404e-11  1.5631967716877713e-10  1.2561542898886962e-09  1.3761594146483664e-10  1.6755070752298821e-10  2.2924838218868485e-10  2.9149883178980981e-10  1.0147084794509917e-10  2.0485797915809787e-10  4.0982538575322931e-10  2.1161480950892694e-10  2.3517720960405991e-10  1.0885781463101873e-10  1.0896105498767158e-10  1.1017224375907382e-10  6.7187561823994245e-11  2.1003129332156040e-10  9.1480741755367212e-10  7.6723765826805683e-11  1.0560454044695660e-10  7.7032360163487036e-11  9.5709512257526425e-11  1.6171157817588956e-10  3.7880758179186546e-10  7.6452119438804200e-11  7.8748783587014190e-11  7.4378538679816781e-10  6.0655415977821723e-10  2.9891147791514967e-10  2.0104046686356545e-10  7.7643020958100118e-11  7.6461208694303818e-11  3.3124235361537424e-10  5.5619145332487013e-11  7.8852229616458373e-11  4.8608576450475452e-11  9.0115108330351485e-11  3.9580716078670068e-10  8.7128514226886177e-11  2.0116291493323700e-10  1.6242451880805669e-10  9.4873413665858668e-10  5.9101193263315905e-11  1.8840697680311334e-10  1.1766379677975802e-10  1.0844649599344259e-10  7.9431349668323994e-10  7.0544776131389227e-11  8.1274565503410475e-11  1.1775066031857675e-10  1.2924730830368309e-09  3.8926801854899141e-11  7.6648534373624877e-11  2.8619809327978403e-10  2.5237828526637333e-10  3.4118509959763105e-10  1.7352952512226438e-10  2.0604394881415707e-10  4.1121060895990553e-10  2.8434517945480215e-11  1.0181770594352101e-10  1.2567803929000912e-10  3.6252598025354603e-11  2.7172241916807467e-10  4.2238801484758522e-11  3.5124193083984044e-10  1.3600619090029884e-10  1.1029615355588683e-10  1.9501399049424445e-10  5.0200742813292983e-10  7.0524808536928004e-11  2.5926352760911592e-11  1.4478318038191946e-10  8.1010068605585325e-11  5.6604753726919544e-11  7.1846328006908757e-11  1.8229604043431337e-10  4.7672763905051939e-11  2.7379814528052645e-10  2.6216927320698502e-10  1.3320700140917230e-10  1.3469941443007767e-10  1.3238073812599580e-11  7.2160994187652841e-11  1.5239122719486260e-10  1.6035504906167219e-10  5.3903432078102203e-10  3.6570349188159637e-11  7.9880290191415189e-11  3.2607269847524730e-11  2.5420815045513232e-10  1.2154782076136784e-10  1.7663127943238929e-10  7.5260391974334680e-11  8.1892106960577511e-11  1.2071560294354919e-10  1.9825666151714683e-10  2.2681295890264880e-10  2.6227217455053646e-10  4.6004161474985847e-10  2.1353951473422992e-10  2.1501279057512892e-10  1.4024269458576052e-10  8.0165699786820750e-11  1.7220473923481705e-10  1.6722106530864467e-10  6.4989143996872598e-10  1.2457985408087919e-10  6.1016960040023990e-11  4.1671079099139815e-10  1.9904192516284246e-10  1.9493103971086258e-10  1.1710403968284062e-10  3.1345133830906921e-11  4.3762175150084065e-11  9.4476191645722607e-11  7.2387432731064181e-10  3.0711900123133078e-10  1.7953236203051749e-10  1.3165823783576837e-10  3.3409349431899408e-10  6.7608559578656422e-11  1.1181460718034933e-10  3.6198608814689975e-10  7.4726240931198602e-09  9.5407283456934763e-11  2.9198141732093723e-10  6.4341502586707399e-10  1.2930691008776143e-09  2.0939117273790422e-10  1.6212885242438542e-09  4.3847150585867900e-10  2.2616452745410515e-10  1.2013457294758100e-10  3.9311115629712491e-11  6.3522073310194441e-11  1.2627448326545103e-10  1.5207087789971898e-10  6.1094716408156519e-11  1.0110660329203472e-10  1.0808346661249173e-10  1.2704172344595726e-10  2.0322851000221939e-10  5.3622356765355177e-10  3.2597827865288378e-10  1.6404579089075862e-10  9.4081447975296583e-11  6.0900133101096900e-11  5.8680434938315303e-11  6.8302245097755865e-11  1.7799886664553166e-10  2.1203484662538942e-10  1.0161108513182087e-10  9.9723748964555574e-11  2.3169550139342177e-10  1.3246477478118888e-10  6.6456239894043537e-11  5.8367103766339206e-11  1.0567948847628265e-10  3.2883410793772330e-11  1.7526466721461435e-10  3.1561758315941802e-11  1.6219346108101860e-10  1.8014716908833643e-10  1.5499139138946301e-10  3.8436046878203846e-10  7.8935619538786676e-11  8.0656428372490896e-11  1.3844308631837174e-10  2.9028805974448890e-10  1.4827104119323334e-10  2.6194453587948548e-10  1.0824814625670956e-10  1.3072435926134480e-10  1.4510708777632633e-10  2.8511247432182338e-10  1.3028749141297794e-10  3.2383694556034642e-11  1.1178353057234507e-10  1.1060165867276754e-10  1.4461165983025916e-10  2.3856845309732410e-10  1.6328749009000655e-10  3.3735742303227432e-11  1.2745410437424587e-10  2.3268708808749449e-10  2.8063976373385686e-11  3.3103052787148781e-10  1.7134730703229614e-10  4.2442944436471129e-10  1.1405280444474237e-10  2.2209858821421018e-10  3.2011720330257129e-10  7.2845593579301280e-11  1.0217479435120534e-10  2.1109859676570482e-10  6.9613626569428269e-11  4.9760499404813167e-10  1.6539616603166788e-10  9.4654539389872059e-11  1.0503966780195777e-10  2.0255698892964592e-10  5.6666068400454018e-10  5.0281159470928346e-10  1.7592793505223161e-10  1.6504620498719247e-10  1.9826738048307892e-10  3.8815336270404259e-10  4.4573714618793227e-11  2.1593549215600506e-10  8.0362690887292406e-11  1.2852105660004399e-09  1.1736663791598718e-10  4.5569099198258566e-11  6.0383016339827422e-10  3.4273144089610127e-10  2.4688506702446494e-10  1.9907092684492278e-10  6.1362789118182703e-11  1.4833143450398226e-10  3.2088581958453966e-11  4.3605307042527753e-10  7.8256812643472450e-11  1.3248196205068105e-10  1.2545715945378732e-10  6.4296569394402537e-11  3.4465439022981596e-10  4.1806960121357469e-11  1.1223398534349595e-10  2.5163530042904801e-10  1.8189157903418442e-10  7.5465387866247231e-10  8.8673312345635934e-11  5.8974211405279546e-10  1.3960475619136549e-10  3.7686387806422345e-10  5.1923967415643093e-10  2.5199504458906816e-10  1.5440824493820178e-10  2.8041225014425612e-10  5.0880048212786382e-10  3.3927705447885011e-10  7.2139412157507602e-11  4.7176039403552088e-11  1.6962233907140654e-10  3.7468008352024301e-10  1.7672371070013140e-10  1.2228250263613123e-10  1.6256250969607683e-10  7.7213620553701499e-11  6.7833931076181384e-11  1.9689964902792904e-10  5.5778768098192859e-11  2.0163668116739006e-10  9.0219043361655846e-11  4.9901167461844561e-10  4.6779188320314845e-10  7.9502330885332881e-11  4.0925382587283479e-11  4.0407519281764640e-10  6.6674357630525959e-10  2.6001611568577332e-10  1.0645593255970613e-09  2.9825370208547579e-10  3.2464270889025992e-10  2.9173263974411329e-10  2.7758513127397363e-10  9.4503022415526797e-11  3.0224394178060227e-11  1.9196193159347509e-10  1.0398298555081128e-10  2.0903779448655952e-10  7.4980776166760443e-11  1.1626037256576586e-10  2.0497394372154950e-09  1.7792755650640202e-10  7.8844913742671028e-11  7.8977737996411918e-11  4.2325183132561555e-10  2.4814610093584119e-10  1.9121990234223194e-10  2.1081350584462486e-10  4.3097304997822499e-11  8.2007140733421580e-10  2.4215205870828686e-10  5.3340693915884493e-10  2.4785949420978416e-10  2.3391507430025073e-10  3.0342652255011187e-10  9.4120953323820473e-11  3.2464333522493045e-11  3.5281600780874847e-11  3.8503087721071518e-10  3.4716207574531741e-11  1.1172016701267898e-10  1.0574431626498909e-09  7.4327249595033445e-11  3.3207441710402849e-10  2.5541154074752093e-10  6.1074437129320523e-11  5.8131583466812528e-11  1.8612248665049207e-10  2.5055574446155358e-10  4.5902301402722492e-11  1.1296406039154480e-10  1.5497546166708570e-10  7.6063666545074571e-11  1.6290780223816644e-10  2.2066207197025267e-09  3.1943629966714520e-10  3.2170229051271069e-10  1.0912983324713752e-10  1.0296283306941727e-10  1.7767800874689745e-10  7.5823964961622720e-11  1.3086553861605784e-10  4.9002931959875752e-10  8.5605004100265419e-11  2.3009103876371156e-10  2.0421195401243140e-10  1.4076038964286138e-10  4.8841319432004673e-11  7.2902833831726243e-11  5.1444571658984267e-11  6.9537161586752532e-10  1.0253135509524762e-10  2.2018425086249025e-11  5.7848574697079514e-10  2.9328330355235327e-11  6.2506091188337076e-10  1.1493256319049407e-11  1.4189599109615828e-09  1.7529891831424314e-10  2.5143504627452161e-10  9.8609424374734828e-11  2.8263469152432915e-11  8.0477601074218051e-11  2.6981920654879043e-11  1.9253862115211364e-10  3.7368406071224251e-10  2.6996081303843023e-10  2.5854909056813063e-10  1.2941435038533561e-10  9.2463609745404005e-11  6.1360384366695548e-11  3.6385884225314913e-10  4.9112473333361173e-10  1.0043858211447863e-10  9.5903969140779093e-11  1.4107671654322805e-10  7.3482389924323118e-11  4.5089449065905468e-11  5.2060024895606906e-11  3.0901890651600047e-11  8.6637762813376999e-12  1.7260293938827915e-11  9.4599770319561014e-11  2.2267295727160771e-12  1.0880574803825687e-11  1.9137994608302306e-10  3.5228525784356633e-09  2.1548582852735193e-10  4.0048807085867683e-11  2.2107434629620152e-10  8.9085181804613500e-11  1.0964972353287712e-10  4.2302617129528578e-11  1.6539859669437113e-11  8.4522407703749622e-11  8.3936065322559089e-10  7.6897860815663240e-11  1.8390981063886490e-10  3.2192038812691184e-10  4.8312042376949492e-10  9.6389073197299240e-11  1.0109121710590553e-10  5.7055998480485060e-11  7.6640828837960566e-11  1.0640422246179007e-10  5.4232222720089370e-11  5.8804209541947104e-10  5.8448309242930708e-11  2.9318912061765386e-10  8.5886153519096957e-11  1.2650499725747492e-10  2.9549343466800070e-10  4.0402360504215390e-11  5.9928153380080360e-11  2.6884220181519735e-10  1.1387932756544559e-11  1.0989066975325000e-10  8.7578249359781445e-11  7.5062161540192752e-11  5.7152514712410342e-10  1.6429372681848381e-09  2.7978355577000331e-10  2.9634109616041616e-10  8.9742182346280679e-11  6.5989114106836840e-11  2.4702761464891477e-10  1.1259618501174044e-10  9.3771172274130015e-11  1.0109123273679919e-10  1.8778418406196274e-10  7.1347010387805106e-11  5.0161844279899556e-11  6.7702449168925566e-11  3.8263098268459048e-11  8.3047608896968434e-11  1.9819729036791662e-10  1.6390220913592868e-10  1.1377594109473584e-10  2.6995818175570034e-10  4.4810228875937230e-11  1.3426872949596664e-10  5.4239664795858616e-10  6.3692737125484448e-11  1.1757445395210879e-10  1.2523362636250412e-09  5.6396926371202395e-11  3.5435976205658790e-10  5.4592077773203689e-10  1.6177546857508634e-10  1.2383480184365350e-10  1.2618589761750055e-10  8.6528504723992571e-11  2.6352178632229435e-10  2.9690805492012830e-10  1.7603626790077711e-10  4.8790290113180221e-10  4.3148635673389694e-10  1.1570917315713291e-10  2.0100255108194124e-10  6.3515257316168463e-11  8.1527128092559932e-11  6.1001929507658428e-11  2.3525348298753947e-10  4.0244601800168285e-10  3.0982620424167649e-10  3.3127138749118201e-10  8.3752579479588505e-11  2.4280809844277033e-10  5.0574279456220980e-10  1.6175472107684840e-10  4.5905948796489345e-10  1.8019611360316062e-10  1.3718745142787264e-10  1.0988129265372092e-10  5.0083303724345335e-11  5.1722784276335602e-11  3.2800239731521890e-10  6.0321423670263512e-11  6.2121202202586455e-11  1.2543178185425838e-10  3.2228962365870179e-10  3.1620641012575029e-10  1.5751474903904187e-10  1.1703058875924862e-10  6.5290167014343507e-10  6.6380175884253858e-10  1.7893632863867579e-09  2.8602844801042343e-10  2.0874646719157191e-10  4.6634423461624766e-10  4.5461304874466862e-10  1.2908750353988292e-09  3.1152006940413763e-10  2.3437022432588819e-10  3.1781553762322961e-11  1.2295016272189368e-10  3.1360234972067549e-10  4.9988625387845102e-10  2.1770821485231895e-10  6.7368627115104365e-10  2.9192791832430639e-10  2.0891755321962014e-11  4.8110739724152410e-10  3.4170228655946847e-10  3.7881440368957482e-11  3.4133700350009509e-10  4.1317564670989395e-10  5.5839840930323186e-10  1.4681363582327820e-10  6.7679326433502750e-10  1.9378592838305370e-10  4.6583706710768004e-11  1.2651428910870864e-10  1.3078029029762658e-10  3.1962231045662581e-10  7.5080329364476784e-11  2.5068705999068147e-10  1.8998466476081868e-10  7.8646475592863466e-12  2.3162095212269436e-10  5.5711150553028568e-11  8.8463060587221947e-11  1.2056240067513619e-10  6.7413469888265991e-10  4.2944822463397967e-10  3.1885265316894941e-10  1.1663447739763912e-10  1.2666366045241472e-10  1.0335423736310873e-09  6.1564742005233460e-10  1.3241533733090113e-10  1.4279533962575892e-10  9.4941051558488132e-11  4.9274670157745200e-10  1.3237413004127354e-10  1.6641745412636765e-10  9.0474620142617185e-11  6.8765143015395518e-11  6.1717734602182282e-11  1.4287856406253716e-10  9.6438342969118167e-11  1.2335327340659217e-10  3.9309689195440343e-10  7.4935977654717383e-11  6.2150097310366733e-10  1.1880516066681317e-10  2.2785616113459121e-10  2.6602559138520039e-10  5.9640684039334971e-10  1.1447767122734163e-10  3.8981594707647644e-11  6.0243538585982311e-11  1.4305039764744143e-10  1.5833350201846120e-10  4.9881879169097630e-10  8.0983133414569953e-11  1.5600020023867605e-10  2.4631259720248163e-10  1.3881730477790524e-10  2.3266262800287222e-10  3.3135816738481767e-10  3.2309865644878922e-10  9.9668578831188842e-11  1.7146958154376777e-10  1.4797752180632090e-10  2.2773192653323775e-10  4.3406809564482143e-10  3.7982549259216426e-10  2.0276326965053493e-10  1.8777084657683339e-10  1.2153685404040031e-10  1.6741975673076293e-10  3.1124019064286484e-10  3.8260845398757149e-10  3.6536526774943426e-10  1.6878405382008438e-10  2.2209546451594233e-10  1.9534884728857345e-10  1.4423262110036375e-10  3.9180407197666529e-10  3.0669840485901641e-11  1.0275290188200699e-10  1.2769735451320133e-10  2.7216848319838782e-06  4.0403788967357338e-10  1.6777922819844627e-10  6.0683803983978432e-11  2.6409374230493167e-10  1.3364493035979591e-10  6.2390030767382674e-11  1.0158966438401106e-10  2.0462509417564611e-10  2.0228977747146048e-10  1.9236011783811892e-10  1.8295054950104909e-10  3.0413788299945938e-10  6.2482851190004005e-11  7.8553890772502991e-11  1.8595985161676328e-10  1.2386866720499091e-10  3.3772998520492132e-11  3.9489999351079234e-10  6.2105347219704484e-11  5.8938439017492572e-11  1.9416906347952435e-10  9.6267945998101502e-11  2.3144486806057828e-10  2.8965819720139095e-10  3.0782722042718583e-10  7.9413011602264970e-11  1.8111920053969243e-10  9.3236096032666372e-11  3.1512819809776495e-11  8.6038399294759757e-11  5.7415705477065900e-11  8.0297864953902386e-11  2.4446428903901934e-10  4.5085625773326700e-11  6.2564476297923251e-11  9.1484010036369870e-11  9.0013076923569836e-11  9.2281583301039737e-11  2.5652669487110800e-10  8.7505405237324923e-11  1.8500626305572696e-10  2.1046432977934706e-10  1.0426283378171617e-10  1.6132544655905399e-10  3.1528604775324861e-10  1.1930978372408660e-10  6.5455905363229572e-10  1.6403049957889143e-10  1.4679810230369489e-10  1.4193122766935679e-10  2.1245358569618580e-10  4.2845752175795664e-11  3.8325295739500795e-11  7.3806302267348237e-11  4.3353306905953807e-10  2.0803491784621706e-10  6.3660531756162456e-10  4.6235891650068624e-10  1.1853859372511063e-10  5.7262616417901228e-10  3.5979935279108966e-10  1.8351875635023182e-10  6.8998019989178411e-11  9.0078078627916412e-11  1.7822246312066612e-10  1.9149596492378216e-10  4.0224694502484679e-11  4.8250237597877342e-10  2.8005483331368407e-10  3.0225532797663467e-10  5.1268974999425449e-11  3.5022023144009906e-10  2.6827042013524109e-10  6.0930305372832604e-10  7.0570256068842133e-11  5.9751896085450119e-11  2.4424679748353695e-10  6.9384041007008065e-11  4.0933556676251860e-11  1.3888007029243773e-10  2.3656031507545288e-11  6