<?xml version="1.0"?>
<VTKFile type="UnstructuredGrid"  version="0.1"  >
<UnstructuredGrid>
<Piece  NumberOfPoints="4852" NumberOfCells="9430">
<Points>
<DataArray  type="Float64"  NumberOfComponents="3"  format="ascii">-1 0 0  -1 -1 0  0 -1 0  0 0 0  1 0 0  1 1 0  -1 1 0  0 1 0  -0.5 1 0  -1 0.5 0  -1 -0.5 0  -0.5 -1 0  0 -0.1608775713298009 0  1 0.5 0  0.4999999999999999 0.9999999999999999 0  0.1967448868031411 0 0  -0.340209779230843 -0.1757659672870684 0  -0.3362792374707455 0.2238605466232955 0  0.1739451111170323 0.3456911522853812 0  -0.1846787508548834 0.554537439627801 0  -0.5033764102569687 -0.5374207090912182 0  0.4904788609652629 0.2567517145671517 0  -0.06410342581509899 0.2006871440813598 0  0 -0.5061325913258391 0  -0.25 -1 0  -0.560824030713799 0.5770545646322696 0  0.6614220766425855 0.6336532584277318 0  -0.1755265960915693 -0.537654765679718 0  -0.5384159249035061 0.02523326963022155 0  -1 0.25 0  -0.205746577521021 0.02367340259570889 0  -0.654089611643651 0.3089808465570237 0  -1 -0.25 0  0.03926901127588757 0.5912652028464117 0  0.1951109427798244 0.1285971129135015 0  -0.1357473358012217 -0.2199649520952409 0  0.3709682932348822 0.614092407569281 0  1 0.25 0  0.5355652144809806 0 0  -0.75 -1 0  -1 -0.75 0  -0.6446528004570722 -0.3230431685638844 0  0.25 1 0  -1 0.75 0  0.02757118475249542 0 0  -0.25 0.9999999999999999 0  -0.75 1 0  1 0.75 0  0.75 1 0  0 -0.02898318711980711 0  0.05430581429121418 0.1419984755369612 0  -0.07754267476232463 -0.02779290676932398 0  -0.7007423089527042 -0.1324794444723379 0  -0.3210904560197347 -0.3472364897526338 0  -0.3396917849029507 0.4368799317806895 0  -0.09978631188345706 0.7639475745649652 0  -0.3828180781356757 0.7022433985482486 0  -0.05459331810101478 0.3984289610803841 0  -0.07868852069688548 0.07182267853554695 0  0.3588693197228556 0.3691051472061491 0  -0.715748143376392 -0.7298815374280777 0  0.4118333861626191 0.08975145186271265 0  0.6899748814918866 0.1914277020294027 0  -0.7471063260559591 -0.5269364268204393 0  -0.3872322001322006 -0.7105862882851686 0  0.7215940177934012 0.4183192676484582 0  -0.7756971270023242 0.09678160027560702 0  0.1966712041012973 0.6982987167713229 0  -0.1982550581386292 0.2880289269177962 0  -0.7986340544449372 0.5771275703231524 0  -0.7163738837621917 0.7661112356771187 0  -0.05014323297489897 -0.3737286080184269 0  0.5846400766115208 0.8162940824288307 0  0.8202911314065841 0.8058312934878217 0  -0.1060842270816527 -0.6971246057037391 0  -0.5140078194352209 0.1623266828305473 0  -0.2013973716188765 0.1253548475820261 0  -0.3586527333010838 0.0750862796335664 0  -0.3646204209354538 -0.05246972498993353 0  -0.4961246325836714 0.394611980444978 0  0.3749999999999999 1 0  1 0.125 0  -0.01175516419848711 0.0711019604046732 0  0.0622362477343158 0.3913650685288936 0  -0.1710373452682052 -0.1223714968522196 0  -0.2425854157925152 0.7733961812731223 0  -0.625 1 0  0.5333121361670218 0.4538771442416277 0  -0.575808679351873 -0.8300262872984393 0  -0.257255250175459 -0.7835712031281639 0  -0.3191877689554365 -0.5083682467835718 0  0.8339257897861643 0.5951722737560259 0  -0.5483775517863939 0.7905163203453549 0  0.125 1 0  -0.06730329645414265 -0.09340399678210855 0  -0.4940305772250573 -0.1433208784202116 0  -0.875 -1 0  0.02959307834752952 0.04153001241083831 0  1 0.375 0  -0.8750000000000001 1 0  0.05735228882673476 0.7936989668428551 0  -0.1951304153080217 -0.3736873460062908 0  -0.07259074850338595 0.570647661757707 0  0.2363957919127145 0.5174970762676332 0  -0.79200503366177 0.2291722812876734 0  -0.4946765348786216 -0.3890395736102451 0  0.0002876954264675844 0.2707344909106406 0  0.5097959487434883 0.6399072221802762 0  0.3987754983827243 0.8071261730128914 0  -0.8059033097679682 0.4241320378511001 0  -0.06340408642084536 -0.2207968454166579 0  -0.7092375400028302 -0.01430935472022376 0  0.09053366576675315 0.05236233259496574 0  -0.4776611740651727 -0.251275947367079 0  0.7238610331974006 0.082783108806085 0  -0.8083180704853715 -0.4110222848009135 0  0.3375190091957814 0.1533121853950098 0  -0.7942219741170263 -0.2507992926670703 0  0.2363119686981603 0.2539762114316155 0  -1 -0.8749999999999999 0  -1 0.875 0  0.1843216807236087 0.04778269324509544 0  -0.2470068379103539 -0.2290881392620718 0  -0.9999999999999999 0.375 0  -0.1707292537078727 -0.04178134578456641 0  -0.6483838754337548 0.4671166471922692 0  0 -0.07736776745332727 0  0.08050142676920526 0.2595167814092806 0  -0.375 1 0  -0.2164184980364171 0.4243329946643171 0  -0.1197321284971018 0.1498880614491023 0  0.1332241863829592 0.5537825273519332 0  0.1319810368742022 0.1934793936016454 0  -0.4742349059744228 0.2691308854727722 0  -0.04606792883407914 0.01389457091380662 0  0.8514414379030586 0.3700389244025908 0  -1 -0.125 0  0.2855456971943826 0.8366760959025292 0  -0.1104201054507036 0.3126333304966993 0  -0.125 -1 0  0 -0.7575037395175259 0  0.07821397079968176 0 0  -0.9999999999999999 -0.375 0  -0.375 -1 0  -0.625 -1 0  0.7474787146812756 0 0  0.625 1 0  0 -0.2918843213980812 0  -1 0.625 0  -1 0.125 0  -1 -0.625 0  0.3284075310660084 0 0  0.004929205892015135 0 0  -0.125 1 0  0 -0.006571003003944568 0  1 0.625 0  1 0.875 0  0.8749999999999999 1 0  -0.5623109065441609 -0.6763508786086281 0  -0.004541693685263888 0.159978650647283 0  0.3623384806902241 0.2627783141118408 0  0.6529791379066749 0.2936863739938683 0  -0.8545410613107937 -0.6465067994516756 0  -0.8632070904372136 0.7868298205140498 0  0.4303912261918657 0.5010564466922 0  -0.3983624825603589 0.8556474261617011 0  -0.7786018248772805 -0.8747889618366225 0  -0.8703986086218403 -0.7842759684415544 0  0.1541103712058741 0.8420555528847928 0  -0.6581490304519837 0.1524200610675834 0  -0.5771809611674511 -0.06425730521116918 0  -0.8543616547100605 -0.06266108964087495 0  -0.2955133628746405 0.5618494346952428 0  -0.4232663876363915 0.5696162237428786 0  -0.375538631413743 0.3306457171958294 0  -0.6179422757636194 -0.2164218973630493 0  -0.2724275553148691 -0.09007458964046872 0  -0.6396809496575323 -0.5884998726878659 0  0.8597282723206014 0.265930962872338 0  -0.03275646972062646 -0.03293160806894368 0  -0.05455086501738423 0.1143969284851375 0  -0.1333804233012578 0.4316467731788183 0  -0.1195302236141985 0.03232360546254744 0  0.5377678675317215 0.06454077668470024 0  0.5792041691465091 0.3590455588881547 0  0.6913374701369829 0.774679312479881 0  -0.793152331178147 0.881017408808057 0  -0.6428752862877044 -0.4291918778667432 0  -0.1150689218479219 -0.3973130568341416 0  0.8721942975388397 0.4885926246877824 0  0.07600144610031374 0.09371677841502628 0  -0.6644246067160522 0.8679563861695808 0  0.4545945879423034 0.3503566440730649 0  -0.02620071548383355 0.03577720363048129 0  -0.4086402345182203 -0.4402325579139706 0  -0.3613806664027678 -0.2687895199883759 0  0.3234611554183949 0.4814891215111484 0  -0.1956685866099049 0.2012258316320611 0  0.7056147488345997 0.5307369760664911 0  0.2617673429113567 0.3557839141399315 0  -0.3764625793501215 -0.8518339313654446 0  0.1092128527368997 0.6818027648151948 0  -0.2843551195949441 -0.6119798874917881 0  -0.4408782839137579 -0.6200903762996278 0  0.296119341868885 0.6921284589595703 0  -0.8747666619222731 -0.1748202953635254 0  -0.1799006073840504 0.8548093139161441 0  0.4547364745977208 0.1632276379304253 0  0.2802811516667484 0.04662402511972469 0  -0.1420785821673396 0.6572519287974271 0  -0.01123982251987797 0.7084531767977853 0  -0.05328529565029244 0.8748975166572315 0  0.005556206759920215 0.4695399741131431 0  -0.387224173886299 0.1532342597483321 0  0.5491634982919444 0.1331134553370386 0  -0.4755684101906346 0.6821865966950001 0  -0.8513426092665952 0.3326515491770429 0  -0.09150285013833379 -0.5360948359427802 0  -0.0313528881294783 -0.5519953848263607 0  -0.213041889172789 -0.2877066025517689 0  0.8685148234107226 0.151475522756738 0  -0.1692296240691359 -0.6609318140530808 0  -0.8891106570638596 -0.5284432531924619 0  -0.2812991559603766 0.3379912223827662 0  -0.6759608579776952 0.5739062132681617 0  -0.8973829962195523 0.5312919037421404 0  -0.8982484308327434 0.6607571194353455 0  -0.6440575415688781 0.07216535272731242 0  -0.8589500003150116 0.02843226700071291 0  -0.8880164424233176 0.1678223959352808 0  -0.1298369067521613 0.2287052393336496 0  0.1603548443480674 0.4459236816066315 0  -0.04339663969146745 -0.1258158368106349 0  -0.7531825747125188 0.6699192755261051 0  -0.6021321362263964 0.697819270933514 0  -0.2540285007202476 0.07838415330741984 0  -0.2490076689260671 0.6485854658452461 0  -0.02737307413952305 -0.006363091563803319 0  -0.494238858950916 0.8769077955712575 0  -0.4764867920869791 0.4902796066555859 0  -0.2900532870858417 0.1438426387655564 0  0.002315030145372258 0.02358659935244113 0  0.7794772392220971 0.6836451682040583 0  -0.4697287740110379 -0.82472529314493 0  0.2719369345529105 0.1948133227579456 0  -0.148651377927547 -0.8631883182344657 0  -0.06600835764354308 -0.8297725953587927 0  0.4433121324039282 0.7058616067673292 0  -0.1160926290627207 -0.2885420317033855 0  -0.2645421739340498 -0.02625063697730996 0  -0.8937562497838468 -0.8964960363796504 0  -0.5725776407480969 0.236923541533595 0  -0.4757685514240064 0.08736673335715535 0  0.4911535254055638 0.8257099086773406 0  -0.02648759396584658 -0.2604282632524635 0  -0.3098929393794215 0.8752610740907485 0  -0.1427472175680636 0.08041492828730602 0  -0.4689097432813683 -0.03504986395059921 0  -0.3875689128765634 0.01196941556843583 0  -0.2913449128337101 0.02744245823990547 0  -0.3845130138507548 -0.1205198425977384 0  0.888121211949417 0.6981119142987451 0  0.7926457592548873 0.9106860205527892 0  0.5766337663355726 0.2078031684503381 0  -0.5596973816104626 -0.4693780215317278 0  0.5988315705128842 0.7059150919480283 0  0.6782488407864926 0.8882473857216759 0  -0.05082919630379579 0.3028732290160397 0  -0.9020759149372318 0.9045793106645391 0  -0.1272916092827342 -0.06711827092615863 0  -0.1686619030133162 -0.1825812165512444 0  -0.2520168906736341 
[...]
<PointData  Scalars="w"> 
<DataArray  type="Float64"  Name="w"  format="ascii">1.7574410214406543e-10  1.0388743298369487e-11  4.4665687717948569e-10  2.5924030830690290e-09  6.2401716190318196e-10  1.5725754543457704e-12  8.6914931736304534e-12  7.5160849331367281e-11  4.0718003929633633e-11  2.1162831284429314e-11  1.0801542366640101e-10  9.5974772675073453e-11  4.0209123192645066e-10  2.7762310825417278e-10  9.1684042787046669e-12  5.2393438926042834e-10  9.1007643332478236e-11  7.2443312447597636e-11  1.3068412284338066e-10  3.5665842658410242e-10  6.7345743087201222e-11  1.0462051341736879e-10  5.7387145297479589e-10  2.8217811153387810e-05  5.7989065524108011e-10  1.0862257482395005e-10  8.9074714855476771e-11  1.7154436319088025e-10  7.6739302270539613e-11  1.8897523401912573e-11  4.6800649085500779e-10  9.8192729631712358e-11  2.4384498521941476e-10  1.8125012515195518e-10  4.5326006998330444e-10  2.2667525836986709e-10  7.8221753828676271e-11  4.7781567087963302e-10  5.8642623411449239e-10  3.1326669354363715e-11  5.2793890378082541e-11  1.0832439107751224e-10  9.2796181873151115e-11  1.9918668750977146e-11  1.0475342693730236e-09  8.8191019100779700e-11  3.2187517879235543e-11  9.6307898310106241e-11  1.2454718247375115e-12  5.8791889716613447e-10  2.2051095988287012e-10  2.1335815730035436e-10  8.2739743462457090e-11  2.5368673341748966e-10  2.6164978618620036e-10  2.0506021190504608e-10  3.5733487796129744e-10  8.9451297758965539e-11  5.7785445596558418e-10  2.5200225563762765e-10  3.1305046932730412e-11  3.1439155986640207e-10  3.7884183347893057e-10  1.4438366700063018e-10  5.4244650992611450e-11  1.7838117937434069e-10  7.1056170501666427e-11  1.7820672428156878e-10  2.3325181738432854e-10  4.6249493607021219e-11  6.4622247108829817e-11  3.8767627539851277e-10  5.6898835159208698e-11  8.7981653658374447e-11  1.7073208231557353e-10  1.7087686818230154e-10  2.5690623263940187e-10  2.9124884426559129e-10  1.8293373108104426e-10  1.9560722496113596e-10  6.5371876352295305e-11  2.5228188096155670e-10  2.6193246476354811e-10  2.0144292429915740e-10  2.3401874541374522e-10  1.2521353021638795e-10  4.6969559435792556e-11  1.1034531964487073e-10  9.4482531781598424e-11  2.5447128618427157e-10  7.0047505647717259e-11  9.9670848448573198e-11  7.8522056362319624e-11  9.4791485993152633e-11  3.8955139404480143e-10  2.0989655907391963e-10  2.5542252920326685e-11  6.5143749251556405e-10  2.5709604116110206e-10  3.1789529156813502e-11  2.7763261719300218e-10  4.1912990120365077e-10  7.1203108292219977e-11  9.7523478647569633e-11  1.5771326743343031e-10  6.3992922402660637e-11  2.7365735084211344e-10  8.3663939145793767e-11  1.4678258670391094e-10  6.6311183070271170e-11  3.1175175091921182e-10  2.4761802556822729e-10  2.3140226642975838e-10  6.4474793194647050e-10  1.2086638536494380e-09  1.5019283991115053e-10  1.6489676165415398e-10  1.0299515603460073e-10  4.5816008495529111e-10  2.5964032855967565e-11  2.5816926751562182e-11  2.7759847176221277e-10  9.1809779418011948e-11  6.1474589238209458e-11  5.0142230225950963e-10  5.7779090017522882e-11  5.9581552600195213e-10  1.1871704248477278e-10  7.7283888188977449e-11  8.2957501388410181e-11  3.4190617879209550e-10  1.7365640824728026e-10  4.6433619955212114e-10  1.3595835843682292e-10  6.1839605950232263e-10  4.4520196742079859e-10  1.0961984574541350e-10  5.2304402642870281e-11  1.3010910713348349e-10  2.5744795924356829e-10  5.0442234126632964e-10  6.0261349775553167e-10  9.3258972898227722e-11  1.1956622310780508e-10  6.8963702014740958e-11  6.5581890236677795e-10  8.6454052327718059e-11  2.2373009205259497e-10  1.4831246908582761e-10  1.2486276607282418e-10  2.0123243428066880e-11  2.8295755327645074e-10  1.5718558368452771e-09  5.7199057394096592e-11  9.5824925286497008e-10  7.9288809464798314e-11  2.4577116829101536e-11  2.4368730599500990e-11  1.2201801532121877e-10  5.5954729259366795e-10  4.4507196326066940e-10  1.6106038062765164e-10  1.1510283498942585e-10  1.6785127198778262e-10  1.8790907923684747e-10  5.9039499748157967e-11  7.7876701848383380e-11  2.0507763944064888e-11  6.0370896963468164e-11  2.9580177387594964e-10  9.2651115701789559e-11  1.0631071047331938e-10  8.3354237132383457e-11  9.6730914461251971e-11  5.3571971833179316e-11  9.6297998268284387e-11  4.5579691615040121e-10  5.7110574291641452e-11  1.6409682331074155e-10  1.7132241645208733e-10  4.6312394303914757e-10  1.9862165077873328e-10  2.8220098407455381e-10  1.4280057970117895e-10  1.4513578419235930e-10  1.5033016288829609e-10  2.1117196744791531e-11  2.8773130680721771e-10  6.5872239678489135e-10  2.5692361324384454e-11  2.5116723613581892e-10  8.9398972896394495e-11  1.5799594648792742e-10  1.1051207806740713e-09  1.3813015394642557e-10  1.6409674533786622e-10  2.3399605019966879e-10  2.8777348172095053e-10  1.0615103474727996e-10  2.0463190553658547e-10  4.2019942094600356e-10  2.1879219046061502e-10  2.3990343386032561e-10  1.1039305279931637e-10  1.1285013019966920e-10  1.1338740680778268e-10  7.1648669256487440e-11  2.0820382254915656e-10  8.8288942853913853e-10  7.8271635313764262e-11  1.0902722541082785e-10  7.7941631513252473e-11  9.7103450641565000e-11  1.6282341940090958e-10  3.7715705211030252e-10  7.9232284779525310e-11  8.5631077221539377e-11  7.7917684891734406e-10  2.2116179443931424e-09  2.9423435379885433e-10  1.9979799650292936e-10  7.6574901661280202e-11  8.1231789248205836e-11  3.3698829305692172e-10  5.9007031073953769e-11  8.3675246900045929e-11  5.0402386159264589e-11  9.3747494026081096e-11  4.1620841477142335e-10  9.1109782317845740e-11  1.9762433420400034e-10  1.6640123602898072e-10  9.0421649959254420e-10  6.2086020338914837e-11  1.9943273076339580e-10  1.1543397268337096e-10  1.1265522221790879e-10  7.4491901919215342e-10  7.5538042340209859e-11  8.5543545858909626e-11  1.1828378318964612e-10  1.1067337884932786e-09  4.1163865041114332e-11  7.8087275694059925e-11  2.7869423590297821e-10  2.5165762263167128e-10  3.4502370899498408e-10  1.8291961370920664e-10  2.0370425949526453e-10  4.0405362719406740e-10  2.9515548814094726e-11  1.0587011156565470e-10  1.2856045791022310e-10  3.7781905782744456e-11  2.7327337892414304e-10  4.4346247949729384e-11  3.3261608656482308e-10  1.3644652677440559e-10  1.1065517130560285e-10  1.9179296130814839e-10  5.0298756887580144e-10  7.3253081388707544e-11  2.6982125710135363e-11  1.4495057768042897e-10  8.2364692599003042e-11  5.9654042110919236e-11  7.6413522963842897e-11  1.7931084385292377e-10  4.9816224666114983e-11  2.6314710175940114e-10  2.5420957479369124e-10  1.2906627672058476e-10  1.2845974140821153e-10  1.3678174910803394e-11  7.1493882999801285e-11  1.4626446761810006e-10  1.6934708916265360e-10  4.9620334362962788e-10  3.7099083414879804e-11  8.2569153265088097e-11  3.3636902010954761e-11  2.3829798060048369e-10  1.2644296990036436e-10  1.8572161299481451e-10  7.5253823607395688e-11  8.8383210800358765e-11  1.2109571475909703e-10  2.0348557174708928e-10  2.2377867035889769e-10  2.6188718785046686e-10  4.3727653378705801e-10  2.1439340268593219e-10  2.0969520242762479e-10  1.4580161229922752e-10  8.0307841295332681e-11  1.7178280824771063e-10  1.6672947586803689e-10  6.2405570516357611e-10  1.2953037595521730e-10  6.2791590185940260e-11  4.0665549793383242e-10  1.8960800611061807e-10  2.0929580747619757e-10  1.3453088479941898e-10  3.2739089046379544e-11  4.5018129989143994e-11  9.9311233978093070e-11  6.8563871451930879e-10  2.9268139295555795e-10  1.8144406052046828e-10  1.3704922605779877e-10  3.3887355036183510e-10  6.7869149075924040e-11  1.1078611805682503e-10  3.4913135726740587e-10  1.2383559584542270e-07  9.9416822103317061e-11  2.8220245097350852e-10  6.1250369851725812e-10  1.2268283650499187e-09  1.9718322220031310e-10  1.5242312379677651e-09  4.1770728629108165e-10  2.2585593826054065e-10  1.1773587989871726e-10  4.2156136589018679e-11  6.6307442015027634e-11  1.2666573391056380e-10  1.5759295356515201e-10  6.4219558322549595e-11  9.8901018858524588e-11  1.0756692599689078e-10  1.2835045469320330e-10  1.9238046199280509e-10  4.9617447604233436e-10  3.1871023409865736e-10  1.6642069657412339e-10  9.6485861816127647e-11  6.2023914207820024e-11  5.9467514950361883e-11  7.0889279143013845e-11  1.8283317718860079e-10  2.2752623386558287e-10  1.0642788480160507e-10  1.0620825267833022e-10  2.3985083352366712e-10  1.3705770236971188e-10  6.9960651797271446e-11  5.9863569932540481e-11  1.0571902454212422e-10  3.4466213170213688e-11  1.8738471228954564e-10  3.2996531818606443e-11  1.6100104165537906e-10  1.7932088412081389e-10  1.5359881002195933e-10  3.9898888607621407e-10  7.9888326588066167e-11  8.3742423088107075e-11  1.4500422207951606e-10  3.0856297500062451e-10  1.4502374237803693e-10  2.6343030984103757e-10  1.1142101496085010e-10  1.3610462346921434e-10  1.5794746487728805e-10  2.8198585530180576e-10  1.2755522280685551e-10  3.3863244124321639e-11  1.1770549484349538e-10  1.1251708611458018e-10  1.4857633877057986e-10  2.5356059572303394e-10  1.7113711047216887e-10  3.5228681583294576e-11  1.3006811761193983e-10  2.3709146212740725e-10  2.9460662753308894e-11  3.3032558059910354e-10  1.6358942989066859e-10  3.8829134342744617e-10  1.1286535107620954e-10  2.3781777266822658e-10  3.2625745494051041e-10  7.6081317140879536e-11  1.0606664485037742e-10  2.1870562942311988e-10  7.3810278530832722e-11  4.8418614545007657e-10  1.5998792487074056e-10  9.8673292883516363e-11  1.0885061674010609e-10  2.1031586570176673e-10  5.3982419565323547e-10  4.7662333696463091e-10  1.8015190017588683e-10  1.7240247629148705e-10  2.0880801809940124e-10  4.0312688175333844e-10  4.5793769089192962e-11  2.2620819003840611e-10  8.2381356035994789e-11  1.2384991572898856e-09  1.1863755786494021e-10  4.6245751570889089e-11  5.4816793628531613e-10  3.3412590611417829e-10  2.4790610013338610e-10  2.1102953151291791e-10  6.4577543253351032e-11  1.5430303807205333e-10  3.3581646033948632e-11  4.3904742323266307e-10  8.2610996818028007e-11  1.3874633176332966e-10  1.2785953918513229e-10  6.6283819635123883e-11  3.4903837004678786e-10  4.3630540792392043e-11  1.1851175041896874e-10  2.4598514090088913e-10  1.7917380487578625e-10  7.1093729690108632e-10  9.2929321806113445e-11  5.7495919687249752e-10  1.4802581531164456e-10  3.5357340672173418e-10  5.4780083592062122e-10  2.4372138276612641e-10  1.5552302422015330e-10  2.7192113609104763e-10  4.7981074356187902e-10  3.4376881409897665e-10  7.6150140603079607e-11  4.9621367381949788e-11  1.6343476044233590e-10  3.5605682422435536e-10  1.8680479037956679e-10  1.2703612895663582e-10  1.7214435233813390e-10  8.1398856761572042e-11  7.1568824559052535e-11  1.9964636758216970e-10  5.8263434524147951e-11  2.0789201622454088e-10  9.0875293052043326e-11  4.7896375692690177e-10  4.9586793759217938e-10  8.2322926434434484e-11  4.2144912205926705e-11  4.0334943719163424e-10  6.4782863719504198e-10  2.5916634565043548e-10  9.8286857985757917e-10  2.8779379658928067e-10  3.1680440338675333e-10  2.7208424969620098e-10  2.6563502787756783e-10  9.8037571878528862e-11  3.1496693297009770e-11  1.9470997802061930e-10  1.0648805229764883e-10  2.1595249892822987e-10  7.5590256301194258e-11  1.2322296925306274e-10  2.0385097806546267e-09  1.7691991311965275e-10  8.1292595988731303e-11  8.2576757243176414e-11  3.9854161714669991e-10  2.4307862018098816e-10  1.8988912998451916e-10  2.0832787606765653e-10  4.4710400456526904e-11  7.5508140823959041e-10  2.4200308751732808e-10  5.3659320354461016e-10  2.4871951511011760e-10  2.4314695175132602e-10  3.1273099960981976e-10  9.4618725912234812e-11  3.3134263725127274e-11  3.6242187908074958e-11  3.6726648062776241e-10  3.6415168157269224e-11  1.1761809918099205e-10  1.0153921945803879e-09  7.5238018491835992e-11  3.5170266158961345e-10  2.6325984171199337e-10  6.2090132206225446e-11  6.0197441205422071e-11  1.7998543350704068e-10  2.4513608047275601e-10  4.8444346302517086e-11  1.1372545461896924e-10  1.6130231737283588e-10  7.6178010751074080e-11  1.7018855599496519e-10  2.1178515765908691e-09  4.3100902171392937e-10  3.1940456070526406e-10  1.0693425865840754e-10  1.0773812908457080e-10  1.8880964297307018e-10  8.0773048752263276e-11  1.3472468689241805e-10  5.0014173071017731e-10  8.7396906075774126e-11  2.4293255890050960e-10  2.1536925202445617e-10  1.3893461501524544e-10  5.1452624981072664e-11  7.8323353125547416e-11  5.5800624021891932e-11  9.1872339463753565e-09  1.0690004879080046e-10  2.2129917808127072e-11  5.7042117468141474e-10  3.0845448598862308e-11  6.2058977802740221e-10  1.1766938742513969e-11  3.2664919662457877e-09  1.8311051095537970e-10  2.5019255456462863e-10  1.0530552534015433e-10  2.8919616445269191e-11  8.5393393686520503e-11  2.8101164145279106e-11  2.0738199361052197e-10  3.7236404173752994e-10  2.7166933188356560e-10  3.2762315078011551e-10  1.3432432454242229e-10  9.4680815831537814e-11  6.3927080175191943e-11  3.6054666041954443e-10  5.0314633424858311e-10  1.0621701878135471e-10  1.0120389485888670e-10  1.4754583169518730e-10  7.6366053496462074e-11  4.5872508302762586e-11  5.5336159689654791e-11  3.2451741235515703e-11  8.8778079543947255e-12  1.7906651316152946e-11  9.8818847081557114e-11  2.2661807852381929e-12  1.1134452596170485e-11  1.8500277873721037e-10  3.4892921388390897e-09  2.2537902631645676e-10  4.2607059448924034e-11  2.2121010990648093e-10  9.3164527268044091e-11  1.1273609528970392e-10  4.3929645587674252e-11  1.7236903477768251e-11  8.8746920674720016e-11  7.2585767150782677e-10  8.0085250319070629e-11  1.8346011440344422e-10  3.2405325208301422e-10  4.8370625716446711e-10  9.6515945208770989e-11  1.0205409056006551e-10  5.8679947710024721e-11  7.7314826578111473e-11  1.1279328512457623e-10  5.7499436556072948e-11  6.3244690795343782e-10  5.9290719395336011e-11  2.7730545479395408e-10  8.8594018453307649e-11  1.2808342383689681e-10  3.1251216060992224e-10  4.1782165872264017e-11  6.3692825112819795e-11  2.8748549495320587e-10  1.1980003919992287e-11  1.1361520719359224e-10  8.8678851157106220e-11  7.7240403268683039e-11  5.6102290296817755e-10  1.6140390374361039e-09  2.7939760574544562e-10  2.8883474120859793e-10  9.1030541485236985e-11  6.9543675934402848e-11  2.5531303781190366e-10  1.1763514227192249e-10  9.9830508255377372e-11  1.0506338389222541e-10  1.9912592330799643e-10  7.4246123656863342e-11  5.2722667582665114e-11  7.0775273546687510e-11  3.9777877133526299e-11  8.6538317442869834e-11  1.9115977499250814e-10  1.6207787038707694e-10  1.1178189171887866e-10  2.7258153555921681e-10  4.7309945763315468e-11  1.3662546969365925e-10  5.2105157170604971e-10  6.7130464958598313e-11  1.1843825315860242e-10  1.4103611800345893e-09  5.8306885210146135e-11  3.3762103682828487e-10  5.1019825769727647e-10  1.5805023181965360e-10  1.2897669886715592e-10  1.2584791989803391e-10  9.0306283723010426e-11  2.4747643982899904e-10  2.8566377989874514e-10  1.7748289187667738e-10  4.6711534730643978e-10  4.2247462239839141e-10  1.2210752737024191e-10  2.1134859371578635e-10  6.6733403473511184e-11  8.5104028845570590e-11  6.2891880862704545e-11  2.4012072226934617e-10  4.0070503001917740e-10  3.0758916788273123e-10  3.2583189168578648e-10  8.6247822354101696e-11  2.2720869863740470e-10  4.7883916083817359e-10  1.7214699048269316e-10  4.8201221115104705e-10  1.8386625752943859e-10  1.3829110886659328e-10  1.1204496760126413e-10  5.1367102766509403e-11  5.4519802466322332e-11  3.3136832312064901e-10  6.3128651378859780e-11  6.4754667821110524e-11  1.2952662255176482e-10  3.2169460123456248e-10  3.1905560837634291e-10  1.5763184924198805e-10  1.1770620283921231e-10  5.8908577620910870e-10  6.2621820864888331e-10  1.5945055921459312e-09  2.6724178795840261e-10  1.9867119301489872e-10  4.4230672683807591e-10  4.5753765920344386e-10  1.1634779602348533e-09  2.9628275944627018e-10  2.4709604984723813e-10  3.3327438327716535e-11  1.2970545980784245e-10  3.1509639072628497e-10  3.6665453561440082e-10  2.0933172360696630e-10  6.6938583882543680e-10  3.0581563619443183e-10  2.1687540446844040e-11  4.8585135050984988e-10  3.3033487768971765e-10  3.8923245263354660e-11  3.3402444398691344e-10  4.1395389432744217e-10  5.4399368179901821e-10  1.4578563019875048e-10  6.7156521055232861e-10  1.9610329584157438e-10  4.7586692354970928e-11  1.2779996088982079e-10  1.3305375395200719e-10  3.1407030292403691e-10  7.9290048292654944e-11  2.6494027879381813e-10  1.9630333279311366e-10  8.2327375333435702e-12  2.7992563451529633e-10  5.8124760916199027e-11  9.0592990852251502e-11  1.2428629777984830e-10  6.3088373647405735e-10  4.1078253722454925e-10  3.0351621000671523e-10  1.1741833749179936e-10  1.3245684741364006e-10  8.9648234592568200e-10  5.3816474952742251e-10  1.3466247654311065e-10  1.4289362127433176e-10  9.4598029022539283e-11  4.9089485864699792e-10  1.3882607302908613e-10  1.7513644593152558e-10  9.5438051258346834e-11  7.0913132039171205e-11  6.3564345972776982e-11  1.5023357025376447e-10  9.8468834752840827e-11  1.2951504607745883e-10  4.3517336601845249e-10  7.7163227556986980e-11  5.9282308291608752e-10  1.2709033297376276e-10  2.2430969007165983e-10  2.8111726804449426e-10  5.4802683032107487e-10  1.1677980340542087e-10  4.1048818170666508e-11  6.3248544441915272e-11  1.4218288305279626e-10  1.5932215409033442e-10  5.1714275581457842e-10  8.4622659830891763e-11  1.6305960041550110e-10  2.5270900986885324e-10  1.3956121325913630e-10  2.3694217974295192e-10  3.3514329441679087e-10  3.1127032665397928e-10  1.0500658423204062e-10  1.7506231353261593e-10  1.4977445785983116e-10  2.2835535796638508e-10  5.9921014633237369e-10  3.7338834174452059e-10  2.0180293660634795e-10  2.0598566217381393e-10  1.2563822173130849e-10  1.7284237418728947e-10  2.9972594988943300e-10  3.8073249411853477e-10  3.6142917083930681e-10  1.6602854483492711e-10  2.2028521554604054e-10  1.9526570000327619e-10  1.5457508665953379e-10  3.9894100931361113e-10  3.1921229455186463e-11  1.0582542653876851e-10  1.2734892796341929e-10  4.2980548579012354e-05  4.0813127020767118e-10  1.7676091487167757e-10  6.1198332769949730e-11  2.5660031733435878e-10  1.3814906389272846e-10  6.4725327114885166e-11  1.0582886857845282e-10  2.0250272541253952e-10  2.0661446051565981e-10  1.9550055420983705e-10  1.8950792232669713e-10  3.1028504403715626e-10  6.5653710552173222e-11  8.0403603160636479e-11  1.9162623934184231e-10  1.2299145109722321e-10  3.5440565297612029e-11  4.0319538332694354e-10  6.5032613758914376e-11  6.2058187781609317e-11  1.9462059882952357e-10  9.9549456478882261e-11  2.3762343993539510e-10  2.9217328993013654e-10  4.6895998507100675e-11  7.8817315363725894e-11  1.8826653057516020e-10  9.6882134605588126e-11  3.2650025941774537e-11  9.0762900683759617e-11  5.8580168459558167e-11  7.8731133260632459e-11  2.2481437764261670e-10  4.7433310235040065e-11  6.6553485794538781e-11  9.5066730208003561e-11  9.3929948709214487e-11  9.4262413923852005e-11  2.3820486244515484e-10  8.7886390746522234e-11  1.8471304412135965e-10  2.0530403769601396e-10  1.0134206706186322e-10  1.6076099965538969e-10  3.1516585500469782e-10  1.2471367151071933e-10  6.1406561088428298e-10  1.7132163850196645e-10  1.4974855677377165e-10  1.3856135538290713e-10  2.2887064835090720e-10  4.4243979034134691e-11  4.0002216773397721e-11  7.7209587403331365e-11  4.3283602523969394e-10  1.9991394836256959e-10  6.4113565830398829e-10  4.4197709163854933e-10  1.2156347071069618e-10  5.4672639158769076e-10  3.6473959699102211e-10  1.8904662041986245e-10  7.1228976914046919e-11  9.3971151094894998e-11  1.7471266625861966e-10  1.8778310693545956e-10  4.1833126173672639e-11  4.8233477055374828e-10  2.7940130070006217e-10  2.9895443261696348e-10  5.3436266455139874e-11  3.5152025411778912e-10  2.6749188029479101e-10  5.7724832026512763e-10  7.3424690580079866e-11  6.1959879048213307e-11  2.3918524128111507e-10  7.2939066677195978e-11  4.2828402594030765e-11  1.4830117091578488e-10  2.4464298532047651e-11  6