<?xml version="1.0"?>
<VTKFile type="UnstructuredGrid"  version="0.1"  >
<UnstructuredGrid>
<Piece  NumberOfPoints="4852" NumberOfCells="9430">
<Points>
<DataArray  type="Float64"  NumberOfComponents="3"  format="ascii">-1 0 0  -1 -1 0  0 -1 0  0 0 0  1 0 0  1 1 0  -0.9999999999999999 0.9999999999999999 0  0 1 0  -0.5 1 0  -1 0.5 0  -1 -0.5 0  -0.5 -1 0  0 -0.1608775713298009 0  1 0.5 0  0.5 1 0  0.1967448868031411 0 0  -0.3406205664021705 -0.1758060068685382 0  -0.3367741318672816 0.2244003862076371 0  0.1741278944122445 0.3461671374374426 0  -0.1854202539655457 0.5550356690849785 0  -0.5043297901208179 -0.5381491556027861 0  0.4905529212077802 0.2574956842372777 0  -0.0642357488119296 0.2009121031589204 0  0 -0.5061325913258391 0  -0.25 -1 0  -0.5618444756701386 0.5781316905350711 0  0.6620787151883226 0.6352008808871116 0  -0.173029920485524 -0.5380739912331753 0  -0.538928777685303 0.0255340577244996 0  -1 0.25 0  -0.2059935177520038 0.02375672932125801 0  -0.6544985875097097 0.3101827312125965 0  -1 -0.25 0  0.03933413111941912 0.5917553308731848 0  0.1952054742304271 0.1288683031724053 0  -0.1359665444628057 -0.220060770121875 0  0.3715046475981049 0.6149808837796041 0  1 0.25 0  0.5355652144809806 0 0  -0.75 -1 0  -1 -0.75 0  -0.6452788281167872 -0.3235380685125793 0  0.25 1 0  -1 0.75 0  0.02757118475249542 0 0  -0.25 1 0  -0.75 0.9999999999999999 0  1 0.75 0  0.75 1 0  0 -0.02898318711980711 0  0.05432547682078069 0.1421736137060834 0  -0.07761049056964789 -0.02782278893936974 0  -0.7010602167559777 -0.1326061939693629 0  -0.3215071450937962 -0.3474717480812373 0  -0.340709824637338 0.4376267662575827 0  -0.1002249457607531 0.7643600757137342 0  -0.384201593124539 0.7025999830804502 0  -0.05480716295543825 0.3989026411266988 0  -0.07880927210648057 0.07187723593906502 0  0.3590567900068372 0.3696967635677913 0  -0.7169186232526351 -0.7309746329790716 0  0.4118730842389425 0.09010276404908309 0  0.6899910066612579 0.1920122825330231 0  -0.7474509196699768 -0.5282346242658003 0  -0.3878269683644233 -0.7109377452300917 0  0.7216609466848646 0.4195370307928432 0  -0.7758044144312056 0.09723515115952837 0  0.1971149944029216 0.6987458920866473 0  -0.1987444974254662 0.2884373118355897 0  -0.7992554704908116 0.5781326115240144 0  -0.7172087863540511 0.7668477586499 0  -0.04927179754367016 -0.3744920676402536 0  0.5855739991708838 0.8169464793944445 0  0.8210079809976472 0.8071481237924714 0  -0.0997162190565315 -0.6964037483163068 0  -0.5146219699684529 0.1630326765852086 0  -0.2016829543535273 0.1255554574073644 0  -0.3590396177971053 0.07538480043751458 0  -0.3650074722422492 -0.05245105438362806 0  -0.4969430697187927 0.3956562476019314 0  0.375 1 0  1 0.125 0  -0.01175014372832795 0.0711515364964528 0  0.06236586370712252 0.3917548169841968 0  -0.1712393743616205 -0.1223838121806786 0  -0.2433780954553983 0.7736556788910279 0  -0.625 1 0  0.5336099165365871 0.4548873213170482 0  -0.5771550740541599 -0.8304143041139994 0  -0.2559043673125209 -0.7835839168684477 0  -0.319412462067281 -0.5088056651897273 0  0.8339834426843772 0.5967315852702993 0  -0.5497854760821383 0.7907920323834643 0  0.125 1 0  -0.06736932422370018 -0.09340907683399401 0  -0.4943813683128233 -0.1433956873861106 0  -0.875 -1 0  0.02960671056880199 0.04155064493516421 0  1 0.375 0  -0.875 1 0  0.0574730622011862 0.793948383896054 0  -0.1949719089676231 -0.374080464039408 0  -0.07286896120260691 0.5710883840073424 0  0.2367286107953263 0.5180854977952472 0  -0.7922707543417171 0.2303110215419688 0  -0.4953228587876629 -0.3894766226713217 0  0.000263575069135758 0.2710674893764909 0  0.5104966994399551 0.6410684883479862 0  0.3995130756332987 0.8077144053974871 0  -0.8063127794846721 0.4252649435889236 0  -0.06363206947392776 -0.2209396076625504 0  -0.7095574814772218 -0.01413895770828904 0  0.09056235205234832 0.05242525357405865 0  -0.4781097555959107 -0.2514429645291626 0  0.7238888418733987 0.08309525683661111 0  -0.8084816446099512 -0.411781042467429 0  0.3375850613352763 0.1536973401070639 0  -0.7944326769851038 -0.2510790952827388 0  0.2364210191298505 0.2544102893792411 0  -0.9999999999999999 -0.875 0  -1 0.875 0  0.184367478337944 0.04793024541387841 0  -0.2473395340655162 -0.2291554047538691 0  -1 0.375 0  -0.1708989852254788 -0.0418045393463525 0  -0.6491833047484703 0.468381430054261 0  0 -0.07736776745332727 0  0.08058590441927199 0.2598195507520353 0  -0.375 1 0  -0.2170757249019193 0.4248757613152477 0  -0.1199309627058002 0.1500439152885662 0  0.1334696932956958 0.5544284545496265 0  0.132085643348198 0.1937518138900778 0  -0.4749620211152018 0.2700535699429599 0  -0.04612351197365958 0.01388935003381151 0  0.8511750185533217 0.3710646720517421 0  -1 -0.125 0  0.2861711132194771 0.8369160856187567 0  -0.1107330125247798 0.3130082579704492 0  -0.125 -1 0  0 -0.7575037395175259 0  0.07821397079968176 0 0  -1 -0.375 0  -0.375 -1 0  -0.625 -1 0  0.7474787146812756 0 0  0.625 1 0  0 -0.2918843213980812 0  -1 0.625 0  -1 0.125 0  -1 -0.625 0  0.3284075310660084 0 0  0.004929205892015135 0 0  -0.125 1 0  0 -0.006571003003944568 0  1 0.625 0  1 0.875 0  0.875 1 0  -0.5636705600045581 -0.6771520909548749 0  -0.004541944517720943 0.1601417973024719 0  0.3624335465378243 0.2634435555691438 0  0.653039770301951 0.2946149105431483 0  -0.8551667705013947 -0.6477972588616936 0  -0.8633586847132834 0.7871780954431061 0  0.4307585298362045 0.5019543712119763 0  -0.3995152021931077 0.8555811246625736 0  -0.7794916123473753 -0.8754140136157108 0  -0.8711670876806918 -0.7852160445403322 0  0.1544458063580735 0.8422930968424723 0  -0.6585436966494868 0.153186149082187 0  -0.5777174981463599 -0.06414738665613361 0  -0.8544760065933782 -0.06273835117511174 0  -0.296586741625212 0.5624140033522426 0  -0.4245248433514279 0.5702990976031048 0  -0.3762399862176642 0.3313267488025942 0  -0.6186179116653935 -0.2166534377888391 0  -0.2727638536972838 -0.09006924817585843 0  -0.6407670667856363 -0.589541903014936 0  0.8595947560089214 0.2665144694733999 0  -0.03276569657826361 -0.03296170872303968 0  -0.05463251833948354 0.1145169554672884 0  -0.1338186597538435 0.4321343587682356 0  -0.119667340738803 0.03236744064896146 0  0.5378375302152036 0.06480629008514063 0  0.5793957802671117 0.3599730334216309 0  0.6923523947437173 0.7757984974180105 0  -0.7935707002800521 0.8810554419677435 0  -0.6434921765868652 -0.4300650138840002 0  -0.1137633485359426 -0.3982576315809997 0  0.8719439086557342 0.489785754369 0  0.07605154731169993 0.09380794625191967 0  -0.6652660021795648 0.8678637788451629 0  0.4547688385176155 0.351075682604236 0  -0.02622878664008725 0.03578938927015151 0  -0.409250583560693 -0.4406483111399737 0  -0.3618271086411466 -0.2689169868271747 0  0.3237722692421758 0.4821136097561898 0  -0.1960605745220341 0.201563675968143 0  0.7059093534607095 0.532297453614062 0  0.2619323842817215 0.3562980497678002 0  -0.3769833069707305 -0.8518115398753004 0  0.1095946556975856 0.682331073673157 0  -0.2839091123294377 -0.6124553978671528 0  -0.4417126632663948 -0.6206903473520784 0  0.2965693624336093 0.6927296332314421 0  -0.875088451372692 -0.1750535876673696 0  -0.1803696114330019 0.8546395481729219 0  0.4547982361753096 0.1637187007751109 0  0.2803066650749547 0.0467721279400877 0  -0.1427213240444148 0.6578477386725399 0  -0.01132593150692957 0.7089885207976105 0  -0.05344839767961861 0.8747597328776905 0  0.005474864405553432 0.4700665419350765 0  -0.3876516305423625 0.1537528877715459 0  0.5492668727767325 0.1335754701160655 0  -0.4769734364489593 0.6827476223217315 0  -0.8514864487611911 0.3337725988932723 0  -0.08737235935849863 -0.53631360315749 0  -0.02697769287079269 -0.5520588764280565 0  -0.2133063656308733 -0.2878844303413196 0  0.8684519515223571 0.1517985257323087 0  -0.1650145816194301 -0.6610381976356016 0  -0.8895691341546801 -0.5294812866045432 0  -0.281994041306274 0.3384790452478464 0  -0.6768895796619803 0.5750034491174738 0  -0.8976043031854765 0.5320301836728851 0  -0.898367470520976 0.6612630711210525 0  -0.6445564374024495 0.07259904100880604 0  -0.8590579172000208 0.02858696200060293 0  -0.8881913734867561 0.1684389893215567 0  -0.1301241411876686 0.2290104153926805 0  0.1606096606150603 0.4463247474810599 0  -0.04345871673240368 -0.1258404554751891 0  -0.7539490574279248 0.671019543165489 0  -0.6033161716470899 0.6987542434548329 0  -0.2543714007789809 0.07857772199365626 0  -0.2499648378540844 0.6491025593204562 0  -0.02738505827730321 -0.00639103486989849 0  -0.4953487010797671 0.8767799288960247 0  -0.4774174660905778 0.4911089259357465 0  -0.2905122469607073 0.1442192910197642 0  0.002329745855024548 0.02359947059075095 0  0.7799667488082287 0.6853384207906272 0  -0.4708587634213031 -0.8248738005739833 0  0.2720015799552744 0.195160860749274 0  -0.1455248147235059 -0.8626986129315735 0  -0.06310500955460743 -0.8290249665857301 0  0.4441367271056507 0.7066786640115347 0  -0.1162114796101105 -0.2889476240693318 0  -0.2648533189997958 -0.02620616677232106 0  -0.8943044412975796 -0.8970084768587068 0  -0.5731739125511435 0.2379254229193859 0  -0.4763218470889385 0.08782626659144187 0  0.4920119430152619 0.8262659926250472 0  -0.02736142202354976 -0.2606946332675253 0  -0.3105718198348866 0.8750262844545825 0  -0.1429381508287073 0.08052807508698831 0  -0.4693536095267244 -0.03496592584810262 0  -0.38794018028827 0.01210353297651009 0  -0.2916805906702552 0.02757854647097112 0  -0.3849164681269571 -0.1205477026470174 0  0.8882422063154526 0.6994358033307588 0  0.7934950883120321 0.9113445440304574 0  0.5767253108631815 0.2083876944916391 0  -0.5607228994208315 -0.470118229206075 0  0.5996989200905598 0.7071520866467099 0  0.6791486493431161 0.888786031128974 0  -0.05095170281703931 0.3032148156471791 0  -0.9022288735373228 0.9047329718812795 0  -0.1274337227744612 -0.06714411729834935 0  -0.1689041365884397 -0.1826192107078975 0  -0.2523341103755531 -0.1437257745730021 0  0.0372231998485785 0.2016099965824223 0  0.902229766
[...]
<PointData  Scalars="w"> 
<DataArray  type="Float64"  Name="w"  format="ascii">1.7627776580573865e-10  1.0252288496290374e-11  4.4537373843240521e-10  2.5801375573106187e-09  6.2502816226893143e-10  1.5669879204505636e-12  8.6622406810313495e-12  7.5933062768002160e-11  4.1021760880912002e-11  2.1367876381124218e-11  1.0383728970695191e-10  9.5390142549747257e-11  4.0604540495190628e-10  2.7419309953304441e-10  9.1062117108736418e-12  5.2824998721262733e-10  9.0955959975147536e-11  7.2350633557763607e-11  1.3061691657891984e-10  3.5697655450211854e-10  6.8319018010360455e-11  1.0641702118083595e-10  5.7771427485402204e-10  4.8267079907570743e-09  5.9886921460120551e-10  1.0800657691608951e-10  8.8230900645041430e-11  1.8036056225335496e-10  7.6937161317244048e-11  1.9272359925759423e-11  4.7012322622653371e-10  9.8292753915360402e-11  2.3929820385118169e-10  1.8003696449112289e-10  4.5324250493867151e-10  2.2880946809606494e-10  7.7522798673264176e-11  4.7331291186421212e-10  5.8879242614327438e-10  3.1058931907687934e-11  5.0767050705877154e-11  1.0699162431123212e-10  9.1777828305811301e-11  1.9781801704209259e-11  1.0499311885347890e-09  9.0587435397460278e-11  3.2549366756426804e-11  9.3296663896137681e-11  1.2920362270355900e-12  5.8926087435344395e-10  2.2184702774760520e-10  2.1407124280599238e-10  8.1730816179153224e-11  2.5527598841984525e-10  2.6665104830506508e-10  1.9847285631054946e-10  3.5128599284951149e-10  8.9840212714597017e-11  5.8165226827657078e-10  2.5360507239766425e-10  3.0334181879700200e-11  3.1650942275320313e-10  3.7842895222313944e-10  1.4535789663729358e-10  5.4584189364201318e-11  1.7850476740327709e-10  7.1370507156821848e-11  1.7395664698117727e-10  2.3275151736596741e-10  4.5541376758762583e-11  6.2108213652090014e-11  4.1122206041454588e-10  5.6076174593404259e-11  8.5558987256284080e-11  1.7464149491161068e-10  1.7092240271910318e-10  2.5961347262856011e-10  2.9268019112501194e-10  1.8256547474410762e-10  1.9208571240606318e-10  6.5037281840924054e-11  2.5191229042225939e-10  2.6315817536388749e-10  2.0219167815456839e-10  2.3508945955427495e-10  1.2300429501622711e-10  4.6751168879738094e-11  1.1120574900592028e-10  9.2969417534452130e-11  2.6800734111732163e-10  7.1171639321939891e-11  9.8732597053759939e-11  7.7025543731570719e-11  9.4773553248500012e-11  3.9201648339602520e-10  2.0917710268215565e-10  2.4872963636744783e-11  6.5217279438434940e-10  2.5829032524139735e-10  3.1461535999054877e-11  2.7470064115622458e-10  4.2144528770997791e-10  7.2182884764818523e-11  9.8429683533602420e-11  1.5883422713326472e-10  6.5101910344214194e-11  2.7444842582068893e-10  8.3811506631844272e-11  1.4423629387056837e-10  6.5014577645538189e-11  3.1251016235937386e-10  2.4288360820884962e-10  2.3179953096273234e-10  6.4079130995502946e-10  1.2099092615891203e-09  1.5350596350265532e-10  1.6485658003956653e-10  1.0482613085011888e-10  4.5884086622635948e-10  2.5008902017630388e-11  2.5662811862302539e-11  2.7782295354566450e-10  9.2426666359936540e-11  6.0927745605130091e-11  5.0324420490334521e-10  5.7558902383515330e-11  5.9850936379532890e-10  1.1978436886278884e-10  7.7806542498071834e-11  8.3573669443837400e-11  3.4393017938202153e-10  1.7546086915525457e-10  4.6475131710692910e-10  1.3636795852441352e-10  6.2084813356443130e-10  4.3849865009243502e-10  1.0906897771456545e-10  5.2116332705269453e-11  1.3109974517378206e-10  2.6478089747686185e-10  3.8064331982324706e-10  6.0607111048082958e-10  8.9836675637492017e-11  1.2080118485925857e-10  6.7144880889975744e-11  6.5774296637585232e-10  8.3779805525155055e-11  3.1560300016594520e-10  1.4647452378610499e-10  1.2539675590249445e-10  1.9488457948694171e-11  2.8394049658597292e-10  1.5729665032535114e-09  5.8545586082003344e-11  9.6115259291498912e-10  7.7354792669966649e-11  2.3331575327594545e-11  2.3391486377052767e-11  1.2207402338293313e-10  5.6153752699358514e-10  4.5231280688598286e-10  1.6100246265550393e-10  1.1151145810823848e-10  1.6549535079533622e-10  1.8859949968772970e-10  5.8908280920007644e-11  7.5421304563710210e-11  2.0185479154852816e-11  6.0222777630971129e-11  2.9116435012735309e-10  9.3402143147857305e-11  1.0626999258320335e-10  8.5008676062308941e-11  9.6498035494584199e-11  5.3708030074297112e-11  9.5740069034789812e-11  4.5718686745390728e-10  5.5972855088797576e-11  1.6433003492829408e-10  1.7074674794395760e-10  4.6752031691697319e-10  1.9844928545303363e-10  2.8451478118642327e-10  1.4361688411033664e-10  1.4525479821766465e-10  1.4713125446856706e-10  2.0770894425039806e-11  2.7927533839160077e-10  6.4565906647654810e-10  2.5356360732228953e-11  2.5303170623449133e-10  8.7445548959698095e-11  1.5849146258295899e-10  1.1103926951997544e-09  1.3946239275721947e-10  1.6481130896380885e-10  2.3278881815071389e-10  2.8979847355729620e-10  1.0450460183806926e-10  2.0490766820589654e-10  4.1985249702990469e-10  2.1544685691065894e-10  2.4232989361773702e-10  1.1132440448730680e-10  1.1161671813564471e-10  1.1362361730197375e-10  7.0492897455642222e-11  2.0847345716349075e-10  8.8582259442460689e-10  7.9004099539580621e-11  1.0996243349254531e-10  7.8001602896749549e-11  9.7177522290201724e-11  1.6376229977293770e-10  3.7817403034588682e-10  7.7726865137827049e-11  8.3473797790522616e-11  7.3152605342825422e-10  6.8335045982341318e-10  2.9635078556134585e-10  2.0043105683232874e-10  8.5834120514185604e-11  7.9667752016491166e-11  3.3572580219588597e-10  5.8193342948226396e-11  8.1383415443225520e-11  4.9798548871691577e-11  9.3075419242791044e-11  4.1456979345472344e-10  9.1158384862631243e-11  1.9906370211577674e-10  1.6516557145751661e-10  9.0919600645897621e-10  6.0860378895147377e-11  1.9703449134620053e-10  1.1614241157361840e-10  1.1244696506873114e-10  7.4874563996185823e-10  7.3430239011912526e-11  8.4342475757933799e-11  1.1809267194872229e-10  1.1101241088148768e-09  4.0282084523118212e-11  7.8172124207584850e-11  2.7911800958072799e-10  2.6361999848459671e-10  3.3871731815303370e-10  1.8024805348384798e-10  2.0435453707112717e-10  4.0449591572210546e-10  2.8737596553183440e-11  1.0499205638120589e-10  1.2873335283145838e-10  3.7479221866300968e-11  2.7553455521864447e-10  4.4662091732893296e-11  3.3150186902943001e-10  1.3757647510982194e-10  1.1088512076316775e-10  1.9258586517308670e-10  5.0190246366135688e-10  7.1916034217366968e-11  2.6231282803700176e-11  1.4573035646325919e-10  8.2327689390912987e-11  5.8685457070636572e-11  7.4746939869142979e-11  1.8090438786690195e-10  4.9480618055235245e-11  2.6272799075363316e-10  2.5521284471509035e-10  1.2967491902113424e-10  1.2864324635664870e-10  1.3028104136204374e-11  7.1628443983450490e-11  1.4631942177637377e-10  1.6801254378092041e-10  4.9865681462396472e-10  3.7710363767372166e-11  8.2953403684557021e-11  3.3407707346270637e-11  2.3941789530876932e-10  1.2630964894465027e-10  1.8301319747338740e-10  7.5282567887901020e-11  8.6545105514496518e-11  1.2256508737132715e-10  2.0434398990917105e-10  2.2356743414725711e-10  2.6327924815840790e-10  4.3815281677245667e-10  2.1492632839133512e-10  2.1009383272697338e-10  1.4719666130145406e-10  8.2496700016838535e-11  1.7734076629314911e-10  1.7635320252295208e-10  6.2609954617908804e-10  1.2764283954342104e-10  6.3383939033129770e-11  4.0925663383315684e-10  1.9063173555095168e-10  2.0474617539368277e-10  1.0362829529527153e-10  3.1635675194039858e-11  4.4798888212914029e-11  9.8264601918847442e-11  6.9021554803105801e-10  2.9268946466101461e-10  1.8283664422378696e-10  1.3683270362071716e-10  3.4417768126093246e-10  6.8506040001861873e-11  1.1227904223611284e-10  3.5306240319491507e-10  1.3406869419546940e-09  9.9276567345677260e-11  2.8230181011103002e-10  6.1390689282880219e-10  1.2299776918251581e-09  1.9701491057096403e-10  1.5288256286530877e-09  4.1974774038665543e-10  2.2562765180936055e-10  1.2223199654374101e-10  4.1713995671915861e-11  6.6410543255732596e-11  1.2617579628428251e-10  1.5769594555058565e-10  6.4318700577188333e-11  9.9497234517497076e-11  1.0808556486988199e-10  1.3027471884826367e-10  1.9268714115646828e-10  4.9920472859556030e-10  3.2053459126925856e-10  1.6600082512289128e-10  9.7481006198224497e-11  6.2247425136882234e-11  5.9992405101588820e-11  6.9743272741836988e-11  1.8355874400616690e-10  2.1924765727336497e-10  1.0585758253268606e-10  1.0530224185920011e-10  2.4017675203599329e-10  1.3680395020955318e-10  6.8708018249547435e-11  6.0662842362496264e-11  1.0587744203929797e-10  3.4076169448917056e-11  1.8369450781039491e-10  3.2271759012583430e-11  1.6112765084192823e-10  1.7880492609652211e-10  1.5392659122892529e-10  3.9140733700838146e-10  8.0514859497879502e-11  8.4541751312884513e-11  1.4211849036882181e-10  3.0110724527829462e-10  1.4973505582514219e-10  2.6347727832653140e-10  1.1196717770114666e-10  1.3493301837572174e-10  1.5394860022664918e-10  3.0745083556708143e-10  1.2795259161974740e-10  3.3290214097227252e-11  1.1522382800695352e-10  1.1229129225865698e-10  1.4984586153102737e-10  2.4782098119567753e-10  1.6809767458820579e-10  3.5242112631216766e-11  1.3123896001828777e-10  2.4177219155497518e-10  2.9246338688215208e-11  3.3056899028687526e-10  1.6484224998869070e-10  3.8829752076835950e-10  1.1637525739989289e-10  2.3157605164442464e-10  3.2722291162988549e-10  7.5815121668457730e-11  1.0607930422818446e-10  2.1812375192901820e-10  7.1238919910522453e-11  4.8787178086790050e-10  1.6092050575521523e-10  9.8486813207593747e-11  1.0809516036004429e-10  2.0947000682454898e-10  5.4023571226485526e-10  4.7957756004853358e-10  1.7870949138758444e-10  1.7015135756941723e-10  2.0588058101353232e-10  4.0433093453468373e-10  4.6182576274840197e-11  2.2362832792846904e-10  8.3387752043255811e-11  1.2414771197069793e-09  1.1968050712650162e-10  4.6406128806303174e-11  5.5224536824845837e-10  3.3655671543714580e-10  2.4829187680792385e-10  2.0653135491548551e-10  6.4320385473339320e-11  1.5438888326349619e-10  3.3155256021025561e-11  4.3922004700101654e-10  8.1770699565655741e-11  1.4018551370978936e-10  1.2854026841566883e-10  6.6037082752650522e-11  3.5102208640260982e-10  4.3849087182244528e-11  1.1728892730976665e-10  2.4691372819665703e-10  1.7971488835213169e-10  7.1397870488609482e-10  9.2067792632555034e-11  5.7521102538797070e-10  1.4430199406629192e-10  3.5418372663204773e-10  5.5032154930109959e-10  2.4442803765688840e-10  1.5685922063973053e-10  2.7277520318303751e-10  4.8172847681595724e-10  3.5334092760732497e-10  7.6131803441056645e-11  4.8345556811070152e-11  1.6438414981220744e-10  3.5785540165499901e-10  1.8386683396029789e-10  1.2477647712865058e-10  1.7126520520270202e-10  7.9241969539172914e-11  7.0076502668082466e-11  1.9958127700730362e-10  5.7781998935078048e-11  2.0831765984870068e-10  9.1377609899149857e-11  4.7973685982190317e-10  4.8418895348326907e-10  8.1998629468579223e-11  4.2381464921566708e-11  4.0475366872636932e-10  6.5115754841901424e-10  2.5996732924689561e-10  9.8718839598000095e-10  2.8958154655231216e-10  3.1806237340802910e-10  2.7206399254503362e-10  2.6658100169497123e-10  9.7830662434239029e-11  3.1012954317540566e-11  1.9506145009668004e-10  1.0862182147916345e-10  2.1732747137115442e-10  7.5425229635215112e-11  1.1824692249249199e-10  2.0441353092403516e-09  1.7766708582671637e-10  8.0697835329874317e-11  8.1499930523135426e-11  4.0024310341758077e-10  2.4492243623466814e-10  1.9014638621187407e-10  2.1050802602672268e-10  4.3749849946356111e-11  7.6014759948908400e-10  2.4184891705202642e-10  5.3226607694176053e-10  2.5234429607369350e-10  2.4360357549230494e-10  3.1135824153995048e-10  9.4927444003002433e-11  3.2557354587182681e-11  3.5256347299375043e-11  3.6888705375715696e-10  3.6711201478983790e-11  1.1760860792555475e-10  1.0185426565878828e-09  7.4762197264096737e-11  3.4713960900124385e-10  2.6240048121445284e-10  6.1707428635758909e-11  6.0022986225190714e-11  1.8198217542898375e-10  2.4529543304758461e-10  4.7170770628144791e-11  1.1472336417892045e-10  1.5988535426344981e-10  7.7050344681094235e-11  1.6693046402886780e-10  2.1250350204725576e-09  3.3948193149126190e-10  3.2005055768438822e-10  1.0771599913629779e-10  1.0535765314036339e-10  1.8627101349466352e-10  7.8957784886999670e-11  1.3391630672375043e-10  5.0392576925720640e-10  8.8067949966121117e-11  2.4130472676420010e-10  2.1038091901724097e-10  1.3855501642917284e-10  4.9863847604644439e-11  7.6480937294116366e-11  5.3595265636475332e-11  5.8127299148246098e-10  1.0768959829789075e-10  2.1965044345219381e-11  5.7224739337750119e-10  3.0026422370982590e-11  6.2196541199196930e-10  1.1736003738718298e-11  7.3707224345800277e-10  1.7832893237886001e-10  2.6843532186395555e-10  1.0360185874340305e-10  2.8707347680182220e-11  8.2667516899348772e-11  2.7943054310504701e-11  1.9906596162785245e-10  3.7336662285606933e-10  2.7135521363684199e-10  3.2672332651817215e-10  1.3402076750456498e-10  9.6244613907255059e-11  6.3936529413324103e-11  3.6190308596239978e-10  5.0127858255173290e-10  1.0378882326508429e-10  1.0012562312934309e-10  1.4777501844837520e-10  7.4140485396426855e-11  4.6802914669501827e-11  5.4987388620461728e-11  3.2293861515761043e-11  8.7318703261604551e-12  1.7530581197100605e-11  9.5169805680450446e-11  2.2164520425754703e-12  1.0813218456980247e-11  1.8579411297135962e-10  3.4986909210976224e-09  2.2517389138770980e-10  4.1129075217865744e-11  2.2480799223805017e-10  9.2003227018051731e-11  1.1213617967920263e-10  4.2840980201330495e-11  1.7101335777968636e-11  8.8361561738430578e-11  7.2785507606802830e-10  7.8866449892567528e-11  1.8268180957253362e-10  3.2472788363603347e-10  4.7801215832839309e-10  9.6571295755159936e-11  1.0251425875514463e-10  5.8829927367701798e-11  7.8043388222757141e-11  1.1080868212312129e-10  5.5487795545643397e-11  5.8705648179850807e-10  5.9229769957203674e-11  2.7778474609137495e-10  8.9167814172929363e-11  1.2788949443494347e-10  3.0784772942390349e-10  4.1788579546331901e-11  6.3625467715711050e-11  2.8390429787650189e-10  1.1621250267051952e-11  1.1232562537796756e-10  8.9842456786772897e-11  7.7318042208476183e-11  5.6340835856988646e-10  1.6192920283636931e-09  2.6877332102277708e-10  2.8969168164789319e-10  9.1559754255151801e-11  6.8882589835422809e-11  2.5543986097282540e-10  1.1568499536849931e-10  9.7293236119087566e-11  1.0538729175525910e-10  1.9615868662019557e-10  7.3594406313662648e-11  5.0850149630778505e-11  6.9020707820659792e-11  3.8725239483260850e-11  8.4324152304106909e-11  1.9211425868244583e-10  1.6198161888424003e-10  1.1201491314470630e-10  2.7772226519448925e-10  4.6038915564346394e-11  1.3801179642981669e-10  5.2323688108460491e-10  6.6675060399304161e-11  1.2056839775063823e-10  1.2338832495583551e-09  5.7512041332057458e-11  3.3972401343433512e-10  5.1544766433974087e-10  1.5918338894605012e-10  1.2863015415569568e-10  1.2636272663205165e-10  8.8640614139988243e-11  2.4707996322045863e-10  2.8774406641871261e-10  1.7620477343518973e-10  4.7037416298338996e-10  4.2388010457137371e-10  1.2128678905185810e-10  2.0896248145144623e-10  6.5652310079057984e-11  8.4093967796840842e-11  6.2490947972492574e-11  2.4085784470201677e-10  4.0256848225413721e-10  3.0812982426175154e-10  3.2778368634177738e-10  8.6230966946907650e-11  2.2791291713303108e-10  4.8130968766715270e-10  1.6795134140112582e-10  4.8196458585457095e-10  1.8564726817530811e-10  1.3870449623315449e-10  1.1328549452528650e-10  5.0773458133316036e-11  5.3683766577763458e-11  3.4716855446030795e-10  6.2960353417833276e-11  6.3530082959656374e-11  1.2796694889106534e-10  3.2432069700020111e-10  3.1919614002152501e-10  1.5816585607067942e-10  1.1761913022272079e-10  5.9326972115940835e-10  6.2817327816369931e-10  1.6017718758899207e-09  2.6793291989702879e-10  1.9817177009241445e-10  4.4235444645319739e-10  4.6087699816943957e-10  1.1701574158148145e-09  2.9677110644472017e-10  2.4389789976882505e-10  3.3412600710601802e-11  1.2869127158361704e-10  3.2734847320170495e-10  4.6479661398668809e-10  2.1090430118649595e-10  6.6961643565954341e-10  3.0326612295753973e-10  2.1535299588891719e-11  5.0315926856847658e-10  3.3334413953641727e-10  3.9103572089147232e-11  3.3663860352017882e-10  4.1371136402173360e-10  5.4971266953329153e-10  1.4638906839454207e-10  6.7499376799264359e-10  1.9757978033104632e-10  4.7874785255661295e-11  1.2876130904707772e-10  1.3364535263558659e-10  3.1751596966508578e-10  7.8517172224086498e-11  2.6011835399681845e-10  1.9830239683808897e-10  8.1296626895525742e-12  2.0449343411844274e-10  5.7242548892228039e-11  9.1215140084970599e-11  1.2328409360770436e-10  6.3672593536432479e-10  4.1142829457016754e-10  3.0496330161217064e-10  1.1872631114089162e-10  1.3088359747634981e-10  9.0017903834906935e-10  5.3980984570240874e-10  1.3442351753250793e-10  1.4404092393903016e-10  9.6354977387465338e-11  4.9444010977188155e-10  1.3769456740624980e-10  1.7415695452090307e-10  9.4517191307658094e-11  7.1085023686711812e-11  6.3131187947526150e-11  1.5015561316122207e-10  9.9347167966361943e-11  1.2692041931689884e-10  4.1853536125128934e-10  7.7943024055064049e-11  5.9606121799871981e-10  1.2217873750188284e-10  2.2573458792007671e-10  2.7500665737230592e-10  5.5033342272025979e-10  1.1758172463486017e-10  3.9809845142479182e-11  6.2751205440385382e-11  1.4349711462348588e-10  1.6085634207381214e-10  5.1275245303114108e-10  8.3675950368695418e-11  1.6488435807238184e-10  2.5428272693703879e-10  1.4249117373862807e-10  2.3910120076247534e-10  3.5051237958689992e-10  3.1318144163745267e-10  1.0374163882277815e-10  1.7522017538301109e-10  1.5052148393762401e-10  2.2884991910166169e-10  4.3848274298607323e-10  3.7383896595867944e-10  2.0170172349504478e-10  1.9934357617998559e-10  1.2627537674558188e-10  1.7152277522487636e-10  3.0067109754074049e-10  3.8156088787430724e-10  3.6291003801928740e-10  1.6745243476330027e-10  2.2117879350537362e-10  2.0138190596109173e-10  1.5190240513284668e-10  3.9796125682937304e-10  3.2024115491688461e-11  1.0625991378233018e-10  1.2936400159889643e-10  5.7355506559140718e-08  4.0912517439268681e-10  1.7462751806891130e-10  6.1434327036412864e-11  2.5707323244461896e-10  1.3672436493858838e-10  6.4603088394080244e-11  1.0523110718152935e-10  2.0237867033618734e-10  2.0741308875557873e-10  1.9865388373563923e-10  1.8818795433740288e-10  3.1336126169988187e-10  6.5932242074136606e-11  8.0578917395845353e-11  1.9066042014049244e-10  1.2358155192357515e-10  3.4260969094360690e-11  4.0511472687914840e-10  6.4722650468115262e-11  6.1102994947473105e-11  1.9728338183989719e-10  1.0014503507877415e-10  2.3756037274713418e-10  2.8957634658962214e-10  1.4891381489539147e-10  8.6696844797191305e-11  1.8826603708420931e-10  9.7084349451514688e-11  3.1532962540222382e-11  8.7844416718901243e-11  5.8976146303074929e-11  7.9196941733670824e-11  2.2456886353218611e-10  4.6508053967385784e-11  6.4939901976890983e-11  9.5042604238050476e-11  9.2872856138972992e-11  9.4531709806243579e-11  2.5002407185426836e-10  8.8371282149734378e-11  1.8863833072942339e-10  2.0760876084171467e-10  1.0284802076806081e-10  1.6057941902944265e-10  3.1604143641480502e-10  1.2463617084562991e-10  6.1596500149127776e-10  1.7007474854772197e-10  1.5044307276823718e-10  1.3880004545754771e-10  2.2308893994892760e-10  4.3556365805766126e-11  3.9062790328207657e-11  7.6302430343074107e-11  4.2808618323573602e-10  2.0027844198921809e-10  6.7937916545707611e-10  4.4434652695264136e-10  1.2154221486225578e-10  5.5019648483048389e-10  3.6328809547025160e-10  1.8833070317732768e-10  7.1937599880949888e-11  9.3276721664709946e-11  1.7588169432170838e-10  1.8827609895925536e-10  4.1268021388683954e-11  5.0244123570470566e-10  2.9108214906418157e-10  3.2478618351352778e-10  5.1418593757543098e-11  3.5103516778768467e-10  2.7171162019328483e-10  5.7779950823666031e-10  7.2198958270560025e-11  6.2079789796422956e-11  2.4037409666661561e-10  7.2157798357547949e-11  4.2565397282997526e-11  1.4608174660624224e-10  2.4402593183015651e-11  6