<?xml version="1.0"?>
<VTKFile type="UnstructuredGrid"  version="0.1"  >
<UnstructuredGrid>
<Piece  NumberOfPoints="4852" NumberOfCells="9430">
<Points>
<DataArray  type="Float64"  NumberOfComponents="3"  format="ascii">-1 0 0  -1 -1 0  0 -1 0  0 0 0  1 0 0  1 1 0  -1 1 0  0 1 0  -0.5 1 0  -1 0.5 0  -1 -0.5 0  -0.5 -1 0  0 -0.1608775713298009 0  1 0.5 0  0.4999999999999999 0.9999999999999999 0  0.1967448868031411 0 0  -0.3406620701147701 -0.1756521325056674 0  -0.3367137177173241 0.2240723955615558 0  0.1737852425127058 0.3460268449372516 0  -0.1849324387926779 0.554818924408226 0  -0.5037280614299747 -0.5372539782888094 0  0.4904529147031506 0.25679664102221 0  -0.0644675685897768 0.2010668558362973 0  0 -0.5061325913258391 0  -0.25 -1 0  -0.5610576440516472 0.5771063911120657 0  0.6613756229450141 0.6334690211959185 0  -0.1769629515397917 -0.5374907745290123 0  -0.5387662097052311 0.02532865397693031 0  -1 0.25 0  -0.20616964295193 0.023796445865158 0  -0.6543521986707679 0.309077768102522 0  -1 -0.25 0  0.0390570680758306 0.5915614399212761 0  0.1950560296262395 0.1288230267052466 0  -0.1366003012898269 -0.2197237029971509 0  0.3708841732714773 0.6141485267596627 0  0.9999999999999999 0.25 0  0.5355652144809806 0 0  -0.75 -0.9999999999999999 0  -1 -0.75 0  -0.6449136485502813 -0.3229051642694361 0  0.25 1 0  -1 0.75 0  0.02757118475249542 0 0  -0.25 1 0  -0.75 1 0  0.9999999999999999 0.75 0  0.75 1 0  0 -0.02898318711980711 0  0.05413424317086794 0.1423350269602981 0  -0.07775859990480222 -0.0277562831695801 0  -0.7010108578051694 -0.1323826803686992 0  -0.3218209625524978 -0.3470411534095795 0  -0.3399793215382103 0.4370823283305392 0  -0.09990897603861419 0.7640956833892552 0  -0.3829295562934275 0.7024283855659802 0  -0.05490158082984859 0.3988083778307933 0  -0.07900924800431298 0.0720374836373915 0  0.3587951224887796 0.369293340958722 0  -0.715817098094811 -0.7297950620258892 0  0.411824584540959 0.08980219411083953 0  0.6899743299555763 0.1913933191920192 0  -0.747309610213184 -0.5268015331572946 0  -0.3876828451105305 -0.7104834481074596 0  0.721588759743887 0.4182141806530721 0  -0.7759375128407129 0.09685855167942559 0  0.1965943214002105 0.6984868105589557 0  -0.1986539193444906 0.2883563601253457 0  -0.7987345240236871 0.5772137023415121 0  -0.7165633898575293 0.7661723953748535 0  -0.05135868538346278 -0.373355765912888 0  0.5845721134950759 0.8163252196839806 0  0.8202633046335349 0.8057330240865209 0  -0.1059103006783278 -0.697118753968596 0  -0.5143398512457725 0.1624757884452133 0  -0.2018423119952275 0.1255907800401903 0  -0.3590983135082079 0.07522710632658162 0  -0.3650539141128009 -0.05234735569580544 0  -0.4964265980063994 0.3947302412508462 0  0.375 1 0  1 0.125 0  -0.01195540874928677 0.07134057345104923 0  0.06198163928331286 0.3917592507933604 0  -0.1714296382270464 -0.122320725837708 0  -0.24276176529889 0.7735455002416435 0  -0.625 1 0  0.5332968446535949 0.4538660216921253 0  -0.5758546209939134 -0.8299825615296844 0  -0.2578051628827556 -0.7835682345882201 0  -0.3200748128157502 -0.5081761679357815 0  0.8339525249370985 0.5949661050903701 0  -0.5484190793480905 0.7906481623922239 0  0.125 1 0  -0.06748774813371472 -0.09340693622187801 0  -0.4944489472582291 -0.1431961659551048 0  -0.875 -1 0  0.02952338255748615 0.04168672888642226 0  1 0.375 0  -0.8750000000000001 1 0  0.05726362150389177 0.7938716799110912 0  -0.1966883976618415 -0.3733129670807322 0  -0.07284944935945505 0.5709593204672412 0  0.2362736168380799 0.5177293808971413 0  -0.7921620273659727 0.2292023030723239 0  -0.4950901213622319 -0.3888705240727581 0  -1.330044727222853e-05 0.2711426428380873 0  0.5097446674018146 0.6398414280300431 0  0.398730707843088 0.8071503716355081 0  -0.8060039138248589 0.424208960622899 0  -0.06452959844206946 -0.2204855598506667 0  -0.7094955709087448 -0.01423057362260753 0  0.09050628540478214 0.0525305176654322 0  -0.478088678923532 -0.2511453504372494 0  0.7238637557339207 0.08275968858390878 0  -0.8085097890560449 -0.4109275749815738 0  0.3374870210050039 0.1534683355224157 0  -0.7944104715492608 -0.2507530346599067 0  0.2362243431495819 0.2542476383404687 0  -1 -0.8749999999999999 0  -1 0.8749999999999999 0  0.1843018358934213 0.04790229792879452 0  -0.247620718466807 -0.2289233805833734 0  -1 0.375 0  -0.171096611936824 -0.04172573661700833 0  -0.6485893841559903 0.4671677390628504 0  0 -0.07736776745332727 0  0.0802912128772769 0.2599175623028129 0  -0.375 1 0  -0.2167888402847999 0.4246210487849467 0  -0.1201354352004408 0.1501970300627147 0  0.1330774251106591 0.5540366038556325 0  0.1318499530121516 0.193818801811159 0  -0.4745740683274618 0.2692583341061596 0  -0.04625386070779209 0.01399153709433615 0  0.8514678151900361 0.3699450211928307 0  -1 -0.125 0  0.2854778327342991 0.8367848878209144 0  -0.1108002352431284 0.3130094994489921 0  -0.125 -1 0  0 -0.7575037395175259 0  0.07821397079968176 0 0  -1 -0.375 0  -0.375 -1 0  -0.625 -1 0  0.7474787146812756 0 0  0.625 1 0  0 -0.2918843213980812 0  -1 0.625 0  -1 0.125 0  -1 -0.625 0  0.3284075310660084 0 0  0.004929205892015135 0 0  -0.125 1 0  0 -0.006571003003944568 0  1 0.625 0  1 0.875 0  0.875 1 0  -0.5624645274719893 -0.6762355722719481 0  -0.004811130309610351 0.1603498492108783 0  0.3623006191778151 0.2629152526654173 0  0.652980670914908 0.2936139190860343 0  -0.8545552654755896 -0.646445813395508 0  -0.8634340617418461 0.7870442635420319 0  0.4303223465021641 0.5011243101867487 0  -0.3983502081548217 0.855800856180965 0  -0.7786305898136483 -0.874710671717926 0  -0.8703621607025228 -0.784249947090256 0  0.1540997006562544 0.8421660683984656 0  -0.6584224881351441 0.1525225615181362 0  -0.577504619521566 -0.06417875758091356 0  -0.8545158899394698 -0.06258297993351504 0  -0.2957602744728499 0.5620605749719023 0  -0.4234658215017126 0.5697679684507698 0  -0.3759104396673345 0.3308715316519177 0  -0.6182103709473225 -0.2163004991013013 0  -0.2728461274231904 -0.08999695547250522 0  -0.6398559477867213 -0.5883735732351077 0  0.8597468214611089 0.2658476760826861 0  -0.03285149121026952 -0.03291186603822617 0  -0.05486828040655702 0.1146982957844902 0  -0.1337188780521506 0.4319847230201285 0  -0.1198748392043559 0.03245811283708858 0  0.5377590893636482 0.06454454936286623 0  0.5791941969174947 0.3590420708310551 0  0.6912473011287462 0.7745826954382058 0  -0.7934283907162266 0.8811407922375982 0  -0.6431508031429046 -0.4290166507739786 0  -0.1174152355148175 -0.3967296379784808 0  0.8722282375530904 0.4884768062474877 0  0.07591066522172607 0.09398034846037091 0  -0.6645293011486658 0.8681532707486788 0  0.4545526800761377 0.3504447506376304 0  -0.02637929723366845 0.03592734927023505 0  -0.409213858701919 -0.4400662978930649 0  -0.3619168680513453 -0.2686397949580203 0  0.3233728516126996 0.481684973717157 0  -0.1960977107283985 0.2015072358197798 0  0.7056108697414306 0.5305482687731162 0  0.2616594777963328 0.3560623867210995 0  -0.3767308054853525 -0.8517833635798718 0  0.1090572071740583 0.6820025440398706 0  -0.2852812092190096 -0.6118174386469888 0  -0.4413129334501505 -0.6199386442363874 0  0.2960680430137411 0.692252379030292 0  -0.8748431599202615 -0.1747688489039612 0  -0.180019565934288 0.8549974976135472 0  0.4547152174942942 0.1633043347704152 0  0.2802742069814869 0.04668999337560077 0  -0.1422782345454627 0.6574474816836177 0  -0.01141484791235931 0.708631981401073 0  -0.05334921597741745 0.8750739001577811 0  0.005296221740964151 0.4698833791076721 0  -0.3876644306054522 0.1534025361192526 0  0.5491529061866155 0.1331240015003692 0  -0.4756894557218134 0.6823219589651112 0  -0.8514677394630129 0.3326904718689158 0  -0.09141992864520201 -0.5360429468291807 0  -0.02661714345523111 -0.5518725676962962 0  -0.2140282462591563 -0.2874285980337653 0  0.8685252620133644 0.151449417900603 0  -0.1701447538864871 -0.6608963814645243 0  -0.8891504235689648 -0.5283650782796567 0  -0.2816715319915015 0.3382741698973061 0  -0.6761121722016245 0.5739822396494687 0  -0.8974427867034809 0.5313492546157128 0  -0.8983834325046939 0.6608913260075246 0  -0.6443320889632633 0.07226136398099793 0  -0.8591055479284386 0.02850378354296211 0  -0.8881276886951298 0.1678120037587369 0  -0.1302371802256997 0.2290548004528373 0  0.1601932890610111 0.4462640882979572 0  -0.04359598588339399 -0.1257941970205953 0  -0.7533323588146896 0.6699401639009372 0  -0.6022908065257597 0.6978409596078176 0  -0.2544754428917416 0.07855536968702592 0  -0.249223006394883 0.6487812057363671 0  -0.02746714458413795 -0.006318539250764906 0  -0.4942910880364947 0.8770306183394941 0  -0.4767688531026836 0.4904301596063852 0  -0.2904915328509616 0.1440405401312845 0  0.002226909111879697 0.02368787102253436 0  0.7794579945958127 0.6834243282821431 0  -0.4698654918626904 -0.8246994479903842 0  0.2718826437283643 0.19504652627346 0  -0.1488799485633649 -0.8632247151257046 0  -0.06562185021325059 -0.8295982350519716 0  0.4432269739391569 0.7058805455959024 0  -0.117943650684816 -0.2880218817736639 0  -0.2649707020939919 -0.02615148346537367 0  -0.8937868660857874 -0.8964635189428616 0  -0.5728661219652065 0.237042529204025 0  -0.4761393957890489 0.0874917767563253 0  0.4911184180924532 0.8257374609949284 0  -0.02861546647886477 -0.2603610286219383 0  -0.3100143497153327 0.8754413527024749 0  -0.1431483036211049 0.08061971382588014 0  -0.4693035223477427 -0.0349259252334572 0  -0.3880097766076559 0.0120970308836788 0  -0.291795876616274 0.02757236192524273 0  -0.384944825088201 -0.1204075082802175 0  0.8881456517110402 0.6979408958439896 0  0.7926466671677698 0.910727528541548 0  0.5766314699781321 0.207808139021201 0  -0.5599636472310945 -0.4692161487112628 0  0.598766173511102 0.7058060396876412 0  0.6781657223841001 0.8882900562002514 0  -0.05118258947936796 0.3032801531523521 0  -0.9022143002911244 0.9046830932739121 0  -0.127586204320715 -0.06709389890633549 0  -0.1692052075373239 -0.1824587725119219 0  -0.2524579562486552 -0.1436154486697256 0  0.03
[...]
<PointData  Scalars="w"> 
<DataArray  type="Float64"  Name="w"  format="ascii">1.7446731570749489e-10  1.0341617797164525e-11  4.4527001002399733e-10  2.7061116631117230e-09  6.2396270966669498e-10  1.5626382698572179e-12  8.6712458762903730e-12  7.4698343923276011e-11  4.0408433246145110e-11  2.1075807671444210e-11  1.0819247887808767e-10  9.6013046369553641e-11  4.0455694877371002e-10  2.7762594941385563e-10  9.1363048281346435e-12  5.2593581308794163e-10  9.0649515173207694e-11  7.2218590174178592e-11  1.3063014503523124e-10  3.5503099707083586e-10  6.6884954073745953e-11  1.0408821283833611e-10  5.7237011185626591e-10  2.8001800536859418e-09  5.7748142859093010e-10  1.0828728152448743e-10  8.9163215023643362e-11  1.7187058365629420e-10  7.6417511279430087e-11  1.8795325284608856e-11  4.6728393227990860e-10  9.7779923857243430e-11  2.4348338017201343e-10  1.8084121282991007e-10  4.5426413155968878e-10  2.2523560564390040e-10  7.8132176538977286e-11  4.7864605637201274e-10  5.8653547084932249e-10  3.1247674338788696e-11  5.2601862740492757e-11  1.0818343872541730e-10  9.2577536295695773e-11  1.9630946448726167e-11  1.0543076288349385e-09  8.7644649549638753e-11  3.1955023484053662e-11  9.6507992077538246e-11  1.2405711488538008e-12  5.9096605924545495e-10  2.2102115228487689e-10  2.1411872049417173e-10  8.2597468920964622e-11  2.5136232553623448e-10  2.5932161062511872e-10  2.0553653025531454e-10  3.5733220853583176e-10  8.8989276633416840e-11  5.7902992178298333e-10  2.5135028167656872e-10  3.1366987822055159e-11  3.1417691603214749e-10  3.7873003106829737e-10  1.4358155848591975e-10  5.4071112009507610e-11  1.7831722876700859e-10  7.0560446398823011e-11  1.7868609092771416e-10  2.3285549247125495e-10  4.6087977782766075e-11  6.5012935160866374e-11  4.3053738363626819e-10  5.6999298971390071e-11  8.8403518437602417e-11  1.7543280062547877e-10  1.7012891989833915e-10  2.5594594051503055e-10  2.8968854710191204e-10  1.8250898684241451e-10  1.9558079071013638e-10  6.5100031182270785e-11  2.5218560961710318e-10  2.6343419003910692e-10  2.0031701729176171e-10  2.3382220848318086e-10  1.2521607600427664e-10  4.6437063242890524e-11  1.1008527466424474e-10  9.4641036796312519e-11  2.5268161969404267e-10  6.9051769580547915e-11  9.9766995513040615e-11  7.8501178085741932e-11  9.4323547233293176e-11  3.8981806828951771e-10  2.0911094407670091e-10  2.5533952302378485e-11  6.5640668768940005e-10  2.5696989246179747e-10  3.1554396749971078e-11  2.7689931612407786e-10  4.1201251988482592e-10  7.0945963692781470e-11  9.6966668717204021e-11  1.5673243389574663e-10  6.3386587519786740e-11  2.7326421588939096e-10  8.3498835584633268e-11  1.4725901904376574e-10  6.6212061387088594e-11  3.1275154078712275e-10  2.4751848918068653e-10  2.3254956096167873e-10  6.4195032992799255e-10  1.2094406546409503e-09  1.4867803488451846e-10  1.6520641198689329e-10  1.0211283155094148e-10  4.5788002451328014e-10  2.5993661562766526e-11  2.5613747378799963e-11  2.7836826216350846e-10  9.0971112367921787e-11  6.1216617060566295e-11  5.0143224038492565e-10  5.7432279131144852e-11  5.9965797009576252e-10  1.1833153018403914e-10  7.6847593192491492e-11  8.2524633639178171e-11  3.4125824213181027e-10  1.7249103664144547e-10  4.6396816856886496e-10  1.3499063156050454e-10  6.2350839967248813e-10  4.4622980341026518e-10  1.0919505291659052e-10  5.2142780651955417e-11  1.2975737030518218e-10  2.5801539145587401e-10  4.0661563622334526e-10  6.0613688317193810e-10  9.3358873863397284e-11  1.1893801427623708e-10  6.8791218787101832e-11  6.5567667433887086e-10  8.6363531012732315e-11  3.3715082734131066e-10  1.4748277587550279e-10  1.2407351782682221e-10  2.0097880490916343e-11  2.8314180677906221e-10  1.5942978984826626e-09  5.6716988263499953e-11  9.6893953888247608e-10  7.9323652518343611e-11  2.4501606137200761e-11  2.4200571229160435e-11  1.2187208655014373e-10  5.5904295131905609e-10  4.4374839657032544e-10  1.6110843112334902e-10  1.1539873314798524e-10  1.6696966988435325e-10  1.8794018726927493e-10  5.8683997930137403e-11  7.8074841191898746e-11  2.0416495245976671e-11  6.0077780752840455e-11  2.9524295284021249e-10  9.2010072219084489e-11  1.0585984928866537e-10  8.2637994425259321e-11  9.6376905012008838e-11  5.3300685145571930e-11  9.5909441585920412e-11  4.5474416293984761e-10  5.7078330047530900e-11  1.6404287133351539e-10  1.7225291429547679e-10  4.6303382199151504e-10  1.9794287180755500e-10  2.8210194221371797e-10  1.4276981536915191e-10  1.4511671487509938e-10  1.5118866913003313e-10  2.1139272587524576e-11  2.8809989745289830e-10  6.6265340625636860e-10  2.5659045299256772e-11  2.5126000202037641e-10  8.9471866320223749e-11  1.5797391966500797e-10  1.1163852940525243e-09  1.3660084218468550e-10  1.6287856859439124e-10  2.3406132874988473e-10  2.8666833977242328e-10  1.0636152927401080e-10  2.0435219094270340e-10  4.1915052982692686e-10  2.1914616441740492e-10  2.3986264956799599e-10  1.0981949046721830e-10  1.1284477243369068e-10  1.1274613956870864e-10  7.1539171761537768e-11  2.0822094756098416e-10  8.8397937566283749e-10  7.7794332038758404e-11  1.0811152128132373e-10  7.7874750091877006e-11  9.6806400352426442e-11  1.6214397472098973e-10  3.7729495290184825e-10  7.9419206742543663e-11  8.5491450488741284e-11  8.3404726823253182e-10  7.5280357337540355e-10  2.9175261607786185e-10  1.9966346353486137e-10  7.7879259828207724e-11  8.1164776853524064e-11  3.3610352249639017e-10  5.8862447475464671e-11  8.3745096513441871e-11  5.0301976337633180e-11  9.3496606900527847e-11  4.1402782668294838e-10  9.0606053414915450e-11  1.9694993728062209e-10  1.6612977285777481e-10  9.0179115868782338e-10  6.2054762604010053e-11  1.9916015388203535e-10  1.1513708401921887e-10  1.1213860721735369e-10  7.5253303577956826e-10  7.5603355420252400e-11  8.5449869768042144e-11  1.1792756683823072e-10  1.1248476370391121e-09  4.1222952472901204e-11  7.7777309841989930e-11  2.7892938710858547e-10  2.5371781435733098e-10  3.4924261406657578e-10  1.8328085153239125e-10  2.0491172457695109e-10  4.0339751541730126e-10  2.9526130716205650e-11  1.0561776553331525e-10  1.2802939558785192e-10  3.7748441447000174e-11  2.7367291034918456e-10  4.3887130891095735e-11  3.3307288704785518e-10  1.3567703876031955e-10  1.1023328160533217e-10  1.9118674648794294e-10  5.0190541904404375e-10  7.3500852203326118e-11  2.7088376337792793e-11  1.4478009609597179e-10  8.1957079988020126e-11  5.9793660897777015e-11  7.6705594864522804e-11  1.7867635921814947e-10  4.9230058593427413e-11  2.6352439456906844e-10  2.5393805847815052e-10  1.2839039915441072e-10  1.2874452757354426e-10  1.3752478612706062e-11  7.1428346950587450e-11  1.4662964980063477e-10  1.6867758110750153e-10  4.9829339436200290e-10  3.6815418025813935e-11  8.2419086354535375e-11  3.3472718576687259e-11  2.3847036551271852e-10  1.2582640242903020e-10  1.8544228354423272e-10  7.5248763684729321e-11  8.8280042979129959e-11  1.2038511660918705e-10  2.0248639709557467e-10  2.2393912150041569e-10  2.6086362126599203e-10  4.3727381868723215e-10  2.1368144592227123e-10  2.0977238597734025e-10  1.4529402126156990e-10  7.9935625929382136e-11  1.7050954997843276e-10  1.6588875690308838e-10  6.2797183595121279e-10  1.2961958195421857e-10  6.2507567326604882e-11  4.0659114874182385e-10  1.9015759286004830e-10  2.0894793361756162e-10  1.2242627899924849e-10  3.2846672426877715e-11  4.4945862512510341e-11  9.8901569469816341e-11  6.7916233909357336e-10  2.9402338190791912e-10  1.8060292500335272e-10  1.3643603527319022e-10  3.3618284061731259e-10  6.7177863390861252e-11  1.0926670225307684e-10  3.5399283710543062e-10  1.3023326671906582e-09  9.9102870367457695e-11  2.8233465945583533e-10  6.1559706510361293e-10  1.2321301103581457e-09  1.9901750139582275e-10  1.5301897980013873e-09  4.1780043269612970e-10  2.2598698197922672e-10  1.1607321339550896e-10  4.1950007192215906e-11  6.5921110451440202e-11  1.2625886524984018e-10  1.5668944798315552e-10  6.3778868051408711e-11  9.8768659248325055e-11  1.0679764724584081e-10  1.2715039863767070e-10  1.9291614993294823e-10  4.9774639247467790e-10  3.1860688730236550e-10  1.6616197778157336e-10  9.6005182309180865e-11  6.1802992004016961e-11  5.9393920926050748e-11  7.0842082241719634e-11  1.8200813355126806e-10  2.2792361118684177e-10  1.0609854174725443e-10  1.0578185953836681e-10  2.3860163197691038e-10  1.3698852751102222e-10  7.0075371795696207e-11  5.9439334804435208e-11  1.0541700778688813e-10  3.4334588510455519e-11  1.8723854260949525e-10  3.3133698283993446e-11  1.6067892440216796e-10  1.7951170376792712e-10  1.5146869562376620e-10  3.9901349062902809e-10  7.9442923063212561e-11  8.3107852576152195e-11  1.4515622378157338e-10  3.0890225899401145e-10  1.4332468032370216e-10  2.6339543360077454e-10  1.1089856834108650e-10  1.3581483423871955e-10  1.5793081716048324e-10  2.8148214896099436e-10  1.2760350437056364e-10  3.3841346214334980e-11  1.1799159617787311e-10  1.1220128995751132e-10  1.4761866763988923e-10  2.5416103559161667e-10  1.7165874565214438e-10  3.5078700396679208e-11  1.2931142233821947e-10  2.3347737453818496e-10  2.9139564830031836e-11  3.2924464262593266e-10  1.6334516527079389e-10  3.9101983380569864e-10  1.1255819532224362e-10  2.3777461280689566e-10  3.2467221270344555e-10  7.5741018858271625e-11  1.0600183507921203e-10  2.1884858140842141e-10  7.3936848901421399e-11  4.8322399970905457e-10  1.5959590818423919e-10  9.8296049356544002e-11  1.0875961048056524e-10  2.1043737747670851e-10  5.4038338977383947e-10  4.7759024434157453e-10  1.7952743073862170e-10  1.7226582516232078e-10  2.0821734498351578e-10  4.0077091041092035e-10  4.5571380579237598e-11  2.2574160815691514e-10  8.1764623717648713e-11  1.2412066306476125e-09  1.1788845006980998e-10  4.5959156263651263e-11  5.4936496929044475e-10  3.3131354767316649e-10  2.4639223591787688e-10  2.1125842626961925e-10  6.4258674075184801e-11  1.5356921601604845e-10  3.3539892621406773e-11  4.3679965267978531e-10  8.2341765300443438e-11  1.3737869571578484e-10  1.2729178232312067e-10  6.6053830708017072e-11  3.4784163267453055e-10  4.3294447743948822e-11  1.1810220749232164e-10  2.4290660761903173e-10  1.7825961777027417e-10  7.1121788531994202e-10  9.3051064105797846e-11  5.7451336096766007e-10  1.4863835229446363e-10  3.5466853538208989e-10  5.5401454550774901e-10  2.4331759035604217e-10  1.5482263710766312e-10  2.7235851841857688e-10  4.8100051554262781e-10  3.4634675721971629e-10  7.5599739647481196e-11  4.9606732646710306e-11  1.6336079897803359e-10  3.5715970142268814e-10  1.8667098724114064e-10  1.2693857221588368e-10  1.7151013030898569e-10  8.1589861823479280e-11  7.1600105406279768e-11  1.9915698278924315e-10  5.8123147122848951e-11  2.0714181373445103e-10  9.0640066736941511e-11  4.7899215127755965e-10  4.9634488791162769e-10  8.2134348704867853e-11  4.1809590738639237e-11  3.9607861883699750e-10  6.4814996367055866e-10  2.5819850064361836e-10  9.8839453692304125e-10  2.8725769898979145e-10  3.1624744944432243e-10  2.7399550422829102e-10  2.6611243948869468e-10  9.7722127579312807e-11  3.1345748583468687e-11  1.9385419889620750e-10  1.0530936881352658e-10  2.1477279307275555e-10  7.5366901394143143e-11  1.2416561156200913e-10  2.0682981645488445e-09  1.7678078079787882e-10  8.1256657055436212e-11  8.2656123682607387e-11  3.9952474477652302e-10  2.4214181889824981e-10  1.8943625779307148e-10  2.0756704156083645e-10  4.4796040998009421e-11  7.5457310024565906e-10  2.4148879402274966e-10  5.3538349499776136e-10  2.4977082339769683e-10  2.4188126940070368e-10  3.1277959900664796e-10  9.4600958037297857e-11  3.3120066715279364e-11  3.6166654631516813e-11  3.6940715068045282e-10  3.5909582173325687e-11  1.1664332160783058e-10  1.0209354584333042e-09  7.5253126797438384e-11  3.5201171391278389e-10  2.6339823950816617e-10  6.2159997614856791e-11  6.0053364582352605e-11  1.7985230654356931e-10  2.4493575212668670e-10  4.8770012163081149e-11  1.1305013042645922e-10  1.6133679788184095e-10  7.5598218643417988e-11  1.7047526444213416e-10  2.1320127937228212e-09  3.5925233020221166e-10  3.1935278338497373e-10  1.0695851711922785e-10  1.0816755219637742e-10  1.8818581301385546e-10  8.0790532484328798e-11  1.3432432451557661e-10  4.9727561299464647e-10  8.6835212723532952e-11  2.4187380469881579e-10  2.1573441459145770e-10  1.3891134323765294e-10  5.1356804725809998e-11  7.7978280097673307e-11  5.5647275203187076e-11  4.2697071086914864e-10  1.0627346173693245e-10  2.2122353819018820e-11  5.7032565111057610e-10  3.0784204339515364e-11  6.2059222342319524e-10  1.1694921146499830e-11  8.3023910464915141e-10  1.7490363996351153e-10  2.4888234975699615e-10  1.0493213754977582e-10  2.8732181035376798e-11  8.5598060235870666e-11  2.7955742778753059e-11  2.0751817866582155e-10  3.7229445090688007e-10  2.7149837947391702e-10  3.3257889925908788e-10  1.3628605750569681e-10  9.3815220216843199e-11  6.3394749976443023e-11  3.6311564630256686e-10  5.0360673686308652e-10  1.0606139920765310e-10  1.0085393872993615e-10  1.4680215366670728e-10  7.6688699972986551e-11  4.5534712512642344e-11  5.4635588887903900e-11  3.1992574859259152e-11  8.8732750042979960e-12  1.7840658046537471e-11  9.8959437520766823e-11  2.2296686473522540e-12  1.0952616465554247e-11  1.8638100677494610e-10  3.4896011588363436e-09  2.2365637759356320e-10  4.2515997961694838e-11  2.1965046432613188e-10  9.3158120928103877e-11  1.1220033426006712e-10  4.4058077889540766e-11  1.7067320786823275e-11  8.7770461320285883e-11  7.3624933693981252e-10  7.9935612813328489e-11  1.8379584007852033e-10  3.2430209750542692e-10  4.8482335962160009e-10  9.6434230091818789e-11  1.0205169637633722e-10  5.8484540858101617e-11  7.6875591781065208e-11  1.1220715294920947e-10  5.7664083261914988e-11  6.1719495238379384e-10  5.9048677335304987e-11  2.7716698267372601e-10  8.7951839005151654e-11  1.2801149981054159e-10  3.1184972105125568e-10  4.1654285100868515e-11  6.3097114941002470e-11  2.8599702150450294e-10  1.1951795520981272e-11  1.1341860613311572e-10  8.8262829640436071e-11  7.6861552431484935e-11  5.6108576424203200e-10  1.6139938481460305e-09  3.0074299427125108e-10  2.8883174824397741e-10  9.0659520697318744e-11  6.9672126326607679e-11  2.5417333115828432e-10  1.1768027344291525e-10  1.0000098679015182e-10  1.0451473904598484e-10  1.9884974299125885e-10  7.4130971205849742e-11  5.2849755575510702e-11  7.0721534291560340e-11  3.9877214187362383e-11  8.6815142404503667e-11  1.9091724926570319e-10  1.6171796917929661e-10  1.1139794764899144e-10  2.8005074162395352e-10  4.7368584410187425e-11  1.3640172706062664e-10  5.2186298448280000e-10  6.6824276969409286e-11  1.1732046826380129e-10  1.3885716986672146e-09  5.8305616233845955e-11  3.3510113563121057e-10  5.1021518594673042e-10  1.5756183739297347e-10  1.2840515137558376e-10  1.2558895201432609e-10  9.0141756992188091e-11  2.5046125738031906e-10  2.8520192723194050e-10  1.7752167492200508e-10  4.6725580825676271e-10  4.2272543738187627e-10  1.2171691096226705e-10  2.1066472808227926e-10  6.6931659518447937e-11  8.4990339297100080e-11  6.2736243806246148e-11  2.3893426542200500e-10  4.0050501436183643e-10  3.0762038648935232e-10  3.2315130832669878e-10  8.5964242571056142e-11  2.2755446056707493e-10  4.7885259324486133e-10  1.7210149587275038e-10  4.7952550124659635e-10  1.8280822145616590e-10  1.3787739483963126e-10  1.1158177916054050e-10  5.1346309662402478e-11  5.4692275254821475e-11  3.3251577347526832e-10  6.2906372281504108e-11  6.4787804892434270e-11  1.2950222495498801e-10  3.2018302496659747e-10  3.1919980645020902e-10  1.5702257708650921e-10  1.1763476876273088e-10  5.9151079915648195e-10  6.2583813585756197e-10  1.6085557215724530e-09  2.6917092636023007e-10  1.9974512782359669e-10  4.4433882616538506e-10  4.5324522915093303e-10  1.1751421962700083e-09  2.9619044995091756e-10  2.4753418275277755e-10  3.3109711645803592e-11  1.2926276375097277e-10  3.3548953388979659e-10  5.1823890658132401e-10  2.1392167303668210e-10  6.6230136753950989e-10  3.0519813460111201e-10  2.1503675491903487e-11  4.8150772868811414e-10  3.3518309475368992e-10  3.8728109575606391e-11  3.3271179890233809e-10  4.1383168551696877e-10  5.4177314022600953e-10  1.4531063201457421e-10  6.6927840592185280e-10  1.9483261675259498e-10  4.7321412369800481e-11  1.2715081049570614e-10  1.3240626180184311e-10  3.1665763213514254e-10  7.9005496029291104e-11  2.6481645687575234e-10  1.9488423052931032e-10  8.1390169801412224e-12  2.3960344372709014e-10  5.8212062871854143e-11  9.0253494032997423e-11  1.2434484052644598e-10  6.3110687581089337e-10  4.1293544907338273e-10  3.0425801239876936e-10  1.1697775602452633e-10  1.3228883270203981e-10  9.0035820474717312e-10  5.4193260846635168e-10  1.3464139428832319e-10  1.4159718904023953e-10  9.3053391016964457e-11  4.8601448775043828e-10  1.3856231880843462e-10  1.7453240078416674e-10  9.5247083075190909e-11  7.0770057026093650e-11  6.3582965408079513e-11  1.5013507792929630e-10  9.7855576428300748e-11  1.2982179538890161e-10  4.3597221438048172e-10  7.6579786793833771e-11  5.9878511239169688e-10  1.2772350903938510e-10  2.2354965660012388e-10  2.8076531186740123e-10  5.5114473799844920e-10  1.1603599577853950e-10  4.1160087248415607e-11  6.2952160183325589e-11  1.4158700345732777e-10  1.5853788028545565e-10  5.1636896552701071e-10  8.4484499741218189e-11  1.6142875076751710e-10  2.5090953481797607e-10  1.3716104438580138e-10  2.3611706661513204e-10  3.3342021874550199e-10  3.1086166824251292e-10  1.0488066525677853e-10  1.7503647960669830e-10  1.4877777185834119e-10  2.2749268279688082e-10  4.8147514239208684e-10  3.7346107524045531e-10  2.0181499653540753e-10  2.0600617025009748e-10  1.2484861927878905e-10  1.7267335532467606e-10  2.9960905549919848e-10  3.8114765369541667e-10  3.6178927099339646e-10  1.6544341901838827e-10  2.1949845147072683e-10  1.9467098778898249e-10  1.5430902851259642e-10  3.9917318105660751e-10  3.1670271642666578e-11  1.0532297566419796e-10  1.2647187223659157e-10  4.2747643422030561e-08  4.0549946778274057e-10  1.7718144668752158e-10  6.1031550523420528e-11  2.5612887817738341e-10  1.3826378797843110e-10  6.4394353356726986e-11  1.0555178789787793e-10  2.0253870718291348e-10  2.0577935499095761e-10  1.9392543792792022e-10  1.8919439286855900e-10  3.0819234667250678e-10  6.5167594797696522e-11  8.0215956026121653e-11  1.9115282765942566e-10  1.2188663910723767e-10  3.5506721254219262e-11  4.0139911603527663e-10  6.4712145341298307e-11  6.2131400501072608e-11  1.9295807510088337e-10  9.8920063507946098e-11  2.3771887302320877e-10  2.9246354613938568e-10  1.3851516993187862e-10  7.9479141284380282e-11  1.8715211114651944e-10  9.6395097896387484e-11  3.2790067922824932e-11  9.0831409050855417e-11  5.8332429322138414e-11  7.8484278152004258e-11  2.2648849038597895e-10  4.7427708466291282e-11  6.6476476234736068e-11  9.4604271552107443e-11  9.3703137426467794e-11  9.3791707910183847e-11  2.5649108997449586e-10  8.7700992036529584e-11  1.8397157282232500e-10  2.0127136604704020e-10  9.8564499528908447e-11  1.6081385232783940e-10  3.1503228285061785e-10  1.2414977737894922e-10  6.1535253201754320e-10  1.7095801147739242e-10  1.4904149267558947e-10  1.3824472887635388e-10  2.2864052514700727e-10  4.4262574897684923e-11  4.0104842911103087e-11  7.7036941534992204e-11  4.3385959182227054e-10  1.9953580340809685e-10  6.4099694713111411e-10  4.4131114149394227e-10  1.2118644646420570e-10  5.4631823676101637e-10  3.6501079346707022e-10  1.8862773915656908e-10  7.0717077527134728e-11  9.3727964921657624e-11  1.7398684774429063e-10  1.8739179654339846e-10  4.1604465819217218e-11  4.8347089273264411e-10  2.7845063308474921e-10  3.0556511716243853e-10  5.3717654079650145e-11  3.5064518231581471e-10  2.6489261390003902e-10  5.8589315177809638e-10  7.3512899916871832e-11  6.1604216550712427e-11  2.3851245999772245e-10  7.2786202482447450e-11  4.2612009665362732e-11  1.4796354003705309e-10  2.4316315153368771e-11  6