<?xml version="1.0"?>
<VTKFile type="UnstructuredGrid"  version="0.1"  >
<UnstructuredGrid>
<Piece  NumberOfPoints="4852" NumberOfCells="9430">
<Points>
<DataArray  type="Float64"  NumberOfComponents="3"  format="ascii">-0.9999999999999999 0 0  -1 -1 0  0 -1 0  0 0 0  1 0 0  1 1 0  -1 1 0  0 1 0  -0.5 1 0  -1 0.5 0  -1 -0.5 0  -0.5 -1 0  0 -0.1608775713298009 0  1 0.5 0  0.4999999999999999 0.9999999999999999 0  0.1967448868031411 0 0  -0.348524836346744 -0.1796801776322873 0  -0.3461079606214407 0.2303704841256156 0  0.1777740010443032 0.3520192470506289 0  -0.1888732680297411 0.5620648690243385 0  -0.5075144085978056 -0.5420748437610503 0  0.4949353244026032 0.2584367275804866 0  -0.06883634846520433 0.2095769557526966 0  0 -0.5061325913258391 0  -0.25 -1 0  -0.5664751023901486 0.5822641411586564 0  0.6644243342978288 0.6358565916187104 0  -0.1768608705850907 -0.5418556187560981 0  -0.547629917721566 0.0263207404065088 0  -1 0.25 0  -0.2159257741124855 0.02532405663949321 0  -0.6602621582057967 0.3141116865151351 0  -1 -0.25 0  0.03995025827675054 0.5979955414078119 0  0.1986903533912259 0.1313131735220212 0  -0.1398022954202024 -0.224164612777853 0  0.3751187364098673 0.6176916816770281 0  1 0.25 0  0.5355652144809806 0 0  -0.75 -1 0  -1 -0.75 0  -0.6497401212684241 -0.3271377705312358 0  0.25 1 0  -1 0.75 0  0.02757118475249542 0 0  -0.25 1 0  -0.75 1 0  0.9999999999999999 0.75 0  0.75 0.9999999999999999 0  0 -0.02898318711980711 0  0.05514221517754808 0.1481118777847132 0  -0.0823619034443631 -0.02771645942266634 0  -0.7065101061798066 -0.1341918086305993 0  -0.3266823384398215 -0.3525555652374417 0  -0.3469618215417686 0.4443766406066073 0  -0.101063728929447 0.7683299925858956 0  -0.3875845978984191 0.7069474288462465 0  -0.05699505212605246 0.4075430219246176 0  -0.08517453212094411 0.07675632145081815 0  0.3639693505048201 0.3728380353941564 0  -0.7180242040868048 -0.7326025557558179 0  0.4146724881243842 0.08991051175076693 0  0.6926013134195976 0.1915678558468212 0  -0.7496881819611142 -0.5307458415895678 0  -0.3900441075651702 -0.7138209728765385 0  0.7245069417836173 0.4200537482714438 0  -0.7804758773569394 0.09855642668945404 0  0.1997677758739006 0.7024294185414762 0  -0.2057957594679031 0.2967937328601761 0  -0.8015448131456397 0.5809077273056558 0  -0.7196303662318687 0.7688552373515255 0  -0.0461267986077814 -0.3768373206180751 0  0.5870160113884577 0.8178763691617827 0  0.8216398550757913 0.8072642463204011 0  -0.1036413543003051 -0.6986343389301396 0  -0.5232370560324943 0.1668514707291991 0  -0.211308335763843 0.1311087962781257 0  -0.369582422624158 0.07797582975343273 0  -0.3749084236919445 -0.05325539490062978 0  -0.5035639166755315 0.4010056207413467 0  0.375 1 0  1 0.125 0  -0.01435763322339338 0.07600196744066105 0  0.06345018313516383 0.3995232531535497 0  -0.1777836544252888 -0.1255828352086479 0  -0.2457541438208668 0.7773501559942956 0  -0.625 1 0  0.5377164071321446 0.4565346440869442 0  -0.5779452684595616 -0.8318498157006825 0  -0.2584824265643583 -0.7857816568918459 0  -0.3231625399043451 -0.5132779918050006 0  0.8354580823851446 0.5967384612679105 0  -0.5522644027568624 0.7934319916741864 0  0.125 1 0  -0.07055902987466982 -0.09497217704718752 0  -0.5024869623010176 -0.1457118941136086 0  -0.875 -1 0  0.02901055570826203 0.0440250619315689 0  1 0.375 0  -0.875 1 0  0.05832895613770687 0.797371373216717 0  -0.1985535655454011 -0.3788660942373415 0  -0.07451816858235313 0.5781175095483855 0  0.2404437799706652 0.5227932527060888 0  -0.7961354375813182 0.2324472489547459 0  -0.5001726690504655 -0.3940531506193546 0  -0.0009814206421322462 0.2797020845686546 0  0.5136049509570405 0.6425816413818088 0  0.4016297503002479 0.8090956036852121 0  -0.80906863260621 0.4281302849759351 0  -0.0653774652162398 -0.2233923046932787 0  -0.7152919049026276 -0.01411090422465888 0  0.09181368022369205 0.05445573678187837 0  -0.4848203990693348 -0.2555298549560066 0  0.7250632870692981 0.08243434109622981 0  -0.810756051205471 -0.4142530341087911 0  0.3417085263871635 0.1548951094860831 0  -0.7976848556036402 -0.253466180916344 0  0.241099146445306 0.2582967242995391 0  -1 -0.875 0  -1 0.875 0  0.1861411363920604 0.04893376616499887 0  -0.2534498946470419 -0.2339538053675186 0  -1 0.375 0  -0.1791277643092624 -0.04278936563820107 0  -0.6537884503676086 0.4723961770290496 0  0 -0.07736776745332727 0  0.08229840454781107 0.2670656602485809 0  -0.375 1 0  -0.2227080006236647 0.4327989882674109 0  -0.127311097455416 0.1573881207816632 0  0.1359373189154512 0.5599525142354912 0  0.1352006266526088 0.1988557839199155 0  -0.4830316191584432 0.2750957432994793 0  -0.04972839486432767 0.01596255954003957 0  0.853011636234499 0.3710250933212573 0  -1 -0.125 0  0.2879132867258499 0.838715280331783 0  -0.1155351021623341 0.3220903729261545 0  -0.125 -1 0  0 -0.7575037395175259 0  0.07821397079968176 0 0  -1 -0.375 0  -0.375 -1 0  -0.625 -1 0  0.7474787146812756 0 0  0.625 1 0  0 -0.2918843213980812 0  -1 0.625 0  -1 0.125 0  -1 -0.625 0  0.3284075310660084 0 0  0.004929205892015135 0 0  -0.125 1 0  0 -0.006571003003944568 0  1 0.625 0  1 0.875 0  0.875 1 0  -0.5654783905453635 -0.6798343777633705 0  -0.006486533183813845 0.167888230651255 0  0.3674163692538162 0.2655060769992982 0  0.6564784222046471 0.2947618695414826 0  -0.8557909677312208 -0.6490417871956605 0  -0.8649193667666614 0.7887599457431127 0  0.4350183761376577 0.5045390905452912 0  -0.4010812167801928 0.8580115793971801 0  -0.7799902296883494 -0.8759082501290258 0  -0.8713872140547921 -0.7859070985422726 0  0.1559545553193419 0.8444718844940016 0  -0.6650135727212935 0.1558944457988473 0  -0.5853507770834817 -0.0651569208387212 0  -0.8574927176341065 -0.06298277955402956 0  -0.3012704388608802 0.5687044124927245 0  -0.42938389391572 0.5756893347916775 0  -0.3840978519990833 0.3379392940682507 0  -0.6243303685050283 -0.2196147235974399 0  -0.2817931510670979 -0.09242297582804485 0  -0.6429227023789713 -0.5925543743097212 0  0.8611857492310313 0.2660000373362966 0  -0.0347063595956137 -0.03230483815471551 0  -0.05961078944551099 0.1213673776781335 0  -0.1378514667636275 0.4405367476568254 0  -0.1275271647523772 0.03484129355925728 0  0.5394786951309615 0.06439209750836293 0  0.5833914668649494 0.3610848141982008 0  0.6935585926483531 0.7763648166617212 0  -0.7951763684365578 0.8822756303969204 0  -0.6470753042008246 -0.4336154067457318 0  -0.1157149848161926 -0.4019201648737631 0  0.873370225681399 0.4899261082006126 0  0.0774515999436021 0.09764773864321864 0  -0.6669303251450089 0.869727348162429 0  0.4595013681952577 0.3530366257461768 0  -0.02935739126353463 0.0389444166623247 0  -0.4136190068823864 -0.4454620474915089 0  -0.3683165664434288 -0.2737208896449272 0  0.3281335750434243 0.4859364187997795 0  -0.204551514097245 0.2089276372835414 0  0.70855261313452 0.5327675271444204 0  0.2665648725687702 0.3607561033742003 0  -0.3782446393277049 -0.8534241522994226 0  0.1110869185848199 0.6867402149192434 0  -0.2871721231236388 -0.6160286527465386 0  -0.4444889776944437 -0.6242039275965782 0  0.2997653489063634 0.6955967826842141 0  -0.8771684006995432 -0.1761775614617365 0  -0.1815277189910474 0.8575381195498873 0  0.4586252517129483 0.164212758720396 0  0.2820232722805087 0.04698009306364784 0  -0.1447914407495723 0.6633857155033011 0  -0.01145143666591195 0.7136265790140255 0  -0.05344583080725693 0.8773186755279214 0  0.005260650688772714 0.4777901450604001 0  -0.397614288728613 0.1581253582985585 0  0.5520886548017068 0.1333346309139914 0  -0.4806479047777217 0.686846835292354 0  -0.8540540753193896 0.3358979499586316 0  -0.0883287964101007 -0.5395790378326439 0  -0.02186257916786285 -0.5543354678240059 0  -0.2178692116038766 -0.2928975324046113 0  0.8694912101065236 0.1511584473642564 0  -0.169624277259271 -0.6638160813481127 0  -0.8901924452096067 -0.5308509205426508 0  -0.2893402115825259 0.3461020412340395 0  -0.6804834658225196 0.5785973295377629 0  -0.8989062964254779 0.5337939312372796 0  -0.8996638603166504 0.6629626810633258 0  -0.6514491698928151 0.07412922842629936 0  -0.862098050352603 0.02907957454160288 0  -0.8905585719414459 0.1692220422701379 0  -0.136555722579943 0.2375980764751465 0  0.1636980955326289 0.452440306990525 0  -0.04520078673283612 -0.1272690140631969 0  -0.75648614630024 0.6734039297662524 0  -0.6066910587115494 0.7017611114914889 0  -0.2648290792013646 0.08201107475990561 0  -0.2533917399920906 0.6544966358614102 0  -0.02859138788775302 -0.004773818112716765 0  -0.4971052447692105 0.8786896698169884 0  -0.4832156612963801 0.4966042672706738 0  -0.3006583280391323 0.1492067621598627 0  0.0004992523651592035 0.02468579800164428 0  0.7813920771300236 0.6854559890406979 0  -0.4718484696960262 -0.8266650793904297 0  0.2766106338793016 0.1976995462714454 0  -0.1480808087720671 -0.864064560673249 0  -0.0643010154947212 -0.8298437887280505 0  0.4468736150825293 0.7084694832425319 0  -0.1187917552510035 -0.2927543753894816 0  -0.2748770193362511 -0.02658795996624184 0  -0.894480899071602 -0.8972065473188116 0  -0.5804266930397393 0.2420327729364077 0  -0.4857739028662578 0.09024323790605508 0  0.4937611013777887 0.8273250835277247 0  -0.02807019358503754 -0.2621750360438204 0  -0.3122677596037894 0.8774113543611161 0  -0.1517418985110145 0.08512427740868091 0  -0.4785693991543506 -0.03520632483096672 0  -0.398282594527043 0.01291152422966033 0  -0.3022640309395302 0.02899811771800706 0  -0.3938259822625985 -0.12296062992594 0  0.8890494063056097 0.6993610284023182 0  0.7938057909515134 0.9114889676792529 0  0.5802154179063901 0.2085550861881559 0  -0.5641102659754782 -0.4741648451301126 0  0.6019129012838179 0.7080772685374361 0  0.6797189709391622 0.8892116953200324 0  -0.05403487027966837 0.3122934631620565 0  -0.9029873599871368 0.9053923576368035 0  -0.1336869284415392 -0.06882971549092048 0  -0.1742007745539718 -0.1868003051605019 0  -0.2600657236508525 -0.1473627593503808 0  0.0372202563506588 0.20927085951465
[...]
<PointData  Scalars="w"> 
<DataArray  type="Float64"  Name="w"  format="ascii">1.5814562638538783e-10  1.0154759992459231e-11  4.4318003209767662e-10  3.0070284889774533e-07  6.2089661304397357e-10  1.5497059602594038e-12  8.5772884076077929e-12  7.0658924391044107e-11  3.7473125860466685e-11  2.0335025762604701e-11  1.0006462773533012e-10  9.0423468444203041e-11  4.2692733814857725e-10  2.6053910609125948e-10  8.7747777131345192e-12  5.3931116268846993e-10  8.8335732927664543e-11  6.9387977044006119e-11  1.2942974378759128e-10  3.2388856481937263e-10  6.3464995544433013e-11  1.0291995751519980e-10  5.6238906643656036e-10  8.1766922279787098e-09  5.5748259717719231e-10  9.9322066773991933e-11  8.5659722845153114e-11  1.7115192273881170e-10  7.1993899303041569e-11  1.8184738278204457e-11  4.6235040399967219e-10  8.9420842642302367e-11  2.2374827251028212e-10  1.6914573780257211e-10  4.7182324475224370e-10  2.3129560106558204e-10  7.4797028326520790e-11  4.6188481417523305e-10  5.8351881070475720e-10  3.0002356381634248e-11  4.9195238326736981e-11  1.0120694258093593e-10  8.6751436836007792e-11  1.8042626274945343e-11  1.1775089196155489e-09  8.3544677108735459e-11  3.0683409626929616e-11  9.1602688802578684e-11  1.2949438800435803e-12  6.6198534824990696e-10  2.3933828705810672e-10  2.4566134792318949e-10  7.7443382156273579e-11  2.4456134033631649e-10  2.3937917718057993e-10  1.8663232091767619e-10  3.2603235313602356e-10  8.4881609599087691e-11  6.3679297873891370e-10  2.4318899844579588e-10  2.9812087491775122e-11  3.1506537451312718e-10  3.6623013265931101e-10  1.3440204653688339e-10  5.1241092884354114e-11  1.7065201021718029e-10  6.4110846684919463e-11  1.6824507338863226e-10  2.2558246540441866e-10  4.2744413309508064e-11  6.0722619477642951e-11  4.6258376353082889e-10  5.3819275555642895e-11  8.4647527977723000e-11  1.7697275709711511e-10  1.5835007649052252e-10  2.5343241592059151e-10  2.6662029986135698e-10  1.7330420596405349e-10  1.7918583885662971e-10  6.2038680313065334e-11  2.4718412083350789e-10  3.1352934447299117e-10  1.8775699438684354e-10  2.3471787428882871e-10  1.1605363785509289e-10  4.2178483042909387e-11  1.0644699771090847e-10  8.9635801048511402e-11  2.4602223792471892e-10  6.6541656657324951e-11  9.5805595891026290e-11  7.2226176917446369e-11  8.8077655967386400e-11  4.2032900726842749e-10  1.9518293470325075e-10  2.4453427025409829e-11  8.0488888808228816e-10  2.4544100343352931e-10  2.9811697647741009e-11  2.5875440708588257e-10  4.1590999950437769e-10  7.0865828820724693e-11  9.2693094272993120e-11  1.4356277381730142e-10  6.1278655328809437e-11  2.7170786135339514e-10  7.9376591158924678e-11  1.3810979850778242e-10  6.0891138015875399e-11  3.3378602360912260e-10  2.2434259207956714e-10  2.6193699056197520e-10  6.0516074533465837e-10  1.2084522623009590e-09  1.3771006039358356e-10  1.6987847216189355e-10  9.5100705445316650e-11  4.5299237658827160e-10  2.4955508134110733e-11  2.4723389880109371e-11  2.8717143878490565e-10  9.1756268463394611e-11  5.5959562126101176e-11  5.1854139360870347e-10  5.2272053035450111e-11  6.9936166907092567e-10  1.2011634898982405e-10  7.2245160542038460e-11  7.9268588094908546e-11  3.4186990227934033e-10  1.6033320021321942e-10  4.6103501156861645e-10  1.2474523886045678e-10  7.9305875992131455e-10  4.2439135608917178e-10  1.0045551420222809e-10  4.9268863524745697e-11  1.3106572445455666e-10  2.5687631087707780e-10  2.8957034250306630e-10  6.7025466765485617e-10  8.4128284844725465e-11  1.1316365116511344e-10  6.4153031270510515e-11  6.5044679882779695e-10  8.1635522749840804e-11  2.5188986810774637e-10  1.3573384497111599e-10  1.1382820992109146e-10  1.8941597004622342e-11  2.8429221277242438e-10  1.7912371767889177e-09  5.3306603031056740e-11  9.4716461874523481e-10  7.4626565507725430e-11  2.2813352366503450e-11  2.3159552395003823e-11  1.1510861417471855e-10  5.6766967583901536e-10  4.4582048728418281e-10  1.5695953643704750e-10  1.0659722389254844e-10  1.5543740673217307e-10  1.8499242205516164e-10  5.4579413516185657e-11  7.3582032937840450e-11  1.9452717208793094e-11  5.5830575123166810e-11  2.6462384222353832e-10  8.7915906844022624e-11  9.7269640323657630e-11  8.0244488575996626e-11  8.8298549312608230e-11  5.1283521612216262e-11  8.9258801542629419e-11  4.4302300536589588e-10  5.4109434503648242e-11  1.5922110412806781e-10  2.1227206348208248e-10  4.9079254029013025e-10  1.8583506229647441e-10  2.9599813662998326e-10  1.4030190037025748e-10  1.4030298142459587e-10  1.4391127513614823e-10  2.0207265525045887e-11  2.6564607343321993e-10  6.7980415494270282e-10  2.4207600683734037e-11  2.6598989436346392e-10  8.2997891526562668e-11  1.5215118631702293e-10  1.8908726009343060e-09  1.3139336646401088e-10  1.6220516618621140e-10  2.2627790366664319e-10  2.7585090140876304e-10  1.0006230178150377e-10  1.9905055407097013e-10  3.9347479747203194e-10  2.0928853402641607e-10  2.2803424298435733e-10  1.0394816924753204e-10  1.0937762343534931e-10  1.0310574058597073e-10  6.6716011041506703e-11  2.0507131198413910e-10  8.9836056115754693e-10  7.2379019092238841e-11  1.0108764586351952e-10  7.6626670034583557e-11  9.2287356431532226e-11  1.5829727538458896e-10  3.6568856875600385e-10  7.5446221482476348e-11  7.5728204715815429e-11  8.6338662475964046e-10  6.8241400294847863e-10  2.8901541828911134e-10  1.9690164382988129e-10  8.1003334929679655e-11  7.5137811168131033e-11  3.1129920288128184e-10  5.4071348939155079e-11  7.6313158784383612e-11  4.7547329016454376e-11  8.7177154812513784e-11  3.6881652987890895e-10  8.2947503338331380e-11  1.9652908473626959e-10  1.5998995717946239e-10  9.8596589939940380e-10  5.7740869817016673e-11  1.8220225521882005e-10  1.1470574321446945e-10  1.0267970061589379e-10  1.1539156990072761e-09  6.8936276708615703e-11  7.9494008842917506e-11  1.1754373954656435e-10  1.8862559281530959e-09  3.9036004602707636e-11  7.4030519448327095e-11  2.8437494093220366e-10  2.5341131143995741e-10  3.4581790928631508e-10  1.7458713536093046e-10  2.0100846146814095e-10  3.8927378091646279e-10  2.8194560996907748e-11  9.9422499527883589e-11  1.1951866037527449e-10  3.6006272517544892e-11  2.9688202852967856e-10  4.0903219179590966e-11  3.4025028675198013e-10  1.3052525003442281e-10  1.0539082526048030e-10  1.9049332898395790e-10  4.7706000588009673e-10  7.0391138986466376e-11  2.5900529718575150e-11  1.4088600935668450e-10  7.7793673834113321e-11  5.6826768077695945e-11  7.2512266964686639e-11  1.7784717728644968e-10  4.6203183947807490e-11  2.7832920004941702e-10  2.5482856917712701e-10  1.3189832812969225e-10  1.3967234350677898e-10  1.3050588666503796e-11  7.0174998642361133e-11  1.5065390692775612e-10  1.5256679827972937e-10  5.6894038460730020e-10  3.4850213372515543e-11  7.8679631719749361e-11  3.2236501672644365e-11  2.5406515593650247e-10  1.1839812887600935e-10  1.7021142104184767e-10  7.2635507982911572e-11  7.9431471355613237e-11  1.1743419736122307e-10  1.8829014220830990e-10  2.2621551347906939e-10  2.5027635611616323e-10  4.6442705429002052e-10  2.0491802570847608e-10  2.0990576182142036e-10  1.3921406913722525e-10  7.7587302723598375e-11  1.6382656243290113e-10  1.6169181055798255e-10  7.2763869648096272e-10  1.2357426839254024e-10  5.9876434919959750e-11  4.1585708974281198e-10  2.0429618935317999e-10  1.8812341298280446e-10  1.1500842700503793e-10  3.1297940150846431e-11  4.3296473063549005e-11  9.0995191205448353e-11  7.4034072349068445e-10  3.3328524707663957e-10  1.7226220838529695e-10  1.2337070301877610e-10  3.2678983325816707e-10  6.4874063706632600e-11  1.0815622699414721e-10  3.7628430001126304e-10  1.1385379011304685e-09  9.3004827646213880e-11  2.8697980868792235e-10  6.7083400932252142e-10  1.3978468183972782e-09  2.4629433089041411e-10  1.6993957308634537e-09  4.3584711466296223e-10  2.2083479318937692e-10  1.2416293067024570e-10  3.8397333540216365e-11  6.0920337731815052e-11  1.2235117244603143e-10  1.4490979049566540e-10  5.8739718823972393e-11  1.0074381164969416e-10  1.0387928864828058e-10  1.1864644367691141e-10  2.1933713846619802e-10  5.4695734598597396e-10  3.1912047073971723e-10  1.6061008315231611e-10  9.1954829122302976e-11  5.9255553632717516e-11  5.8189937372983174e-11  6.6645162237609346e-11  1.7158822559305888e-10  2.0994875178462299e-10  9.8115224460900309e-11  9.7815531431368023e-11  2.2418958078365178e-10  1.3118695816073216e-10  6.7172972567171130e-11  5.5091890594870013e-11  1.0514719750514383e-10  3.1970294477459231e-11  1.6969467197487516e-10  3.1866164957249327e-11  1.5783822620168469e-10  1.7759336450184940e-10  1.5041388908813567e-10  3.7633245951677068e-10  7.5577779792621294e-11  7.7058534712794611e-11  1.3220140947511109e-10  2.8578573312558943e-10  1.4291303608485332e-10  2.5561004566621892e-10  1.0479113693128588e-10  1.2563027005337915e-10  1.4226905914168862e-10  2.8551461724427517e-10  1.2758749643072093e-10  3.1738285717960186e-11  1.0978640552440842e-10  1.0677354843980669e-10  1.3581147777158471e-10  2.3647270087262632e-10  1.6225740178058528e-10  3.3384463031308983e-11  1.2089649415256798e-10  2.3618735024547440e-10  2.7430020373120360e-11  3.1284966802817760e-10  1.6591574782061129e-10  4.8318473106229404e-10  1.1039363650381768e-10  2.1677971781498268e-10  3.0277547055101814e-10  6.9952926450405114e-11  1.0084839087204465e-10  2.0962750322049132e-10  6.9277374654025539e-11  4.8994735114870906e-10  1.6286434378462406e-10  9.0825991479331808e-11  1.0345794692949659e-10  2.0182502311725925e-10  5.5378637631343666e-10  5.0840690639682451e-10  1.6862146004971311e-10  1.5927719945112061e-10  1.8732312086060879e-10  3.6111932560666732e-10  4.2891966501907977e-11  2.0733053412195473e-10  7.5880529006775801e-11  1.2287339865622698e-09  1.1113351590106660e-10  4.2729695154451890e-11  6.2018225572898035e-10  3.4017432577568573e-10  2.3623824090048621e-10  1.9481958548117835e-10  5.9708170220447986e-11  1.4217173397556588e-10  3.0958155586149317e-11  4.1798716988016524e-10  7.5764292070451181e-11  1.2483648595156532e-10  1.2106395141604763e-10  6.0319968231031609e-11  3.4028661667623249e-10  4.1065849693421276e-11  1.0908125906470443e-10  2.4558343252189985e-10  1.7427435118487010e-10  7.4127380636073791e-10  8.8363766803780909e-11  5.7100394120303346e-10  1.4074871801045220e-10  4.0676030543029358e-10  6.0581264566114860e-10  2.4486779954153579e-10  1.5123181735018998e-10  2.7256699181259312e-10  5.4073846890629140e-10  3.3865156970508264e-10  6.9472720201952127e-11  4.6535101824177053e-11  1.6863200911324535e-10  3.8459077376890875e-10  1.7228180540805916e-10  1.1809494441525399e-10  1.5742148832965698e-10  7.6474395162695886e-11  6.6189494204874710e-11  1.9048467316026624e-10  5.4338848608130627e-11  1.9364001097517192e-10  8.8484050531540949e-11  4.9458795679589383e-10  4.5606816975594116e-10  7.8051685266057682e-11  3.9403127606895943e-11  3.9515406496108750e-10  6.6408192652237116e-10  2.4760108392315299e-10  1.1362737867479865e-09  2.9067409596918414e-10  3.2375624796271042e-10  3.2038498366604585e-10  2.7258066875575781e-10  9.1955330313749610e-11  2.9847764868864900e-11  1.7935591664286713e-10  9.5964907685228761e-11  1.9850444534682999e-10  7.3917908168399571e-11  1.1384931080936224e-10  2.7560509511737152e-09  1.7135454250778168e-10  7.7887591697172572e-11  7.7590769937686784e-11  4.2634382456551871e-10  2.3787076916297815e-10  1.8777556612662707e-10  2.0452342676400669e-10  4.2278347687297874e-11  7.6372845606199160e-10  2.3451355891133879e-10  5.3291470062511696e-10  2.4935558731078657e-10  2.2318893503453359e-10  2.9925908484286982e-10  9.1931923045861431e-11  3.2255901906681244e-11  3.5030842138263435e-11  4.4247830311965505e-10  3.3610812997260525e-11  1.0682661834179449e-10  1.0711756372973900e-09  7.1500233210009742e-11  3.3185775789193892e-10  2.5106534010126848e-10  5.9867261506945236e-11  5.6329182774869433e-11  1.8576698290024816e-10  2.5223351127088581e-10  4.6414345137839987e-11  1.0825561908483385e-10  1.5153134775699974e-10  7.3915900846793246e-11  1.6018453324469043e-10  2.4821875032069078e-09  3.5383342955808262e-10  3.1344707651561355e-10  1.0840030467444156e-10  1.0267226180422077e-10  1.7464005739357070e-10  7.5478602276455330e-11  1.2736261828107286e-10  4.5898154713825832e-10  8.2065850299264604e-11  2.2308135234764129e-10  2.0351723779114352e-10  1.3613198096016482e-10  4.7399488627060879e-11  7.0654575484482807e-11  5.0274248762071127e-11  6.4876822907667804e-10  9.8664148833666938e-11  2.1858535828428486e-11  5.7513417014860013e-10  2.9386532992142789e-11  6.1282588036732588e-10  1.1686668896603290e-11  9.7716139153140016e-10  1.8188807412489336e-10  2.4546526167154710e-10  9.4973027359362755e-11  2.7718136578634506e-11  7.7946065719797702e-11  2.6216416907720604e-11  1.9260399850793918e-10  3.6711046593602930e-10  2.6406513454386018e-10  4.9574744594667767e-10  2.3328549218140995e-10  8.7637688403117066e-11  5.9453943688119047e-11  3.7984203055171634e-10  4.8522833137346785e-10  9.8908892324327144e-11  9.2654485463835979e-11  1.3513016623930982e-10  7.3335137047409643e-11  4.2833581963450813e-11  4.9937894918324307e-11  2.9787826039147453e-11  8.6642131957575131e-12  1.7121072253066880e-11  9.3733263198499875e-11  2.1477855666255087e-12  1.0522671420972502e-11  1.9339648752237306e-10  3.6831642195342325e-09  2.0279726514856268e-10  3.9195853954384313e-11  2.0906663726449286e-10  8.7203641724065332e-11  1.0669358820514071e-10  4.1911973567033424e-11  1.6050929093151612e-11  8.1871652718218974e-11  1.0013530912277211e-09  7.6550504194916313e-11  1.8147905672164340e-10  3.1343580668023309e-10  4.7766018033962046e-10  9.3789013447258172e-11  9.8839111753902558e-11  5.6585818494255116e-11  7.5014104012767738e-11  1.0305767036021706e-10  5.2958902342224397e-11  6.1315054098388907e-10  5.7439434907316055e-11  2.8129110211262581e-10  8.2263289658182406e-11  1.2354192604348637e-10  2.8826040620157015e-10  4.0291109939763898e-11  5.7482462102804654e-11  2.5387311590118721e-10  1.1085400321151787e-11  1.0632895720021433e-10  8.6485479510937171e-11  7.4370847694912121e-11  5.5062252991469132e-10  1.6960134714580944e-09  3.0372491832131342e-10  2.9286310852807641e-10  8.8080554113508067e-11  6.6411105617364471e-11  2.3217671063265603e-10  1.1137027311423958e-10  9.4434850220690468e-11  9.6865919420452158e-11  1.8008019025010298e-10  6.9087259735405316e-11  4.9880550965018779e-11  6.7052335195266001e-11  3.7994189766039445e-11  8.2612529471945565e-11  1.9669833990515253e-10  1.5967640199204417e-10  1.0972673530059661e-10  2.7935701553788959e-10  4.3731784050457490e-11  1.3206452371315947e-10  5.3529863391539191e-10  6.1774435902750623e-11  1.0965816589074790e-10  1.4120606804445537e-09  5.5938562239383323e-11  3.5046269876048286e-10  5.4974629805126200e-10  1.5832667287431321e-10  1.2142566051634624e-10  1.2346071563656867e-10  8.5784950022689695e-11  3.4389172374072636e-10  2.8919461040972962e-10  1.7517491378687250e-10  4.8358782635182861e-10  4.2131239477355030e-10  1.1088638056614637e-10  1.9040451897546705e-10  6.3663150362958670e-11  7.9479820910355813e-11  6.0666084280341226e-11  2.2041231432980787e-10  3.9232305595979939e-10  3.0254379340600665e-10  3.1718914153371100e-10  7.9953500783854608e-11  2.5244611306573565e-10  5.2130207687785032e-10  1.5897546711417605e-10  4.3211178029459783e-10  1.7203084431330585e-10  1.3346340999241929e-10  1.0620301485170093e-10  4.9815637990684736e-11  5.2048648232671533e-11  3.2573490169125967e-10  5.7991195508709727e-11  6.2038125731782153e-11  1.2345038164616672e-10  3.1131302548062923e-10  3.1137272768802853e-10  1.5103319884936455e-10  1.1417361210537892e-10  6.7608126919020660e-10  6.3111404120734591e-10  2.1277121443516548e-09  3.3439420423263709e-10  2.4285528619435343e-10  5.2105620096173859e-10  4.3404921500382880e-10  1.7383766682264046e-09  3.1392901470779998e-10  2.3291870407595807e-10  3.1244822593315604e-11  1.1789915592046041e-10  3.4200686642354861e-10  5.0658281171848471e-10  2.2360453252252722e-10  6.6625771551650490e-10  2.8304992921647009e-10  2.0335713128418764e-11  4.6172341449049541e-10  3.5150173536620480e-10  3.6890128094114953e-11  3.2276670797307667e-10  4.0569755938838260e-10  5.1708994205791376e-10  1.4136810483896095e-10  6.3989006515867054e-10  1.8127099415712306e-10  4.4710658479117498e-11  1.2222887065165879e-10  1.2376005744136142e-10  3.2076981267441942e-10  7.3642351885287398e-11  2.4024206696737173e-10  1.7983829302939473e-10  7.6062900660467650e-12  2.1161803165436691e-10  5.6077215054901409e-11  8.6639185637783303e-11  1.2105985574648937e-10  6.6250519965097501e-10  4.6065886659047548e-10  3.1960630496094630e-10  1.1392883621114884e-10  1.2185081300126530e-10  1.0206152791268135e-09  6.9075440345719307e-10  1.2975195127341552e-10  1.3788888223739217e-10  9.1162645089634577e-11  4.6995008558525746e-10  1.2637719825078871e-10  1.6010039913671421e-10  8.7140277285258463e-11  6.8359367817648687e-11  6.1522627755796149e-11  1.4445534638482003e-10  9.4715381690330663e-11  1.2162494435372606e-10  3.8587130318397744e-10  7.1235402028732971e-11  7.0544462927294355e-10  1.1649233119618549e-10  2.2089954893815212e-10  2.5197848838677161e-10  6.3004536567530316e-10  1.0898877713364930e-10  3.8152955808437144e-11  5.8540639030148846e-11  1.3886819499136706e-10  1.5280855101908653e-10  4.8334807291260838e-10  8.1032989143916919e-11  1.4667530531156050e-10  2.2954633638139923e-10  1.3283850180047458e-10  2.2447919573994714e-10  3.2700319621296646e-10  3.0758246908166773e-10  9.5471199735137184e-11  1.7094405284603753e-10  1.4167127900461937e-10  2.1537327655996881e-10  4.3200005337827839e-10  3.7072361828629625e-10  1.9956576667812087e-10  1.8280919666786768e-10  1.1384981979588651e-10  1.6331071244787126e-10  3.0354374302771067e-10  3.7206902513756622e-10  3.5503478344148195e-10  1.6523123739377348e-10  2.1302858420228634e-10  1.8763862473160549e-10  1.4008728010898762e-10  3.8329812737081010e-10  2.9757842387701554e-11  9.9065601772123252e-11  1.2373816812120678e-10  3.2773048430461185e-08  3.8575940078732460e-10  1.6777260349103679e-10  5.9943590786178814e-11  2.5159121385282078e-10  1.3232192763366943e-10  5.8812175865206942e-11  9.8760116770877523e-11  1.9941895515787886e-10  1.9567605878725129e-10  1.8310476397927112e-10  1.7688539321859503e-10  2.8465788912879020e-10  5.9883695761093416e-11  7.5987663976517463e-11  1.7741661128323960e-10  1.1883601911874478e-10  3.3756296795248341e-11  3.7216499189366932e-10  5.9795040690507482e-11  5.8791497079043805e-11  1.8661609337202514e-10  9.0766252740480189e-11  2.2774299146593286e-10  2.9059555052708056e-10  9.1383749098471494e-11  8.1537827482766467e-11  1.6971229445868956e-10  9.1072733164969098e-11  3.1301080484613146e-11  8.5465623549551583e-11  5.7189839914860170e-11  7.8270337932195081e-11  2.9998919627017212e-10  4.3907325435202752e-11  6.1950564644715781e-11  8.9681454300979430e-11  8.7723480281469970e-11  8.8186972532170671e-11  2.7239442807346069e-10  8.4026424112426095e-11  1.7648327387851600e-10  2.0892559464485108e-10  1.0372560368811125e-10  1.5593603539735228e-10  3.0700981473634255e-10  1.1440071413372742e-10  6.6025013630447370e-10  1.5808390516495957e-10  1.3956322620244193e-10  1.4140503660964779e-10  2.0526275711654451e-10  4.2616842395342143e-11  3.8267728092435942e-11  7.2033367665138368e-11  4.2736485516168773e-10  2.0825450415878907e-10  6.3262981335564065e-10  4.4488271658588315e-10  1.1472846801699770e-10  5.5517828036394079e-10  3.5892094674709376e-10  1.7781240705773781e-10  6.6065646952043621e-11  8.7384229217161450e-11  1.7125306418071944e-10  1.8747344074511067e-10  3.9185722971048719e-11  4.7943204698100676e-10  2.6986360636388271e-10  3.1638027258984848e-10  5.1113338945402939e-11  3.2367249161825919e-10  2.5438261307749864e-10  7.6030413046142528e-10  7.0256423747664136e-11  5.7704167831479186e-11  2.2968600440491929e-10  6.8034918806632715e-11  3.9633535012384821e-11  1.3496309234936952e-10  2.3168702896495853e-11  6