<?xml version="1.0"?>
<VTKFile type="UnstructuredGrid"  version="0.1"  >
<UnstructuredGrid>
<Piece  NumberOfPoints="4852" NumberOfCells="9430">
<Points>
<DataArray  type="Float64"  NumberOfComponents="3"  format="ascii">-1 0 0  -1 -1 0  0 -1 0  0 0 0  1 0 0  1 1 0  -1 1 0  0 1 0  -0.5 1 0  -1 0.5 0  -1 -0.5 0  -0.5 -1 0  0 -0.1608775713298009 0  1 0.5 0  0.5 1 0  0.1967448868031411 0 0  -0.4124871058785065 -0.2160995227802226 0  -0.4088452656001017 0.2723780537797758 0  0.2143164685902024 0.4146300566578122 0  -0.2253540969236247 0.6179370008156166 0  -0.5640701741556594 -0.5826341283710084 0  0.5373851785530714 0.2944915636926878 0  -0.08768686677343769 0.2629770529246046 0  0 -0.5061325913258391 0  -0.25 -1 0  -0.6143897086442165 0.621777194993286 0  0.694146065228629 0.6792343244405613 0  -0.2116161607125365 -0.5801591554296669 0  -0.6127100833394807 0.03659136106536277 0  -1 0.25 0  -0.2746818556322473 0.02293398252309058 0  -0.7061821343625315 0.3547504004771098 0  -1 -0.25 0  0.03993682052973025 0.6583112432310445 0  0.2451327801964037 0.1504469386070383 0  -0.1556384956550471 -0.2762320064905152 0  0.4091050320716418 0.6716781027969729 0  1 0.25 0  0.5355652144809806 0 0  -0.75 -1 0  -1 -0.75 0  -0.7032353959462594 -0.356566026339274 0  0.25 1 0  -1 0.75 0  0.02757118475249542 0 0  -0.25 1 0  -0.75 1 0  1 0.75 0  0.75 1 0  0 -0.02898318711980711 0  0.08190419832395303 0.1871005895577251 0  -0.1055291964615137 -0.05103460647117561 0  -0.7550564865872867 -0.1417845671451771 0  -0.3823494031234836 -0.4004570665887558 0  -0.4012084983123486 0.4971282576028201 0  -0.1180278347600388 0.8044740152565829 0  -0.4294313278744387 0.7435670475149734 0  -0.07259428145412247 0.4744112643034797 0  -0.1162172570834007 0.09683163306511652 0  0.4110245186799543 0.4276449540452821 0  -0.7529071803364944 -0.7601768672553847 0  0.4482674903499667 0.09494763921535419 0  0.7165835438512963 0.2095445663666951 0  -0.787000624842459 -0.5645001458493039 0  -0.4348434774002377 -0.741645550508329 0  0.7483413252082798 0.4620755067932399 0  -0.8166666204950254 0.1162045347497467 0  0.2204792574985706 0.7510364354195469 0  -0.2522991945669006 0.3519979119637661 0  -0.8270990146384162 0.6095949824403909 0  -0.7487848193400224 0.790867280873282 0  -0.0508758539918756 -0.409753426264869 0  0.6111218796043567 0.847478448634609 0  0.8372448949873831 0.8299705377884924 0  -0.1189401166886713 -0.7157947208458724 0  -0.5855309442518337 0.2008522291641952 0  -0.2666543293458671 0.1600050432557983 0  -0.439180004044722 0.09444277166624661 0  -0.4459414006543596 -0.06379968913627745 0  -0.5597634760716604 0.4482120283058976 0  0.375 1 0  1 0.125 0  -0.01379597215075846 0.1036693641418717 0  0.07580875801525873 0.4680944768439781 0  -0.2152511676529249 -0.1699387066274803 0  -0.2773349434257059 0.8084895279877964 0  -0.625 1 0  0.5775798781908302 0.5090331648991684 0  -0.6108327941858999 -0.8502064036057139 0  -0.2843199951623612 -0.8034886083617524 0  -0.3756772107523625 -0.5560025112293174 0  0.8504468701776227 0.6273043401270485 0  -0.586129954940275 0.8178041074813299 0  0.125 1 0  -0.07582393628427905 -0.1278123412721741 0  -0.571370618733383 -0.1628645868163182 0  -0.875 -1 0  0.04617497387131319 0.05491787874352133 0  1 0.375 0  -0.875 1 0  0.05964455282950395 0.8331474987326426 0  -0.2324823690565219 -0.4298249440152631 0  -0.0946908524414639 0.6373266737674147 0  0.2722337605843368 0.5858819122451557 0  -0.8266967768032782 0.2599958558038531 0  -0.562004428524574 -0.4345575538078899 0  0.0008766252125658869 0.3423162097692633 0  0.5492252729764295 0.6909836473524777 0  0.4250542540992198 0.8413838404527194 0  -0.8345843932841377 0.4595693342054252 0  -0.06001587218104554 -0.2585247877595447 0  -0.7613796619548527 -0.008025429790731545 0  0.1212136914790355 0.05479770252023746 0  -0.551177774257337 -0.2887971651168181 0  0.7372273319461325 0.08640350506697553 0  -0.8411784056447408 -0.4392163623366852 0  0.3888361310498684 0.1760573215650521 0  -0.8315645553651777 -0.2696138406553193 0  0.2911357795836366 0.303977746357195 0  -1 -0.875 0  -1 0.875 0  0.2145197409543542 0.04019178632202813 0  -0.3016220856499587 -0.2839579615598178 0  -1 0.375 0  -0.226680891218809 -0.06950787155356782 0  -0.6976734831374151 0.5126948921157259 0  0 -0.07736776745332727 0  0.1077624940095953 0.3258605665511227 0  -0.375 1 0  -0.269290914210043 0.4912307999612032 0  -0.1647983239160148 0.1971678910435947 0  0.1544492840605269 0.622458923152994 0  0.1764571112386758 0.2410247742938883 0  -0.5438886894801547 0.3180000001405825 0  -0.07155671723541791 0.01400321145516056 0  0.8630589575641771 0.3977788149760548 0  -1 -0.125 0  0.30395050641995 0.8673486445608618 0  -0.1453390386145764 0.3840172758714674 0  -0.125 -1 0  0 -0.7575037395175259 0  0.07821397079968176 0 0  -1 -0.375 0  -0.375 -1 0  -0.625 -1 0  0.7474787146812756 0 0  0.625 1 0  0 -0.2918843213980812 0  -1 0.625 0  -1 0.125 0  -1 -0.625 0  0.3284075310660084 0 0  0.004929205892015135 0 0  -0.125 1 0  0 -0.006571003003944568 0  1 0.625 0  1 0.875 0  0.875 1 0  -0.6131806530607167 -0.712769925607354 0  -0.001979115438749841 0.2160252732228276 0  0.417808550015401 0.305996988783557 0  0.6868490095985635 0.3279475697238834 0  -0.8756171756106311 -0.6736966642156272 0  -0.8813362187745504 0.8042400701222741 0  0.4754144969415217 0.5618204521178057 0  -0.4249343926093198 0.8776524781105923 0  -0.799133025377547 -0.8880948445867136 0  -0.8861183445969317 -0.8027843903534906 0  0.167097316361844 0.8719653454337848 0  -0.7140491988126804 0.1850976198991506 0  -0.6481310022744877 -0.06870668073833587 0  -0.8829024385677996 -0.06099584483752647 0  -0.3494131372842086 0.6187017040108809 0  -0.4802040561921568 0.6207524265716859 0  -0.4434741739569384 0.3881920982142833 0  -0.6821402609051791 -0.240112658504746 0  -0.3433402589792206 -0.1214740352176841 0  -0.6906735153248628 -0.6300729758355518 0  0.8718285406831668 0.2787007978332003 0  -0.04148535062672769 -0.04625100280012501 0  -0.07751780010965077 0.1581763091930761 0  -0.1705963138301791 0.5036997059091142 0  -0.1706188048203804 0.03537392574645105 0  0.5592423931987571 0.06706589503469042 0  0.6207163487807811 0.4072539434025492 0  0.7178144796021771 0.8072642152978097 0  -0.8134549392785628 0.8934032441846623 0  -0.6991384042450154 -0.4690297927574755 0  -0.1344087301059817 -0.4492406174928346 0  0.8818975888915053 0.5179753754771523 0  0.1108445431899449 0.117926878901131 0  -0.6890043002248285 0.8856626885221195 0  0.5043859247581178 0.4017976852670189 0  -0.04189653754772858 0.05269269046978216 0  -0.4729270796828693 -0.4902448413364696 0  -0.4304951659654604 -0.3170443098492038 0  0.3681065992252577 0.547423428945425 0  -0.2548983731023711 0.2532113069361415 0  0.7355554761010331 0.5763362046759877 0  0.311403889738732 0.4197124339285817 0  -0.4083559110596505 -0.8656494161819215 0  0.1205142084596695 0.736885029735865 0  -0.3314244482687566 -0.6506527451411575 0  -0.4975912379176972 -0.6604133107304127 0  0.3271063536176161 0.7437021559608932 0  -0.8981150636996035 -0.1823018755860504 0  -0.2000475125749037 0.8803777217800626 0  0.4995148632456608 0.1861976651954655 0  0.3038693749799285 0.04262151528862177 0  -0.1727130495002653 0.710873107380148 0  -0.02073983971103604 0.759001104427113 0  -0.06023206181642798 0.8993750226751221 0  0.001693230787630873 0.5451011770480692 0  -0.4644216282937472 0.190066403809722 0  0.5831978802131061 0.1464937765363663 0  -0.5247761796739082 0.7229323359274686 0  -0.8753052695090808 0.3618808845668272 0  -0.1121093971535791 -0.5715199305886538 0  -0.03560099572699596 -0.5751993659962487 0  -0.2546717472752172 -0.3465796413320726 0  0.8768624274254133 0.1566672080130926 0  -0.1974258506256437 -0.6896223405328785 0  -0.9057124653978059 -0.5518108300675628 0  -0.3437438881677395 0.400083719699828 0  -0.7192096857527648 0.6145503453453366 0  -0.9124098039951359 0.5526687183467017 0  -0.9132794943360084 0.6796185005096012 0  -0.7043971785010373 0.09250687992647011 0  -0.8864440928925422 0.03787063762056376 0  -0.9095751984415801 0.1816224935678026 0  -0.1722753271318026 0.2905846831104381 0  0.1914929760925761 0.5194875189390517 0  -0.04155588711192507 -0.151758711011755 0  -0.7859481296447218 0.6998617145131225 0  -0.6468764544103127 0.7324528073439072 0  -0.3283859622556231 0.09790288238464544 0  -0.2938906995010188 0.6994703195366455 0  -0.04028061155237283 -0.0135214007366368 0  -0.5225420460778941 0.8940107886030075 0  -0.5372572199917396 0.543639629372805 0  -0.3644898067413456 0.179918787275123 0  0.005069471593679369 0.03630983029397036 0  0.8018775915091525 0.7188581481598748 0  -0.5058107655607149 -0.8443282159249713 0  0.3281628194874374 0.229596081966475 0  -0.1554371174648564 -0.8723277764932074 0  -0.06802830308834026 -0.83591840343873 0  0.477984673629528 0.7529122753527085 0  -0.1280363870986151 -0.3430041496133082 0  -0.3395213191239331 -0.04018106783411914 0  -0.9033515999393418 -0.9047713990219587 0  -0.6354602542188542 0.2816636513252473 0  -0.5528524467461033 0.1113605649941816 0  0.5179365984193092 0.8566769925193265 0  -0.02224700082772972 -0.2793279316430498 0  -0.334914448792396 0.8957137784644789 0  -0.1993337853002162 0.1032540500121718 0  -0.5482387752064072 -0.03614506019332913 0  -0.4700757881691856 0.01691174901585739 0  -0.3700565604861019 0.03191107268160771 0  -0.4634428783332353 -0.1455030199726409 0  0.8995458481929774 0.7203264602347735 0  0.8065964921010945 0.9234132862138646 0  0.6147761790557837 0.2339118703084231 0  -0.6203155833264967 -0.5146049910233692 0  0.6328330794582629 0.7488141918653216 0  0.6954069864811946 0.9065302393530517 0  -0.06880425302007419 0.3764052737503167 0  -0.91126802697808 0.9122931020456246 0  -0.1651298649122714 -0.1050266881283532 0  -0.2041622562671557 -0.2385593082343962 0  -0.3142774596105832 -0.1882549629721802 0  0.05416685674054494 0.262667417856246 0  0.9098195326133387 0.906623889010734 0  0.8587337635176601 0.05824791916395843 0  0.2920471
[...]
<PointData  Scalars="w"> 
<DataArray  type="Float64"  Name="w"  format="ascii">6.3464368437304625e-11  8.2472582188885864e-12  4.3857107547687505e-10  1.4398328086381589e-08  6.0405498263493158e-10  1.4094953759691360e-12  7.6910433379749921e-12  4.2685442662550283e-11  1.9268359619676260e-11  1.2897615762268134e-11  4.8365690201372096e-11  5.5944844834367372e-11  4.9872314691571320e-09  1.0768606264482306e-10  6.4460123400536116e-12  2.3813889341771043e-09  1.0852232428559242e-10  6.4190395562715489e-11  1.3618627255232431e-10  1.8963390963807769e-10  3.8822742383211770e-11  9.9835152027524442e-11  8.6342998009175005e-10  3.1865826043721724e-07  3.7418604539121041e-10  5.1598001544149778e-11  5.2573420052364975e-11  1.2645903882343358e-10  5.0401072925792949e-11  1.3274982721537840e-11  6.9704239029281532e-10  4.9234415340367267e-11  1.0404134972507125e-10  1.0108827906114364e-10  8.6232468918735572e-10  2.8519824864595762e-10  4.5423214885694668e-11  2.9391737962503098e-10  5.6289582036167219e-10  1.7218752141668348e-11  1.9029763495131703e-11  5.8172666052559152e-11  4.2089342308369289e-11  9.5717483732356296e-12  3.3280020696478316e-09  5.3715373285109939e-11  1.8228551495005893e-11  4.1237509689525578e-11  2.4401914996447409e-12  1.4101307650094079e-09  5.5053256421281679e-10  4.9328743859653685e-10  4.7244219056743668e-11  2.2863338180599230e-10  1.5366818175487019e-10  9.3876266691086156e-11  1.7287622685570556e-10  8.5628760883875805e-11  1.3435546938697624e-09  1.9802694828683825e-10  1.4579773714799707e-11  3.7664730654733013e-10  2.5142122799885069e-10  5.7831578172928862e-11  2.9405300384675400e-11  1.0855319561852287e-10  3.0921111005233627e-11  1.1265223082058440e-10  2.5174893470881164e-10  2.1711976092021703e-11  3.7958826349449505e-11  7.4545335076729034e-10  2.6221054448515858e-11  4.9599768785364795e-11  1.4032847917845895e-10  1.1983158565986172e-10  3.7292439702888351e-10  2.1379333245887863e-10  1.5484795259232397e-10  1.1125289513881192e-10  3.8099111550265223e-11  1.9666648561917660e-10  8.2406503403872445e-10  1.7574956324431030e-10  3.3475828339412888e-10  6.9983007434276993e-11  1.7459979567824576e-11  7.1950320139700529e-11  4.8583639565805913e-11  1.5820162323547200e-10  4.6577406844126297e-11  5.0540017332076385e-11  3.8398033379999587e-11  4.1499036492723643e-11  6.7738232656478636e-10  1.3503739399919607e-10  1.5340895229641893e-11  1.8228721968164794e-09  1.5436992211258742e-10  1.7126098560310830e-11  1.2691027174188584e-10  4.5445714530236941e-10  7.4141028029417865e-11  6.4303668812855031e-11  7.3035224436143576e-11  4.0261610026771762e-11  4.0605542286447467e-10  4.1542510631449188e-11  6.7221129101342848e-11  3.1368656358343886e-11  5.9410699040977159e-10  1.2400437273506325e-10  6.2941212161749930e-10  4.5126122043803598e-10  1.2939175347168911e-09  5.2093664281497169e-11  2.9073020283358830e-10  4.6358317747652580e-11  4.7331885509181368e-10  1.6893228580417503e-11  1.6371059636705608e-11  3.6843871347247827e-10  1.0326499238014876e-10  2.4306932912844161e-11  9.4895836028368628e-10  2.6574585617637496e-11  1.5978054343384577e-09  1.7913857863524011e-10  4.2627237556506443e-11  6.4657195272958063e-11  5.4522773285307333e-10  8.4154952006367071e-11  5.9663166324619379e-10  7.5441798435452797e-11  1.8784851919750857e-09  1.9849086781012892e-10  4.6076535494381244e-11  2.5729445022632489e-11  1.8226907748336295e-10  2.1893839148334565e-10  4.4437161314447904e-10  1.3082737480300414e-10  3.4453057495182622e-11  5.8225884705335775e-11  2.4327417409076782e-11  6.3889865555826176e-10  3.6029041303799024e-11  9.9963120879758779e-12  7.3297915500824089e-11  5.9046581305349047e-11  1.0087999825290019e-11  2.8317967712539421e-10  6.3613331803488954e-09  2.9069687257344777e-11  4.2211779469093553e-09  3.3082555828882833e-11  9.1022674361767779e-12  1.3476489593008806e-11  6.8003432706651339e-11  1.0034535702327126e-09  5.4294020615012358e-10  1.2508184275260608e-10  4.0780962937150721e-11  7.8265610455387191e-11  1.5414854548281618e-10  2.9048575655488979e-11  3.3135774415411129e-11  9.7025343337109529e-12  2.3063453929034443e-11  1.3531877518895734e-10  6.2715775676477858e-11  4.8032455429736242e-11  6.0789496159030433e-11  4.8448529608715759e-11  4.1216140871622728e-11  5.5222073926944823e-11  4.8573751937542222e-10  2.9957419324905528e-11  1.2333389356010268e-10  3.6942466226263979e-10  1.0961397881503088e-09  1.5957007581694484e-10  6.1335948914328857e-10  1.5366602460505015e-10  1.0582254986072990e-10  7.0970751839061823e-11  1.4715497264960959e-11  1.2904766821731025e-10  7.7157248556239933e-10  1.1817821083732938e-11  4.6154895020749795e-10  4.3428197869046930e-11  1.0962395089130220e-10  3.3491603752041095e-09  9.8602477098146533e-11  1.6386216904705678e-10  1.8025881880933345e-10  3.2276760484842556e-10  5.2341520766629178e-11  1.8060583095149360e-10  1.9234226073722094e-10  1.4785674303270365e-10  1.3768562807147875e-10  6.4329659101634482e-11  7.7343650200824992e-11  4.6713524941557795e-11  4.1767495266282729e-11  1.9445933223972012e-10  1.7958952863370245e-09  4.2946370045968135e-11  5.5012810159353301e-11  6.7367681395504824e-11  9.0234651946850846e-11  1.6741036889455442e-10  2.7746971465113492e-10  5.5944366630240544e-11  3.2432731641031582e-11  6.6762007000016649e-10  9.7520969980816926e-10  3.5668233589905388e-10  1.8034942824686782e-10  8.8194084789275009e-11  2.8783788813560857e-11  2.5647336308195809e-10  2.6687341315420883e-11  3.6977481352387644e-11  2.8955452446464701e-11  5.7010397721923109e-11  1.4703820232775887e-10  5.0090377321723585e-11  2.8346372790601057e-10  1.4223105110116939e-10  1.5707341885672565e-09  3.2433670295774704e-11  9.1159511133712719e-11  1.5045564223496261e-10  5.5063586359428902e-11  2.4910230895910509e-09  3.5068697311920670e-11  4.9262197563220553e-11  1.5535101510526709e-10  4.0627755248533820e-09  1.9139899354118758e-11  4.1058014136399313e-11  4.0265115356790425e-10  2.0071170801023344e-10  2.9188399544408855e-10  9.5557850036890811e-11  2.9458773138110116e-10  4.4864035352827585e-10  1.6005285730184978e-11  6.9241335705370370e-11  9.5232647100080918e-11  1.9237489310663403e-11  2.7994222005066216e-10  1.8636148164447857e-11  5.8182042569409107e-10  1.1557130348155442e-10  9.7435214760003600e-11  2.2564926900862765e-10  4.4227910022975605e-10  4.6016365820668926e-11  1.3935544385121075e-11  1.0905566579335002e-10  4.8502380124047395e-11  2.9416737496149779e-11  2.6825839956555371e-11  2.1110960006914207e-10  2.3007874418876760e-11  5.1662872413918934e-10  3.3598850992416716e-10  1.9732421669966064e-10  2.5536538981079614e-10  6.4668656256955278e-12  6.2275115103878629e-11  2.1512695469058765e-10  7.6724582597114274e-11  1.1415890517877707e-09  1.8277129515758557e-11  4.7648493568400946e-11  1.9060790049157473e-11  5.2000638156321807e-10  8.3496222006644095e-11  1.0055656032768273e-10  5.3313572664586090e-11  3.4491909076139531e-11  8.5885466429367426e-11  1.2763541506178073e-10  2.4961926713459323e-10  2.2062975025024978e-10  6.9506147675708716e-10  2.2650245524032142e-10  2.4604628286288494e-10  8.1425836346786564e-11  6.5402694362378410e-11  8.8720022192270487e-11  1.1694409572141720e-10  1.7315323330027253e-09  6.7126426289466424e-11  3.4809154568083343e-11  6.0435319192492831e-10  4.1000571828873596e-10  7.8428133134758846e-11  1.3501366659313980e-10  1.7401409460276227e-11  3.2500487223978894e-11  4.0793983598729936e-11  1.0924571661081297e-09  5.1149130568901796e-10  1.5306337347556975e-10  8.3377609652908479e-11  2.2254429734979465e-10  4.5323588026922055e-11  8.7925224704336029e-11  5.5681331659328112e-10  2.8302485374757801e-09  4.1915984821542121e-11  3.5065786623477046e-10  7.4548074496637087e-10  3.4724876718650429e-09  4.2657181435330971e-10  2.9352758486181606e-09  7.7547049480955587e-10  1.7523855038791215e-10  1.7656625531325473e-10  1.7990026020636146e-11  3.1855792860013163e-11  1.1085072386097736e-10  7.0943243989038126e-11  2.8670239756260617e-11  1.2766880045616267e-10  8.4852923462551641e-11  6.3194242094950379e-11  4.3693432460952184e-10  1.2094540722839579e-09  3.4900835841395097e-10  1.3679962994327479e-10  5.7839980451348806e-11  3.9922973928096046e-11  4.8789297799410229e-11  4.0472080585019587e-11  1.2887563427679120e-10  9.9283512579218713e-11  4.1819090386841892e-11  3.9594111686768840e-11  1.2013108561142813e-10  8.2271082388125146e-11  3.4065356837026026e-11  3.0384270535552581e-11  1.2943136363330838e-10  1.6699933311435327e-11  8.5955528886431078e-11  1.9395105417538275e-11  1.7513660570880848e-10  1.8478850740738618e-10  1.5739549486067816e-10  1.7859705508227950e-10  6.1411016869717228e-11  4.0449429503677215e-11  6.6585590286496965e-11  1.3814560468238397e-10  1.3592872855300842e-10  1.8877479771888704e-10  6.2533030295375709e-11  8.0366639918142699e-11  6.0880020173196007e-11  2.3106915581890877e-10  1.2851742826792778e-10  1.8806995651833869e-11  6.4616094217490818e-11  8.3950429587489508e-11  7.4748647805825021e-11  9.0130116015745492e-11  8.7903984307685132e-11  1.7168797787521277e-11  9.1405462961207616e-11  1.9607996908086475e-10  9.9297894014880069e-12  3.1494854274144069e-10  2.3957196567064764e-10  1.2332927959523501e-09  1.0148363933377966e-10  9.9262876702561130e-11  2.3733422958027834e-10  3.9321462531884750e-11  6.0534259110162124e-11  1.3830881846777574e-10  2.6878078226873829e-11  5.7915824058540969e-10  2.4002930357081450e-10  5.1509440836475109e-11  7.4841463179637956e-11  1.1917212230852778e-10  9.8834460250044906e-10  1.3753118562312662e-09  7.5570393485098343e-11  9.8066704440264853e-11  8.1493705914409672e-11  1.9843410771427907e-10  2.2611856739847354e-11  9.2799670766944347e-11  3.0420042049095601e-11  5.0498276290394672e-10  6.4977986474760770e-11  2.8318890370578641e-11  1.3926883721534723e-09  3.9311747147413448e-10  1.8435935123933739e-10  1.2942217711495180e-10  3.5616504767424530e-11  9.4858619892781406e-11  1.7581739507933197e-11  3.6334336035004659e-10  3.7894165309370762e-11  4.8571288972215954e-11  9.8491508965970616e-11  2.9315382696016275e-11  3.0331760953729951e-10  1.8837529207641577e-11  4.2566901242480134e-11  3.2563485108527966e-10  2.0073987079465601e-10  1.3271486902290021e-09  4.8796395552755698e-11  8.6021995082834677e-10  6.6723194374992403e-11  1.0363880226691144e-09  2.6907109955689982e-09  3.0048455777019598e-10  1.6166768757048381e-10  1.2345597139523245e-09  1.0592540085809716e-09  2.5856631749110672e-10  2.9212800971580468e-11  2.9147964301080209e-11  2.8721582616851223e-10  7.8298528834411770e-10  8.8841317183843842e-11  5.2291774651745606e-11  5.1201567025060110e-11  3.3619923889688180e-11  3.6232570396347498e-11  1.6984436483018565e-10  3.3508670675302992e-11  1.5116232659531138e-10  7.7599507831043212e-11  9.3557553390476102e-10  2.3882045780012421e-10  6.0080283155237324e-11  2.7632967032211065e-11  4.0994266803555475e-10  1.3115973786908829e-09  2.5551487018049129e-10  2.6736262703178302e-09  4.6344788010436088e-10  5.5935939555920285e-10  9.0615200709779172e-10  5.0255573914329423e-10  6.5878665956225268e-11  1.5812485164912506e-11  1.5316578873215475e-10  4.2103408876334216e-11  1.1112800394912720e-10  6.2700180383318974e-11  6.1025061611683487e-11  8.8042970023815880e-09  1.3755850379751043e-10  5.1072934460000029e-11  3.7701899246346653e-11  6.2944312389435835e-10  3.1241718279633125e-10  2.3664913623615450e-10  2.2317180947941565e-10  2.7316193979804326e-11  1.3311654470570087e-09  2.8049480790076688e-10  5.1440567195140388e-10  2.1928782242290182e-10  9.8328846693169266e-11  1.8205584711424331e-10  7.2731548586506448e-11  2.4414238982057607e-11  2.4049950528196743e-11  1.1663630780147628e-09  1.8029347517880135e-11  4.4263760502986245e-11  1.8523701818503539e-09  4.7482243389124168e-11  1.4610743117227021e-10  1.4642234441528981e-10  4.9141876970762870e-11  2.5146998730357801e-11  2.9359100186812452e-10  4.2584660233599174e-10  2.1592943089279335e-11  1.0316129471471894e-10  7.5909779012014315e-11  5.3790491518020846e-11  1.0901057115358661e-10  5.2402519701017563e-09  3.1275025587444481e-10  2.6964928175656217e-10  1.4233197663640843e-10  5.5302896658001172e-11  6.3424038710507515e-11  3.1000173257138948e-11  8.8762662077422113e-11  3.3316745174835067e-10  6.5896198686946980e-11  9.8941776702643648e-11  1.1795404400062178e-10  1.6139985288831332e-10  1.7167240570840075e-11  2.0948505561462744e-11  1.3246846340538734e-11  5.0858520909425104e-10  5.9604099105846665e-11  1.9906977044634988e-11  6.7593639294354402e-10  1.5691837484065820e-11  5.7756603287787622e-10  9.6558049764772587e-12  3.9192832095644351e-08  1.0075151764582430e-08  1.7325224709335370e-10  4.0346790039446095e-11  1.9085805258076965e-11  3.6259623748508015e-11  1.5133067297751000e-11  7.6739084806270442e-11  3.3405375681985807e-10  1.9412071531226818e-10  1.1867274484181603e-09  9.1321963973697696e-11  3.9242539242473227e-11  3.0883152251567588e-11  1.1220404195108546e-09  3.2040440238859962e-10  4.3084709173376971e-11  4.1032591647927280e-11  6.8064865305361613e-11  4.5573057120324908e-11  2.3376664425142763e-11  2.1935861265234810e-11  1.7900239747381410e-11  7.1462296648173773e-12  1.1420659514160858e-11  4.4347244712444464e-11  1.3695028761187361e-12  6.4667499797222789e-12  9.2196458717090098e-11  4.6661671635799438e-09  7.4405176186965888e-11  1.2573519614286711e-11  1.4119258503567818e-10  5.2893466195359021e-11  6.2447670109897718e-11  2.2538236847780832e-11  8.7852796647795560e-12  4.0321749741843450e-11  2.7971543763063595e-09  4.0596838360527721e-11  1.7859784374789397e-10  2.3457768473626190e-10  5.3393953235725133e-10  7.2445328316320442e-11  7.3546843625826421e-11  3.8242497535132143e-11  7.5779657188912334e-11  5.0882578705284801e-11  2.7361074372770833e-11  4.6882059759888186e-10  3.8733409118493043e-11  4.7791633078216992e-10  4.2056207205179969e-11  8.5748601043746715e-11  1.4072400583800777e-10  3.5415351688946315e-11  2.3525126411671647e-11  9.0461316287712701e-11  5.7798455678432008e-12  6.1779859751298845e-11  6.9664593516052087e-11  6.0074733481810338e-11  4.7713411166832547e-10  2.1832160033221495e-09  2.7384873415271517e-10  3.6556293253851132e-10  7.7201042625440240e-11  3.4674865517008497e-11  1.4809087809940995e-10  6.1434313287434099e-11  3.5866516324290188e-11  4.3544357415429271e-11  9.9110316502986179e-11  4.3085916226764661e-11  2.3134514157447539e-11  3.3815185450283733e-11  2.1887030386843156e-11  4.7730427563644282e-11  3.0550691920785038e-10  1.8102340652970379e-10  1.1647791479750519e-10  2.1986105117770039e-10  2.2380153457439243e-11  9.8529970933963739e-11  7.7851593652507900e-10  3.1868826495435714e-11  6.3868521364994816e-11  1.2590023662279413e-09  3.9997971499415971e-11  4.2052992215508053e-10  1.2363194306796313e-09  2.3425677964082877e-10  6.3717233791943765e-11  1.2014465472914632e-10  4.2893819890881721e-11  6.0211124819562222e-10  4.2580316625344545e-10  1.7895694418543227e-10  8.4288305405324490e-10  5.1451112602327666e-10  6.1599964337763969e-11  8.8633887634521869e-11  3.2644609087313167e-11  4.5563275969505418e-11  4.9349995484938460e-11  1.4829230633720078e-10  3.2156047592588556e-10  2.6209326556721050e-10  3.4251758981920602e-10  4.6002409801096574e-11  5.6910091983909268e-10  1.1640857420102605e-09  8.0942294677956661e-11  2.2943928572618065e-10  9.8215583647321808e-11  8.7896089344668208e-11  6.5365321567350655e-11  3.3553674272312489e-11  2.4254977993172637e-11  2.5824644607198006e-10  3.4128708114405774e-11  4.5279676545154990e-11  7.6797274517216507e-11  3.2866012867688929e-10  2.7432100529875300e-10  1.1821437851162603e-10  8.3233803603330635e-11  1.5205618950214567e-09  1.0430951692216698e-09  4.7791896031899891e-09  7.2543712761853695e-10  3.2990385668733097e-10  1.0474833617421994e-09  3.1797744270252996e-10  3.7381575637155602e-09  5.0143779203692994e-10  1.1847010994459403e-10  1.7814712942623658e-11  5.7907405372408808e-11  2.8411656175055595e-10  2.9519640493356006e-10  2.6191722204275270e-10  7.9113146311193394e-10  1.2405295593290410e-10  1.2170258308051652e-11  2.4376203783715171e-10  5.7662110823022919e-10  2.2983702902125986e-11  4.0209191569085355e-10  3.3069014467604717e-10  6.4134170561565618e-10  1.7587865500011402e-10  7.2095179622145295e-10  1.5880607081493197e-10  3.2550602688972838e-11  1.1805102759587687e-10  1.0141111955911506e-10  4.0534203394297716e-10  2.9103434139852654e-11  1.3678466360658967e-10  7.5636553919070327e-11  4.0671794747855734e-12  2.3937644193853046e-10  3.2801484350279333e-11  5.9213149507088402e-11  8.8201058977494471e-11  1.2442740511495454e-09  8.6108210212439372e-10  2.5268539048978302e-10  9.3088196086942929e-11  5.3382197308139088e-11  2.1386786634692816e-09  1.5530505779268288e-09  9.4074465794771822e-11  1.0107610661892728e-10  6.9079081707114573e-11  3.9987586243370969e-10  6.6008040210611047e-11  9.6414704047334526e-11  4.3856587177466022e-11  4.7745050501315488e-11  4.4816008760339963e-11  8.0579939131561013e-11  6.6978664034480974e-11  8.2436705563435528e-11  1.5000366553094608e-10  3.4105884943746389e-11  1.9751793259187735e-09  5.9865481969704586e-11  2.9736705830928989e-10  9.1874996599556422e-11  1.4161161826443980e-09  8.1558975622332252e-11  2.1581930310289872e-11  3.1583230193983159e-11  1.4098299496377059e-10  1.2589037046877014e-10  3.1576159096798702e-10  4.0420191344428987e-11  5.4627316901887544e-11  9.3607929025678724e-11  8.9329211934358851e-11  1.3604225315565350e-10  2.1658975137668967e-10  4.1249698838544504e-10  4.8814073156929594e-11  1.4684838805062517e-10  9.2739055086152759e-11  2.2587011365832872e-10  4.4761285715663741e-10  3.8396588111055456e-10  1.9580069270618911e-10  7.1458099911950275e-11  6.4417561929411350e-11  8.8248281184119213e-11  4.0929775901692787e-10  3.0649970338390447e-10  2.9292651237664242e-10  2.3546290166933658e-10  2.3843069616894638e-10  1.3131939236507211e-10  6.4527148454301296e-11  2.4626164704902277e-10  1.4986880183095705e-11  4.9960761345713727e-11  9.8895390855978185e-11  3.8216449620519398e-07  2.8676458580604982e-10  8.6244916270119085e-11  6.9556356795276237e-11  3.2485942612572300e-10  9.0233571543034632e-11  2.9532573373455380e-11  5.9673405571416348e-11  1.8917644773131339e-10  1.6199835002140904e-10  1.2521581506402174e-10  1.1116866796285747e-10  2.0809766368750412e-10  2.2336151721202706e-11  6.3987419201187844e-11  1.4256121655898366e-10  1.0502445650973982e-10  2.0857937615760690e-11  2.8922378036509513e-10  3.6371747163365431e-11  3.2459585443567541e-11  1.2705891630977246e-10  4.4394891825082159e-11  1.5095042038133664e-10  3.0849137691269972e-10  1.2874243490194816e-10  6.3676855261844456e-11  7.3937369968932646e-11  5.8590821014398530e-11  1.6829820937980852e-11  3.8469246708881095e-11  4.3761903629846615e-11  9.3319773993480375e-11  7.7393335772396603e-10  2.3820245994478154e-11  2.3716104964749411e-11  4.1958226722436916e-11  4.7690134765338954e-11  7.9542800674611457e-11  2.2152751736131109e-10  5.6129895997565758e-11  1.0923939189101725e-10  3.4242142215465889e-10  1.5640765285164610e-10  1.1771037575449169e-10  2.4226180810698445e-10  5.9016880593032925e-11  1.1749884676946322e-09  1.0018107470545944e-10  1.0088987954371325e-10  1.9801047099764338e-10  8.7585596669803034e-11  2.4738330208197220e-11  2.0977297866378364e-11  4.5404397804804160e-11  4.6145569903445539e-10  3.1745760157431234e-10  4.8789612549712339e-10  7.1418790528005458e-10  9.2832316404158867e-11  9.2715283197492519e-10  2.8652318042957336e-10  1.3682867268420574e-10  4.1808607467506604e-11  5.1687521480343913e-11  2.0150306293177682e-10  2.4566199414117224e-10  2.3774569005981220e-11  3.8269471027543490e-10  1.8675831537538756e-10  2.8060090545193880e-10  2.6012702033751284e-11  3.0408297194551225e-10  1.6439084734341061e-10  2.3130884593898018e-09  4.9522754947440577e-11  3.3158896812458569e-11  2.6766554270779176e-10  4.2128661272476599e-11  2.1231480169139270e-11  6.1655270414905091e-11  1.3782456067421177e-11  2