<?xml version="1.0"?>
<VTKFile type="UnstructuredGrid"  version="0.1"  >
<UnstructuredGrid>
<Piece  NumberOfPoints="4852" NumberOfCells="9430">
<Points>
<DataArray  type="Float64"  NumberOfComponents="3"  format="ascii">-1 0 0  -1 -1 0  0 -1 0  0 0 0  0.9999999999999999 0 0  1 1 0  -1 1 0  0 1 0  -0.5 1 0  -1 0.5 0  -1 -0.5 0  -0.5 -1 0  0 -0.1608775713298009 0  1 0.5 0  0.4999999999999999 0.9999999999999999 0  0.1967448868031411 0 0  -0.340495647408952 -0.1754590461196804 0  -0.3362873250937584 0.223947341884137 0  0.1739813757415117 0.3456635427118602 0  -0.1847838335665569 0.5545670967160928 0  -0.5042477550521905 -0.5373051639755202 0  0.4904567019823485 0.2567915630991479 0  -0.06407675765677727 0.2006422006091743 0  0 -0.5061325913258391 0  -0.25 -1 0  -0.561060915845619 0.5773192262225414 0  0.6615947090440938 0.6340289473320417 0  -0.1758624048507935 -0.5372924393848149 0  -0.5384889849615139 0.02541683365624931 0  -1 0.25 0  -0.2057276260914694 0.02370040066960837 0  -0.6541236083897627 0.3093173598743183 0  -1 -0.25 0  0.03933731830852247 0.5912710651164025 0  0.1950962245067025 0.1285710550198344 0  -0.13641153272172 -0.2196308110663776 0  0.3711131683613263 0.614207990000604 0  1 0.25 0  0.5355652144809806 0 0  -0.75 -1 0  -1 -0.75 0  -0.6450613369941398 -0.3228849701964727 0  0.25 1 0  -1 0.75 0  0.02757118475249542 0 0  -0.25 0.9999999999999999 0  -0.75 1 0  1 0.75 0  0.75 0.9999999999999999 0  0 -0.02898318711980711 0  0.0543100462572134 0.1419546630612056 0  -0.07752705695480658 -0.02779518702759905 0  -0.7008655228776176 -0.1323219071986339 0  -0.3219600861476125 -0.3468034682466596 0  -0.3398553435057252 0.437001943169144 0  -0.09985311534904291 0.7640041642292309 0  -0.38312081348972 0.7023072770135225 0  -0.05457155087133132 0.3984218721077599 0  -0.07867274086421132 0.07178682469631754 0  0.3588805822859155 0.3691000497346016 0  -0.716380714600819 -0.7301568854716031 0  0.4118057838583672 0.08976558138390005 0  0.6899582926867998 0.191495939087756 0  -0.7474623079861684 -0.5271798790477853 0  -0.3881720005076987 -0.7104128775979367 0  0.7215903768928953 0.418545627713213 0  -0.7756912618611617 0.09697698026585529 0  0.1968218209296068 0.6983185552124651 0  -0.1982707175109294 0.2880359607825018 0  -0.7987810602808172 0.5774314503815707 0  -0.7166233168855372 0.7663180503827217 0  -0.04983660951180224 -0.3735527637061607 0  0.5849167619999064 0.816467531005391 0  0.8205227850275261 0.8063004297796352 0  -0.103710116484354 -0.6964852870808083 0  -0.5140645719037843 0.1625359034770262 0  -0.2013718333767444 0.1253520214773036 0  -0.3586479613619759 0.07518443978829537 0  -0.364694269963237 -0.05232156187491334 0  -0.4962504501541682 0.3948540235658876 0  0.375 1 0  1 0.125 0  -0.0117408118733456 0.07107033242105386 0  0.06230129656826894 0.3913221310928605 0  -0.1711796136937965 -0.1222061471403885 0  -0.2427453820377267 0.7734192540179952 0  -0.625 1 0  0.5333690162529207 0.4540000939113223 0  -0.5765219579605287 -0.830054519997281 0  -0.2576009420963558 -0.7833719915835449 0  -0.3203258487901416 -0.5080112656537104 0  0.8339371616105723 0.5955810086369626 0  -0.5487581963332584 0.7905829940116387 0  0.125 1 0  -0.06733273336707071 -0.09335979276626381 0  -0.4942043402762571 -0.1430890442623271 0  -0.875 -1 0  0.02959130612520218 0.04151087516508113 0  1 0.375 0  -0.8750000000000001 1 0  0.05741284459491524 0.7937036369055811 0  -0.1964194158873809 -0.3732058399471944 0  -0.07258398908619683 0.5706421953240894 0  0.2364863357292935 0.517503780676087 0  -0.7920296219501891 0.2295255204888547 0  -0.495320084093881 -0.388757912767589 0  0.0003255902438919021 0.2706933489703955 0  0.5099845049638689 0.6401336042473194 0  0.3989979161691054 0.8072291960989798 0  -0.8059671344271127 0.4244676357714843 0  -0.06408535672831428 -0.2205899474164505 0  -0.7093026051788917 -0.01413544274123895 0  0.09052378086522121 0.05233946091601109 0  -0.4780362543194753 -0.2509666677288513 0  0.7238646211980607 0.0828256226214209 0  -0.8085298322232871 -0.4110836266761597 0  0.3374868496432943 0.1532993172229335 0  -0.7943624800642427 -0.2506956106764023 0  0.2363013571282651 0.2539409596353586 0  -1 -0.875 0  -1 0.875 0  0.1843103517207468 0.04777496185421844 0  -0.2475326499672709 -0.2286997022222536 0  -0.9999999999999999 0.375 0  -0.1707307539318173 -0.0417320292666225 0  -0.6485591043545164 0.4674529045603687 0  0 -0.07736776745332727 0  0.08053244362202316 0.2594628929459936 0  -0.375 1 0  -0.216490937371371 0.4243689091986899 0  -0.119704902708609 0.1498493615686934 0  0.1333153964488173 0.5538202501230264 0  0.1319883163129698 0.1934313786400035 0  -0.4743232766174697 0.2693485133545155 0  -0.04606024708459 0.01387691869464134 0  0.8513576441004965 0.3702644825686521 0  -1 -0.125 0  0.2857334399071202 0.8366880575234584 0  -0.1104128593381271 0.3126101366218526 0  -0.125 -1 0  0 -0.7575037395175259 0  0.07821397079968176 0 0  -1 -0.375 0  -0.3750000000000001 -1 0  -0.625 -1 0  0.7474787146812756 0 0  0.625 1 0  0 -0.2918843213980812 0  -1 0.625 0  -1 0.125 0  -0.9999999999999999 -0.625 0  0.3284075310660084 0 0  0.004929205892015135 0 0  -0.125 1 0  0 -0.006571003003944568 0  0.9999999999999999 0.625 0  0.9999999999999999 0.8750000000000001 0  0.8749999999999999 1 0  -0.5631871126516764 -0.6764098224369814 0  -0.004512502363264087 0.1599278521936089 0  0.362318610175521 0.2627908399519481 0  0.6529681909379003 0.2938031993611118 0  -0.8548754372206522 -0.6468885244329518 0  -0.8632578397465044 0.7869651923060351 0  0.430464523518642 0.5011456288850182 0  -0.3986312782191134 0.8555895881984501 0  -0.7790212859666805 -0.8749688664028842 0  -0.8707361703409264 -0.784598730489647 0  0.1542322415178133 0.8420618852993309 0  -0.6581816485391799 0.1526729120823279 0  -0.5773312936426782 -0.06405767270311738 0  -0.8544077114469962 -0.06257275304121081 0  -0.295717831992503 0.5619199790434777 0  -0.4235227726874548 0.5697393864628015 0  -0.3756074495495069 0.3307666756426187 0  -0.6182707623482598 -0.2162070805617176 0  -0.2725276368896006 -0.08990367073880931 0  -0.640411908527494 -0.5886275223415447 0  0.8596822360905685 0.2660377654545122 0  -0.0327452663420983 -0.03293734980178022 0  -0.05452813150386263 0.1143576901428913 0  -0.1333998191938008 0.4316552869181031 0  -0.1195031631994886 0.03231103896606179 0  0.5377711299888912 0.06456048493276689 0  0.5792289390493341 0.3591464698139359 0  0.6916394762937523 0.7750128749771962 0  -0.7933424539955714 0.8810121487845545 0  -0.6433894622492805 -0.4291584965522218 0  -0.116203573071144 -0.3970981533364843 0  0.8721183641623693 0.4888841214310337 0  0.07600152746302852 0.09367713008725403 0  -0.6646750996644748 0.8679060390942249 0  0.4546004324451227 0.3503812673518959 0  -0.02619460756876825 0.03575608662178693 0  -0.4095401120444964 -0.4399035123612463 0  -0.3619203741464165 -0.2684000859991478 0  0.3235319966787163 0.4814990243137232 0  -0.1956638141460626 0.201228370224197 0  0.7056816060821145 0.5310756022625515 0  0.2617812872123275 0.3557633696798041 0  -0.3771237116798194 -0.8516633501208851 0  0.109357274612239 0.6818367189600726 0  -0.285337285418251 -0.6116887322099173 0  -0.4418485016894657 -0.6199509372287587 0  0.2962570601834767 0.6921932209827494 0  -0.8748974708989659 -0.1747643576183768 0  -0.1799881301922018 0.8547026909928899 0  0.4547104852119277 0.163234246810529 0  0.280263747759477 0.04662303180071253 0  -0.1421820743145506 0.6573354821952698 0  -0.0112144249510031 0.7085181390444255 0  -0.0533045336705241 0.8748068659627992 0  0.005591286184017498 0.4695448696007922 0  -0.3872190098366416 0.1533535289662231 0  0.5491647632562394 0.1331399215185553 0  -0.4759009068064332 0.682317117294588 0  -0.8513348432179563 0.332986737352267 0  -0.0904548083237844 -0.5357169607503982 0  -0.02720159715958483 -0.5515723263162738 0  -0.2139676384235292 -0.2872360757669608 0  0.8684989549201101 0.1515341112909564 0  -0.1686203068379796 -0.6605490406658826 0  -0.8893620268916247 -0.5287021842585446 0  -0.2813620137017701 0.3380321280932998 0  -0.6761998443520041 0.5742098796742283 0  -0.8974022960647492 0.5315212099910723 0  -0.8982518551393377 0.6609283572283908 0  -0.6441344124237655 0.07236501413607856 0  -0.858973692664587 0.02855393053328454 0  -0.8880424558074896 0.1680231819277313 0  -0.1298197075018902 0.2286831525737121 0  0.160433899582048 0.4458783201982923 0  -0.04349088866099204 -0.1257764568193248 0  -0.7533943908704689 0.6702376563532186 0  -0.6024607135875638 0.6980795837285064 0  -0.2540155581523494 0.07841769152983274 0  -0.2491977755219135 0.6486681683404348 0  -0.02736499465422116 -0.006375010902858256 0  -0.4945459872434625 0.8768320082823149 0  -0.4766518726776832 0.4904519740760597 0  -0.2900550593303465 0.1438990406820158 0  0.002319118103607317 0.02357796845058226 0  0.7796136359519794 0.684135431324021 0  -0.4704881050333185 -0.82464016420278 0  0.2719048585526632 0.1947766451863387 0  -0.1480273668629086 -0.8628705684270749 0  -0.06452434267047044 -0.8291710313952788 0  0.4435477260945812 0.7060053821568385 0  -0.1174004245640507 -0.2881739097824561 0  -0.2645635508764088 -0.02615750656455112 0  -0.8940012109048823 -0.8966815068461603 0  -0.5726374484023058 0.2372032546338441 0  -0.4758130300167758 0.08753418522243044 0  0.4914143308374878 0.8258272694786508 0  -0.02749421303837703 -0.2606290954132147 0  -0.3100477775017118 0.8751518681853976 0  -0.1427180325970581 0.08039545881952559 0  -0.4689909624616005 -0.03488331730517508 0  -0.3875912601522826 0.01208884167727169 0  -0.2913461948588449 0.027515543304219 0  -0.3846808310354791 -0.1202982575804381 0  0.8881549557766321 0.6985190431545918 0  0.7929697011378263 0.9109220521540005 0  0.5766313186923491 0.2078340905978444 0  -0.5604626302440792 -0.4692649654063731 0  0.5990722252401403 0.7062220024414129 0  0.6785306454364288 0.8884124444329939 0  -0.05079220773276415 0.3028363013717884 0  -0.9021516155004976 0.9046545093515391 0  -0.1273091890998613 -0.06706455747322597 0  -0.169
[...]
<PointData  Scalars="w"> 
<DataArray  type="Float64"  Name="w"  format="ascii">1.7577789547953932e-10  1.0318267253445090e-11  4.4529981551149944e-10  2.5816666499890320e-09  6.2425872751323255e-10  1.5669297109510170e-12  8.6749843925401322e-12  7.5487840340494084e-11  4.0878907758118038e-11  2.1273511090970731e-11  1.0651205963959311e-10  9.5820767008121836e-11  4.0577253505570493e-10  2.7683814825975476e-10  9.1472143847704755e-12  5.2417765089667476e-10  9.0796236956547186e-11  7.2405628379586315e-11  1.3071321428120606e-10  3.5739828860355272e-10  6.7525590896669638e-11  1.0504727950233328e-10  5.7455285985200867e-10  2.6194163393196322e-07  5.8480523041547071e-10  1.0876385185666128e-10  8.9016772329786497e-11  1.7595129320996743e-10  7.6771797727098964e-11  1.9030511058995541e-11  4.6863088001703739e-10  9.8403465132792468e-11  2.4205042234005220e-10  1.8110946479538848e-10  4.5276405824150303e-10  2.2680163020892923e-10  7.8188640015580393e-11  4.7719201649821389e-10  5.8668648365403045e-10  3.1235059165176528e-11  5.1878416432987287e-11  1.0761596916953925e-10  9.2608530792303675e-11  1.9856209822186156e-11  1.0464513213707191e-09  8.9106132124254283e-11  3.2327141813785829e-11  9.5336892344732606e-11  1.2623869279548189e-12  5.8770089237297074e-10  2.2050547753247598e-10  2.1319582265869788e-10  8.2322323748615421e-11  2.5304760094881181e-10  2.6332513019854421e-10  2.0337204961982246e-10  3.5635631244066490e-10  8.9607467233058325e-11  5.7757170405909730e-10  2.5263613285949958e-10  3.0829383295112243e-11  3.1473343371364503e-10  3.7893426227876756e-10  1.4430239096130945e-10  5.4322383048906555e-11  1.7859411590303000e-10  7.1175965527054461e-11  1.7732554993119054e-10  2.3326445691947010e-10  4.5992679264437638e-11  6.3847337144975964e-11  4.4050506270564055e-10  5.6735586761458406e-11  8.7327137337609533e-11  1.7826411475525852e-10  1.7105444546505505e-10  2.5747720190599340e-10  2.9185610313408685e-10  1.8272508661857995e-10  1.9491601717179218e-10  6.5344657113576122e-11  2.5216682649160526e-10  2.6168579660832308e-10  2.0184847446345355e-10  2.3448060810184024e-10  1.2458405030984055e-10  4.6917390411933570e-11  1.1072894636972550e-10  9.3922088458557784e-11  2.5828242662288717e-10  6.9923958448595969e-11  9.9658251923337981e-11  7.8122316010015506e-11  9.4952131696983032e-11  3.9005251986230986e-10  2.0952719972250583e-10  2.5267295317764023e-11  6.5025639439843761e-10  2.5764734973913931e-10  3.1636471102988760e-11  2.7743244896702621e-10  4.1691400281582113e-10  7.1547688529762380e-11  9.7826239709108199e-11  1.5818972137707565e-10  6.3992913674722681e-11  2.7391089041101077e-10  8.3945502087347474e-11  1.4638504179050490e-10  6.5946376903544638e-11  3.1165257765143450e-10  2.4638022287125080e-10  2.3105260159214664e-10  6.4149494932150443e-10  1.2091706852591045e-09  1.5076160854113114e-10  1.6466721316764958e-10  1.0351129533890240e-10  4.5835618534905215e-10  2.5583970849472265e-11  2.5737113117429947e-11  2.7737938625063151e-10  9.1299539804230703e-11  6.1431513509717006e-11  5.0158969511730694e-10  5.7800278801477729e-11  5.9649429674395500e-10  1.1890990887243027e-10  7.7572309367808462e-11  8.3153020366830255e-11  3.4221291737805969e-10  1.7440851931367950e-10  4.6431979870179792e-10  1.3615295047868177e-10  6.1769930544205747e-10  4.4446335096192003e-10  1.0935851429880569e-10  5.2277326233983734e-11  1.3038250789158192e-10  2.6219981550414599e-10  3.2784498365673329e-10  6.0226550191240398e-10  9.2194119087629911e-11  1.1913213339685886e-10  6.8141058639975319e-11  6.5610275847532263e-10  8.5702120760886075e-11  2.0733842884681899e-10  1.4809781622556659e-10  1.2510561086528824e-10  1.9870324227876169e-11  2.8300167492499868e-10  1.5698703525656061e-09  5.7695193733029444e-11  9.5777738132876690e-10  7.8715908071594864e-11  2.4042046394146712e-11  2.3964840495983169e-11  1.2203504694116933e-10  5.5937805555170414e-10  4.4676186427991239e-10  1.6109201013892624e-10  1.1380467848949340e-10  1.6730854560441632e-10  1.8838051075956785e-10  5.9025303711244540e-11  7.6914011821852333e-11  2.0336942760053280e-11  6.0369819650353502e-11  2.9489211897859731e-10  9.2652764483566378e-11  1.0637436670534460e-10  8.3822593638037253e-11  9.6833909080190447e-11  5.3630263856058467e-11  9.5848960599977574e-11  4.5596011992912537e-10  5.6588384931864235e-11  1.6419998163859987e-10  1.7097056122345513e-10  4.6358631191858867e-10  1.9879944463865846e-10  2.8252991426370161e-10  1.4289227174055263e-10  1.4533037042967804e-10  1.4984769090807598e-10  2.1045551754435659e-11  2.8416355981521056e-10  6.5600304490032311e-10  2.5613056169642229e-11  2.5120563693386069e-10  8.8955982850159124e-11  1.5828214811053164e-10  1.1035711051317626e-09  1.3755014806136588e-10  1.6299351336745850e-10  2.3397802436740938e-10  2.8836647443375245e-10  1.0580673884976232e-10  2.0479777848526908e-10  4.1877203386187952e-10  2.1827612907942565e-10  2.4144857751703067e-10  1.1044051385896218e-10  1.1264430769330589e-10  1.1347879125139279e-10  7.1299210557800753e-11  2.0831219437098403e-10  8.8262788946600135e-10  7.8671427401740687e-11  1.0946377531970949e-10  7.7950545553773959e-11  9.7211773489722422e-11  1.6301706213984734e-10  3.7748049771225343e-10  7.8983983006199590e-11  8.5030188820850349e-11  7.6869011748918504e-10  5.4130541916013471e-10  2.9441160009117641e-10  1.9991363266931982e-10  8.1973957753616538e-11  8.0554024687713120e-11  3.3708520645213853e-10  5.8826568984364162e-11  8.3127384027604378e-11  5.0214178966275442e-11  9.3510715709865607e-11  4.1608121458219429e-10  9.1098448814426841e-11  1.9791915232059259e-10  1.6619288874971234e-10  9.0237523427124469e-10  6.1706352597507596e-11  1.9931234421929632e-10  1.1551352916589051e-10  1.1283763867396867e-10  7.4450598512495995e-10  7.4968339841798062e-11  8.5304556320406729e-11  1.1818569708265139e-10  1.1046388974078274e-09  4.0956751657634622e-11  7.7948110293009792e-11  2.7855041444791099e-10  2.6031470479887700e-10  3.5215123619139712e-10  1.8266632776901067e-10  2.0615478847406280e-10  4.0442003188676482e-10  2.9194578754715246e-11  1.0564660976075542e-10  1.2870964486456842e-10  3.7717923716335958e-11  2.7606393726410049e-10  4.4429324437469737e-11  3.3214182662527013e-10  1.3649394174492658e-10  1.1063345125360627e-10  1.9167473168249875e-10  5.0259394589506269e-10  7.3002629312759231e-11  2.6733001840431702e-11  1.4515814745073133e-10  8.2006597729853743e-11  5.9476770340111769e-11  7.5947817941068410e-11  1.7968370491968886e-10  4.9632724156796657e-11  2.6277113385821303e-10  2.5460588545115856e-10  1.2853687276252198e-10  1.2838316323154892e-10  1.3424343226895230e-11  7.1486817291334170e-11  1.4613090694634082e-10  1.6923424275480326e-10  4.9611009188716402e-10  3.7212626832318015e-11  8.2763953100183367e-11  3.3486622342077706e-11  2.3819546792483985e-10  1.2651140828150067e-10  1.8520107475141873e-10  7.5262642097703544e-11  8.7916737933283718e-11  1.2094964598285034e-10  2.0390642991020157e-10  2.2374907396062700e-10  2.6228657871190111e-10  4.3655499264245944e-10  2.1474087070378956e-10  2.0964400008257475e-10  1.4659608141156847e-10  8.0931750713382339e-11  1.7197619550046347e-10  1.6968007238071413e-10  6.2391482521972074e-10  1.2856306965779354e-10  6.2987213915023117e-11  4.0697891679253141e-10  1.8953745783074142e-10  2.0807105735338352e-10  1.1961400112487655e-10  3.2402554024920522e-11  4.4965802986643794e-11  9.9121872451239946e-11  6.8108549381290428e-10  2.9253278344815672e-10  1.8188943774700069e-10  1.3716083533363497e-10  3.4033714001420214e-10  6.7576708817134530e-11  1.1032010866786650e-10  3.5368306943425436e-10  1.7546942200785975e-09  9.9118141853723942e-11  2.8200938626738240e-10  6.1210276602238448e-10  1.2253316346891012e-09  1.9691472149376081e-10  1.5225797245817384e-09  4.1789302126257876e-10  2.2582364016641652e-10  1.2047457472253809e-10  4.2027662816487071e-11  6.6470987863705172e-11  1.2613526268501754e-10  1.5714966491445513e-10  6.4286784186077894e-11  9.8968703806286033e-11  1.0709367587678892e-10  1.2852759623970231e-10  1.9214787387385186e-10  4.9605046929503096e-10  3.1888159097411259e-10  1.6643625148501798e-10  9.6955092364809195e-11  6.2148992435926238e-11  5.9665444561065267e-11  7.0403563330386812e-11  1.8314179030526910e-10  2.2458842732848107e-10  1.0644886420761868e-10  1.0610884228872220e-10  2.4041024388825830e-10  1.3720410976431221e-10  6.9699637270612092e-11  6.0121803167641717e-11  1.0571872279681274e-10  3.4356843699517297e-11  1.8654894653888779e-10  3.2836718142045735e-11  1.6105958813557871e-10  1.7925707466239030e-10  1.5274508199666805e-10  3.9495445753993868e-10  8.0069318838185574e-11  8.4011873349234535e-11  1.4436381144766766e-10  3.0539171358301966e-10  1.4524064987950363e-10  2.6350798559219077e-10  1.1150541357206901e-10  1.3589018989141567e-10  1.5689632183276841e-10  2.9375633404556400e-10  1.2760645918233192e-10  3.3709540734201458e-11  1.1711267011699867e-10  1.1253759676657131e-10  1.4936306383969307e-10  2.5231730292985132e-10  1.7048474758704682e-10  3.5280698979350951e-11  1.3060899568784043e-10  2.3773851738689216e-10  2.9210842379974613e-11  3.3049803911949436e-10  1.6380612167826047e-10  3.8755180952301309e-10  1.1370895131922620e-10  2.3539151077397688e-10  3.2624451198767937e-10  7.6110360902019401e-11  1.0620401150959134e-10  2.1899750155899575e-10  7.2997784204385234e-11  4.8595918451293283e-10  1.5999285477290558e-10  9.8762992131155766e-11  1.0881856738047033e-10  2.1050963995285748e-10  5.3969985970915513e-10  4.7653323953918437e-10  1.7855065795028613e-10  1.7181327845526753e-10  2.0802631705070570e-10  4.0402278765026405e-10  4.5858123068525225e-11  2.2515559423034078e-10  8.2442100837968585e-11  1.2386661376989862e-09  1.1863068194103342e-10  4.6283362153375244e-11  5.4812400894599038e-10  3.3357138568717759e-10  2.4691334320004179e-10  2.1008001589494891e-10  6.4527409504189737e-11  1.5449700336990707e-10  3.3556228122477569e-11  4.3747810664345941e-10  8.2443435011863955e-11  1.3946757106812040e-10  1.2825116111730382e-10  6.6280134580391758e-11  3.4997763876115279e-10  4.3715129740663121e-11  1.1839276613393980e-10  2.4350042160933721e-10  1.7893430677646538e-10  7.1097536914383830e-10  9.2888935499745743e-11  5.7471541148267212e-10  1.4723965807272740e-10  3.5305355469255584e-10  5.4757807447166081e-10  2.4370241178731524e-10  1.5590505736758595e-10  2.7189591532204898e-10  4.7917046811907084e-10  3.5226598027329080e-10  7.6023552186041652e-11  4.9045860201102337e-11  1.6347369134873037e-10  3.5605106773652467e-10  1.8623512475352705e-10  1.2598929224776792e-10  1.7222301144741205e-10  8.0571393632175196e-11  7.1195404123132161e-11  1.9982599496867257e-10  5.8230918389964208e-11  2.0822021932022696e-10  9.1119633781228874e-11  4.7885472912619663e-10  4.9377100447824494e-10  8.2269446025650594e-11  4.2187474865726002e-11  4.0043474090960156e-10  6.4800661086658110e-10  2.5928630106310100e-10  9.8195160457042373e-10  2.8812454359270301e-10  3.1697505425518726e-10  2.7155948430972308e-10  2.6549044014961234e-10  9.7982753830602504e-11  3.1216382155827000e-11  1.9494084113853498e-10  1.0750060981276444e-10  2.1660798758213830e-10  7.5216928071885404e-11  1.2188695567172051e-10  2.0356896270543530e-09  1.7709747007674415e-10  8.1194709898376000e-11  8.2067265378353057e-11  3.9864484301798887e-10  2.4344870432581507e-10  1.8994055049178867e-10  2.0893725275606678e-10  4.4451785376207670e-11  7.5510003873487914e-10  2.4196875856766506e-10  5.3539270357491939e-10  2.5291635796910405e-10  2.4367930209539140e-10  3.1287552943334897e-10  9.4721482502275661e-11  3.2888786464132715e-11  3.5821398248454565e-11  3.6702183049360206e-10  3.6503484080671401e-11  1.1777732736969162e-10  1.0201612977582588e-09  7.5138342711599594e-11  3.5081736036694839e-10  2.6331576908370924e-10  6.2063043385265725e-11  6.0061045118799589e-11  1.8022178456464416e-10  2.4492858693301067e-10  4.8098631943100306e-11  1.1385048050419885e-10  1.6118695425320079e-10  7.5939173823830511e-11  1.6935718938911964e-10  2.1195978945550610e-09  3.9504110317648605e-10  3.1945116499064540e-10  1.0712774950654434e-10  1.0720968205432495e-10  1.8844754729947114e-10  8.0268998327619242e-11  1.3422170570065610e-10  5.0128242067210149e-10  8.7635518084308230e-11  2.4295943008809608e-10  2.1436977997050050e-10  1.3881861712151825e-10  5.0695646282264176e-11  7.7791320295903142e-11  5.5140329132680525e-11  5.4678074135116958e-10  1.0734665033795877e-10  2.2061373630624650e-11  5.7061846230305054e-10  3.0590650773084366e-11  6.2085587650048670e-10  1.1769252955655109e-11  4.9482693505392702e-09  1.7834632828618318e-10  2.5504504499229886e-10  1.0484481006566425e-10  2.8815887753837572e-11  8.4631623431088274e-11  2.8105510274042704e-11  2.0408116545462041e-10  3.7259867931110072e-10  2.7158535496002161e-10  3.2710672149568352e-10  1.3420995282133800e-10  9.5353722387796852e-11  6.3942974809438091e-11  3.6050090280957429e-10  5.0315459944732649e-10  1.0503376841131892e-10  1.0072661990986092e-10  1.4759209681490435e-10  7.5633854865292187e-11  4.6248088593943549e-11  5.5257757992905243e-11  3.2369851838143093e-11  8.8158237030644566e-12  1.7728199853645103e-11  9.7475129773456261e-11  2.2309363249644345e-12  1.0947447317026372e-11  1.8602844689240737e-10  3.4888348490158000e-09  2.2596974383495353e-10  4.1953575597154380e-11  2.2183086069825601e-10  9.3095306771520287e-11  1.1193355084755347e-10  4.3516073174516055e-11  1.7181919500101445e-11  8.8626822266604431e-11  7.2465478099060583e-10  7.9342330718220358e-11  1.8333463640004377e-10  3.2448712660845668e-10  4.8277830888396324e-10  9.6511761846027600e-11  1.0224985492768418e-10  5.8784388214167842e-11  7.7460472444915660e-11  1.1235190563197687e-10  5.6959226632607617e-11  6.0497065640153115e-10  5.8977234153282829e-11  2.7707528334318518e-10  8.8573613398235555e-11  1.2809474944459925e-10  3.1163966728741602e-10  4.1780480723161283e-11  6.3723120604221683e-11  2.8721488475934284e-10  1.1862344655424101e-11  1.1309580257226394e-10  8.9101447533610203e-11  7.7237091608856569e-11  5.6133129228892314e-10  1.6144686233509320e-09  2.9636824942241100e-10  2.8891360214748453e-10  9.1204573497432599e-11  6.9565694897748070e-11  2.5570211437169901e-10  1.1675044901200348e-10  9.9226334931939411e-11  1.0496334742326353e-10  1.9843771186083876e-10  7.4172907104769836e-11  5.1987060911716457e-11  7.0028235277952278e-11  3.9422393646992063e-11  8.5807529344950381e-11  1.9097748592968557e-10  1.6166899047736652e-10  1.1157391939767264e-10  2.7809187562815294e-10  4.6914512229846948e-11  1.3720026863153195e-10  5.2086299175256771e-10  6.7014735642316095e-11  1.1891860554176425e-10  1.3178727255729799e-09  5.8197090319398711e-11  3.3550026840294832e-10  5.1076794956691951e-10  1.5826978846251951e-10  1.2834014742229520e-10  1.2603672618430938e-10  8.9519044333867862e-11  2.4694660933441445e-10  2.8603241766764641e-10  1.7720178766097495e-10  4.6710577124643972e-10  4.2270564312431944e-10  1.2200474672402486e-10  2.1071256347821519e-10  6.6555804603493186e-11  8.4929741589369130e-11  6.2797866112606787e-11  2.4044448185176364e-10  4.0120977545412669e-10  3.0769979114190896e-10  3.2529013985725269e-10  8.6285776025083901e-11  2.2697861603598688e-10  4.7864626499814960e-10  1.7016771379419892e-10  4.8350066571884415e-10  1.8472730638169877e-10  1.3776301847808818e-10  1.1223845863119924e-10  5.1250250667028713e-11  5.4330410357305925e-11  3.3997951703348075e-10  6.3069513395692010e-11  6.4238270319384399e-11  1.2881560804114073e-10  3.2256496638048784e-10  3.1962351551201226e-10  1.5747038414566918e-10  1.1769551914753275e-10  5.8891922759552746e-10  6.2616915433927747e-10  1.5926035201125113e-09  2.6699498459955075e-10  1.9834602347811870e-10  4.4170758000229469e-10  4.5558530020062152e-10  1.1622464401153717e-09  2.9566046542329494e-10  2.4664427830720996e-10  3.3341516154945838e-11  1.2970688753202799e-10  3.3489102651422105e-10  4.8583440230774480e-10  2.1236775083331402e-10  6.6827506545082019e-10  3.0566345480441257e-10  2.1616308877272189e-11  4.8744631936279140e-10  3.3437173072035092e-10  3.8871560584321444e-11  3.3458424020709032e-10  4.1389908347735074e-10  5.4539579736780324e-10  1.4592596729027250e-10  6.7289822076478871e-10  1.9662005359234912e-10  4.7717503323353772e-11  1.2802814868220099e-10  1.3328719736997841e-10  3.1612985002583076e-10  7.9180526457143134e-11  2.6374320803838098e-10  1.9651773947828793e-10  8.1843299111625015e-12  2.6889245073503201e-10  5.7930565819640186e-11  9.0881777160198543e-11  1.2415365524322401e-10  6.3112628695492688e-10  4.1122591991788460e-10  3.0332686291834040e-10  1.1785209397373672e-10  1.3186872838482636e-10  8.9514780414572074e-10  5.3734327896830680e-10  1.3481090071799758e-10  1.4201651489567973e-10  9.4175220248323508e-11  4.8927849703318472e-10  1.3895243923691253e-10  1.7526452748520614e-10  9.5186367140806160e-11  7.1023814358338127e-11  6.3530274262261002e-11  1.5071025372685032e-10  9.8840736450305044e-11  1.2869892518513646e-10  4.3065291590189396e-10  7.7595862258270523e-11  5.9525301140401279e-10  1.2568184780726920e-10  2.2463566158553583e-10  2.7909210938763556e-10  5.4743908325805439e-10  1.1701803576762762e-10  4.0687303380558960e-11  6.3198118011513538e-11  1.4258014703104487e-10  1.5984212639418288e-10  5.1647308286669579e-10  8.4411970856537016e-11  1.6413426709203193e-10  2.5310968624593864e-10  1.3918260589498058e-10  2.3758773623953847e-10  3.4177237602724518e-10  3.1161866847867762e-10  1.0497525736156371e-10  1.7537729209827726e-10  1.4952564745720359e-10  2.2853022923743618e-10  5.0342108191725614e-10  3.7366039232434594e-10  2.0185130833045063e-10  2.0426393494011740e-10  1.2613061288789838e-10  1.7254330044398800e-10  2.9970818213055427e-10  3.8109567713422935e-10  3.6182315200637137e-10  1.6631793774194254e-10  2.2031920502102664e-10  1.9707118379382529e-10  1.5391337530172902e-10  3.9904997335750445e-10  3.1968377102610760e-11  1.0558300605078618e-10  1.2715367873893894e-10  2.4497045327092249e-07  4.0668305571948536e-10  1.7655354640019579e-10  6.1321992748153471e-11  2.5660908308666012e-10  1.3797148587381428e-10  6.4739617909274727e-11  1.0575902493074767e-10  2.0248249209147064e-10  2.0706396967414250e-10  1.9696705436442746e-10  1.8940639723856690e-10  3.1128679352959574e-10  6.5848597585398584e-11  8.0501925268445234e-11  1.9157070526073224e-10  1.2231094565222756e-10  3.4966644904306789e-11  4.0420560672525159e-10  6.4950356650098838e-11  6.1887722995095287e-11  1.9416740397648764e-10  9.9777251945742374e-11  2.3788747504295395e-10  2.9165788487471315e-10  1.3418416575920605e-11  8.3072083627097562e-11  1.8836725229393262e-10  9.6799182090854440e-11  3.2240109613799546e-11  8.9611437461804115e-11  5.8699643710855116e-11  7.8769305920470167e-11  2.2437848920715320e-10  4.7164461258777055e-11  6.5809161422634871e-11  9.4666325450879349e-11  9.3732256127224261e-11  9.4352394056285532e-11  2.5115022328099086e-10  8.8031229178617954e-11  1.8549012476473263e-10  2.0409688890772007e-10  1.0024839998767461e-10  1.6069703203080055e-10  3.1548838484044488e-10  1.2460999076179517e-10  6.1378075684406877e-10  1.7104910903066665e-10  1.4999159907409565e-10  1.3814380915800594e-10  2.2734780986333605e-10  4.4049383301283198e-11  3.9748122556350507e-11  7.7002611096941840e-11  4.3208442452672886e-10  1.9931843323112761e-10  6.6031198799500295e-10  4.4231432057564854e-10  1.2160605177886216e-10  5.4752068508568933e-10  3.6458222854337284e-10  1.8898141023243835e-10  7.1574245853532551e-11  9.3763817643002381e-11  1.7489289236096393e-10  1.8767132480454352e-10  4.1653557006616583e-11  4.9361927667244647e-10  2.8334803640672009e-10  3.1886384514317208e-10  5.2745987320602684e-11  3.5173760589303375e-10  2.6710652900923829e-10  5.7638790093435971e-10  7.3153260455484686e-11  6.2093306469248728e-11  2.3951952571787725e-10  7.2769729467176672e-11  4.2806464351069701e-11  1.4770308429892975e-10  2.4463543267207742e-11  6