<?xml version="1.0"?>
<VTKFile type="UnstructuredGrid"  version="0.1"  >
<UnstructuredGrid>
<Piece  NumberOfPoints="4852" NumberOfCells="9430">
<Points>
<DataArray  type="Float64"  NumberOfComponents="3"  format="ascii">-1 0 0  -1 -1 0  0 -1 0  0 0 0  1 0 0  1 1 0  -1 1 0  0 1 0  -0.5 1 0  -1 0.5 0  -1 -0.5 0  -0.5 -1 0  0 -0.1608775713298009 0  1 0.5 0  0.5 1 0  0.1967448868031411 0 0  -0.3460238720893624 -0.1775469456448781 0  -0.3439288626859686 0.2295081127955868 0  0.1762817761649827 0.3508436945262446 0  -0.1898888610370085 0.5608052399029111 0  -0.5096102207965483 -0.5425287999572955 0  0.4927416211603453 0.2603273499176831 0  -0.06756751976578453 0.2060950493309628 0  0 -0.5061325913258391 0  -0.25 -1 0  -0.5696279881231291 0.5835123495207082 0  0.6657318896108364 0.6407105928823653 0  -0.1803201513229434 -0.5402387905510557 0  -0.5451982277162977 0.02665622184427884 0  -1 0.25 0  -0.2116898955553583 0.02501790999568032 0  -0.6597027121381256 0.3171790335369735 0  -0.9999999999999999 -0.25 0  0.03980411420419287 0.5968981718286396 0  0.1965087067724637 0.1313858353984146 0  -0.1390448420195051 -0.2214297087258331 0  0.3750365077276036 0.6189665409029561 0  1 0.25 0  0.5355652144809806 0 0  -0.75 -1 0  -1 -0.75 0  -0.6498012834135394 -0.3268285723294898 0  0.25 1 0  -0.9999999999999999 0.75 0  0.02757118475249542 0 0  -0.25 1 0  -0.75 1 0  1 0.75 0  0.75 1 0  0 -0.02898318711980711 0  0.05377626102779102 0.1456420700443563 0  -0.07885214473059682 -0.02681389718512568 0  -0.7052938358335512 -0.1340025712893591 0  -0.3261961367261925 -0.3505802357882847 0  -0.3476048408915984 0.4436515791958602 0  -0.1019098917513509 0.7677801596589761 0  -0.3906546959194999 0.7070605410310117 0  -0.05672825586013452 0.4052354528000815 0  -0.08206283638946406 0.07405102654912757 0  0.3619527139606408 0.3735354809740321 0  -0.7229243139980513 -0.736155365633632 0  0.4131094051068085 0.09145212366510189 0  0.6912026027962573 0.1941865759110974 0  -0.7511329619842784 -0.5341901719788507 0  -0.3937462489295443 -0.7134486265376702 0  0.7230504746568492 0.4244692937405156 0  -0.7796111106753313 0.09984722057816912 0  0.2005825398425986 0.7026100370893984 0  -0.2043682119645176 0.2944532424843456 0  -0.8032138846398467 0.5840674122019126 0  -0.7239486790674466 0.7708178227639049 0  -0.0511943672742123 -0.3747687449546145 0  0.5898578552693199 0.821348792809553 0  0.8244447175725061 0.813191331308899 0  -0.105922401641653 -0.6986934773864011 0  -0.5210084695482088 0.1680114813351606 0  -0.2077441432144942 0.1292149306933888 0  -0.3660240779426802 0.07774812212063628 0  -0.3715380102910174 -0.05237874705074145 0  -0.504170543027173 0.4019719647252967 0  0.375 1 0  1 0.125 0  -0.01353205929132756 0.07247789016105748 0  0.06299426757146731 0.3974145143238998 0  -0.1752552695827079 -0.1232148935804005 0  -0.2482747245088327 0.7769098767892069 0  -0.625 1 0  0.5371158369615163 0.4592345248188345 0  -0.5830796335899191 -0.8329405567352149 0  -0.2616122050197091 -0.7847857727368938 0  -0.3247062335498156 -0.5119116563003057 0  0.8354022470670885 0.6020015458392206 0  -0.5562392765942097 0.7941778832319693 0  0.125 1 0  -0.06903903860135667 -0.09297831946929933 0  -0.5005273885911382 -0.1446729454803033 0  -0.875 -1 0  0.02768365160115692 0.04219284358060568 0  1 0.375 0  -0.875 1 0  0.05866428438375802 0.7970403802249836 0  -0.199576328709841 -0.3763883337839615 0  -0.07486202670584295 0.5766193613492943 0  0.2397690840007103 0.5225525762360081 0  -0.7952443778143434 0.235628562964274 0  -0.5003030198549493 -0.3930581804029712 0  -0.0008920416328552783 0.2766702474202441 0  0.5148264896651552 0.6456177106849447 0  0.4033902807896195 0.810690088837956 0  -0.8090125227563939 0.4318015569206253 0  -0.06552875873029824 -0.2215530662846912 0  -0.7139327126640568 -0.01380503890431584 0  0.09030574844992677 0.05397000211251749 0  -0.4836311819990085 -0.2540129075599368 0  0.7246606878885073 0.08409903799921616 0  -0.8111035593182317 -0.4158056993167826 0  0.3394093458186278 0.1560539571118651 0  -0.797014759762714 -0.2538303972086104 0  0.238697858245539 0.2578219483534149 0  -1 -0.875 0  -1 0.875 0  0.1849266706178025 0.04941500646759374 0  -0.2518335960291487 -0.231035911628573 0  -1 0.375 0  -0.1752896356662286 -0.04190185304651688 0  -0.6554107192264231 0.4747896870613555 0  0 -0.07736776745332727 0  0.08127317644476333 0.2647540484884202 0  -0.375 1 0  -0.2231727198385848 0.430969206892047 0  -0.1246074542943989 0.1542632082620163 0  0.1359783658507485 0.5592422090175238 0  0.133298132005893 0.1975053574008891 0  -0.4820032566190551 0.2757599684851223 0  -0.04608421212261017 0.01485643614163924 0  0.8507948390765221 0.3752639811566007 0  -1 -0.125 0  0.2890085462728326 0.8394781529331948 0  -0.1147536099491201 0.3191513359363772 0  -0.125 -1 0  0 -0.7575037395175259 0  0.07821397079968176 0 0  -1 -0.375 0  -0.375 -1 0  -0.625 -1 0  0.7474787146812756 0 0  0.625 1 0  0 -0.2918843213980812 0  -1 0.625 0  -1 0.125 0  -1 -0.625 0  0.3284075310660084 0 0  0.004929205892015135 0 0  -0.125 1 0  0 -0.006571003003944568 0  1 0.625 0  1 0.875 0  0.875 1 0  -0.5697605654445156 -0.6815791173682879 0  -0.006133427196276298 0.1643847776170325 0  0.3651018599471344 0.2663755685158417 0  0.6549207938274992 0.2976929934712055 0  -0.8575062924401163 -0.6537402178813857 0  -0.8680901425124097 0.7918824316610844 0  0.4339399602455364 0.5063317213432847 0  -0.4033157878674457 0.8578615336138996 0  -0.7843012122529903 -0.8774812748694805 0  -0.8737127256074855 -0.7896247829042524 0  0.1574680858186076 0.8444324909857345 0  -0.663626276338836 0.1576902176320075 0  -0.5835855657148336 -0.0649065745292117 0  -0.8568363862948641 -0.06285723525217234 0  -0.303182945079154 0.5677396688993013 0  -0.4318190320456499 0.5755278741249346 0  -0.3834360741344726 0.3376010426398093 0  -0.6236734216573809 -0.2188453874209597 0  -0.2783257243233125 -0.09088898607894097 0  -0.6462949535494514 -0.5951026357115327 0  0.8597418177659324 0.2681394131360468 0  -0.03256952841917608 -0.03056647519790687 0  -0.05762720050842191 0.1179433812732825 0  -0.1377534695585215 0.4383530423054205 0  -0.1233140058990696 0.03387773934534836 0  0.538891259639281 0.06569816743622833 0  0.582301726619233 0.3641192873913423 0  0.6966936539540474 0.7809862032631572 0  -0.7999754482871705 0.883591177894113 0  -0.6481707993590744 -0.4344886031053763 0  -0.1191332523387041 -0.3993708605201766 0  0.8717146609054329 0.4946904968681661 0  0.07581142938159134 0.09611583878620668 0  -0.6706587393131299 0.8710061608530094 0  0.4576026342895148 0.3545305868560549 0  -0.02724833691184771 0.03639618351490963 0  -0.4140704061743357 -0.4445697549260446 0  -0.3670235629677425 -0.2715067555811673 0  0.3270547025890425 0.4865781685477393 0  -0.2020489844792878 0.2064559772818071 0  0.708495219194813 0.5375367125668669 0  0.2645919481080237 0.3605778731972136 0  -0.3827790549483226 -0.8522475415693436 0  0.1117201035392984 0.686374990085009 0  -0.2899078213202017 -0.614738519700941 0  -0.4473904089154618 -0.6243087889367486 0  0.3002096398033246 0.6966376505277272 0  -0.8767149764886643 -0.1766029232861057 0  -0.1831692664400734 0.8568276600245631 0  0.4566517775598455 0.1660154816211442 0  0.2809644595030652 0.04769940607836161 0  -0.146052494351305 0.6625739134495928 0  -0.01182790477283527 0.7129939981367087 0  -0.05395690588542629 0.8767662207717566 0  0.005025380032862594 0.4758659913399593 0  -0.3948162060804004 0.1579515825063439 0  0.5510536612083545 0.1352907601388484 0  -0.4842183118441874 0.6873572325332524 0  -0.853552190485617 0.339410620224401 0  -0.09316704747217443 -0.5383445892143244 0  -0.02509796937280422 -0.5540122865810095 0  -0.2172617005027033 -0.2901819755844331 0  0.8687055854489363 0.1530397669856659 0  -0.1730909340389665 -0.6626096568659854 0  -0.8910135904577282 -0.5339517511674872 0  -0.2885554485831617 0.3445769416553407 0  -0.6830920913824162 0.5810666960503509 0  -0.8991966784205775 0.5363948309965448 0  -0.9010640447178274 0.6656424652606867 0  -0.6498954896400305 0.07487735814922579 0  -0.8616290745173093 0.02979384915088929 0  -0.8903009743130883 0.1705224584870745 0  -0.1347320671333613 0.2345386651825563 0  0.1631713868571321 0.4513209350847729 0  -0.0447493665098606 -0.1258077151461145 0  -0.7596742682678027 0.6758588978900111 0  -0.6109374673470925 0.7030760914490121 0  -0.2609493135851575 0.08113747440185921 0  -0.2556487889954482 0.6539573575458573 0  -0.02430542518894164 -0.003675135823150144 0  -0.5006930330937321 0.8783841944287182 0  -0.4849774779351188 0.49712087633671 0  -0.2973860101455239 0.1481492392060122 0  6.580971666783286e-06 0.02135904305189542 0  0.7828133629351975 0.6914560725921611 0  -0.4765188555416718 -0.82678129380013 0  0.273968050157299 0.1980109292904999 0  -0.1499385360731889 -0.8640162339006979 0  -0.0647672781394885 -0.8300548953136277 0  0.4482562466124458 0.7108386380611944 0  -0.1194745352836234 -0.2901241303553299 0  -0.2709248174408097 -0.02589718211908838 0  -0.8969746250146211 -0.8989630173048978 0  -0.5790653472976718 0.2440727599632169 0  -0.4829437565741566 0.09068350811486631 0  0.4964500896027901 0.8296692204877427 0  -0.02858326227474525 -0.2610422905631991 0  -0.3147958970493314 0.8770708488002248 0  -0.1477790068771015 0.08316606839569599 0  -0.4757361541984487 -0.0346542913916849 0  -0.3948007591058936 0.01315701936624159 0  -0.2984260684741444 0.02896926077659111 0  -0.3910318820722818 -0.1216278957804116 0  0.8896556854562053 0.7042407304262023 0  0.7977245383749186 0.9147231551796409 0  0.5789068672550147 0.2106790101384917 0  -0.5656143753171822 -0.474738835042436 0  0.6041197909881961 0.712217819109622 0  0.6825441467148162 0.8921173545920288 0  -0.05344966521930421 0.3092872328527844 0  -0.9053063427321469 0.9071537432901499 0  -0.1305887357119893 -0.06714884767319836 0  -0.1726386159484487 -0.1839508879738285 0  -0.257219297969356 -0.1451878484230561 0  0.03667519861994333 0.2062278004948345 0  0.9048995454386545 0.9001008274
[...]
<PointData  Scalars="w"> 
<DataArray  type="Float64"  Name="w"  format="ascii">1.5976605679250854e-10  9.3457721457827482e-12  4.4595560516301351e-10  6.0503107319906321e-07  6.2846127572793684e-10  1.4659913749697157e-12  8.2583897042737774e-12  7.1838954987327934e-11  3.6912846495379166e-11  2.1131711429403241e-11  9.5626553820601170e-11  9.1153824028072236e-11  4.1516690214072034e-10  2.4742166751258674e-10  8.3105038352289679e-12  5.6230818746665546e-10  9.0074690046682285e-11  7.0765365793072710e-11  1.3082888526211466e-10  3.4309180955584459e-10  6.7046984179011120e-11  1.0481692743212185e-10  5.9407539805143903e-10  1.0345241553809858e-08  5.6134799546573411e-10  1.0192619026082322e-10  8.5117821002636834e-11  1.7057957872329802e-10  7.5560611497596759e-11  1.9361395412181277e-11  4.8976776617890973e-10  9.4639831764608750e-11  2.2528918951377707e-10  1.7489918354712818e-10  4.7065687108853703e-10  2.3458212762896459e-10  7.5697574498648064e-11  4.5945686360848216e-10  5.9864239567800679e-10  2.7752566688277086e-11  4.1106716424679805e-11  1.0400212827675637e-10  8.4135382688875061e-11  1.5046828718059163e-11  1.0326590610744228e-09  9.1186295563626340e-11  2.9232557683457181e-11  7.9272296798330216e-11  1.6405376023986806e-12  5.6566774533883919e-10  2.3725767153368480e-10  2.5962958174482454e-10  7.7880379432377257e-11  2.5775577106123139e-10  2.5146332256902196e-10  1.8813034307041251e-10  3.3722999065438578e-10  8.7101586727904592e-11  6.8691798722900955e-10  2.5381652974220152e-10  2.8422320831426988e-11  3.2559934596083777e-10  3.6804782336650215e-10  1.3698431345591280e-10  5.0332747011422742e-11  1.7404702785939597e-10  6.6081588285122519e-11  1.7009182888971146e-10  2.3298138636616227e-10  3.9632623394914305e-11  5.8662893986748138e-11  4.7360686665422471e-10  5.1893420674553231e-11  7.8137179352493203e-11  1.8143453213131013e-10  1.6457467468085539e-10  2.6588483738819538e-10  2.8177327273190463e-10  1.8094270188482096e-10  1.8538241899611036e-10  5.9300216494844426e-11  2.4547029617723740e-10  3.1767391995881017e-10  1.9614681607951228e-10  2.4072382253887060e-10  1.1724629774275575e-10  3.7075874016319969e-11  1.0994297050930276e-10  8.8744873849677532e-11  2.4902843841994389e-10  6.7579354424587804e-11  9.5011319563820286e-11  7.1377906175790585e-11  8.8604474657066920e-11  4.2989064346839360e-10  2.0332943539453628e-10  2.1657965709645383e-11  8.3440549439019615e-10  2.5774255674331022e-10  2.6118491994603614e-11  2.6223340447358474e-10  4.2724905598043916e-10  7.3972414460832803e-11  9.3797622890171230e-11  1.4911358978373314e-10  6.3903010761934337e-11  2.8105179172860295e-10  8.3327296261549418e-11  1.4159193725022180e-10  5.8663121667108142e-11  3.2857038980188152e-10  2.3252919795583883e-10  2.5413700576099713e-10  6.2888359239348481e-10  1.2364864927282507e-09  1.4008342004205697e-10  1.6735885406660722e-10  9.7011620575575936e-11  4.6271054067059328e-10  2.2324054172393885e-11  2.2208075956246050e-11  2.8767170802150461e-10  9.3011700577153637e-11  5.5408686129434692e-11  5.2727756983853103e-10  5.1282060735592102e-11  6.2991817700454718e-10  1.2005971140383334e-10  7.3196333887521305e-11  8.1299794467695612e-11  3.5620127994338361e-10  1.6735336484874058e-10  4.7562994671239622e-10  1.2462843466315680e-10  8.8576898439228897e-10  4.1845860288242038e-10  1.0077537636329326e-10  4.7650988497736624e-11  1.3504966151673031e-10  2.5557708990763342e-10  2.2467538739906721e-09  6.5517247550547434e-10  8.0546462228245312e-11  1.0842067582438233e-10  5.4873127497266659e-11  6.6246743060766757e-10  7.2546242538034369e-11  3.4385947286430251e-10  1.2871119230613913e-10  1.1624421571263537e-10  1.6947468989398840e-11  2.8903437194822635e-10  9.2870778133326018e-10  5.5686960824056855e-11  2.9316859788357946e-10  6.6436872260599926e-11  1.6816701891904382e-11  1.8448553377161120e-11  1.2184529725993193e-10  5.8886608803288727e-10  4.6098586368881410e-10  1.5892823987153650e-10  9.8540740103964548e-11  1.4377988981574510e-10  1.9088328433546142e-10  5.3201276066674610e-11  6.6924078585986561e-11  1.6984591928510632e-11  5.4623055127497206e-11  2.7456628063560298e-10  8.8506491207330129e-11  1.0131827328600007e-10  8.1242175558742814e-11  9.1232363774912910e-11  5.0903507508060622e-11  8.9958149223569862e-11  4.6287601385334232e-10  5.1618813255878052e-11  1.6229433506177449e-10  2.4200661419125196e-10  5.0927605434649012e-10  1.9487907820384383e-10  3.0916660406427742e-10  1.4453693488189667e-10  1.4481841851523548e-10  1.4361764345469144e-10  1.9869860368323217e-11  2.6842825927060390e-10  6.8052680227517489e-10  2.2687977193881952e-11  2.7121390010517988e-10  8.1337960500471696e-11  1.5911450487819604e-10  3.9026266472943298e-09  1.3763303181134860e-10  1.6533404468441290e-10  2.3316579919663473e-10  2.9166181454008641e-10  9.7964773541069010e-11  2.0404400577508266e-10  3.8513409613336321e-10  2.1425762769368447e-10  2.3242722002844526e-10  1.1124687476791733e-10  1.0769081855703893e-10  1.0720634085743026e-10  6.6412860603018444e-11  2.1092572118574741e-10  9.1019650001166443e-10  7.5902073918761325e-11  1.0236231871640708e-10  7.8491787864109428e-11  9.5264380046319579e-11  1.6170085117795873e-10  3.7855348177245795e-10  7.6642371045581786e-11  7.4590443613880603e-11  8.4278525540366145e-10  9.6007696284759941e-10  2.9950684701069915e-10  1.9937393474707320e-10  8.1329551699646718e-11  7.2509234116419067e-11  3.3182867564986186e-10  5.2498954950984486e-11  7.4021942962651991e-11  4.4951564681287151e-11  9.0030639620717455e-11  3.8599813055888939e-10  8.4414245186535080e-11  2.0059910660138995e-10  1.6187524907751009e-10  9.8821147659633068e-10  5.4807884286326659e-11  1.8617940468597493e-10  1.1864367364384323e-10  1.0596894486526495e-10  1.5711809820142571e-09  6.7539576758500718e-11  8.0434073565200149e-11  1.1576457959132555e-10  2.2372181774245318e-09  3.6427215672692554e-11  7.1186217425771596e-11  2.8365803650064725e-10  2.5229995902933625e-10  3.5115100080874196e-10  1.7977500651390498e-10  2.1048917825559761e-10  4.0935887701467952e-10  2.4782637034634809e-11  1.0015689987758757e-10  1.2528515205249586e-10  3.4938016297629048e-11  2.8493659157603209e-10  3.8526600140549783e-11  3.5351276669462762e-10  1.3414286760413888e-10  1.0845300813339565e-10  1.9256846309609619e-10  5.0110144742708790e-10  6.9512912343612961e-11  2.2924472932944882e-11  1.4306926396187115e-10  8.1181205788739399e-11  5.6016067011270777e-11  6.5464292275483593e-11  1.8427515447498760e-10  3.9587721084257062e-11  2.8095291256560229e-10  2.6140673080974317e-10  1.3024353851893625e-10  1.3659356343057606e-10  1.0360748291821177e-11  7.0439771828386611e-11  1.5028306989865815e-10  1.5613736890988101e-10  6.1536095528363056e-10  3.5994817556677138e-11  8.0335262081375259e-11  2.9384369759396950e-11  2.5797290429545321e-10  1.1921876526925187e-10  1.7331569939442741e-10  7.3857616169386903e-11  7.9733617046016813e-11  1.1855907269116491e-10  1.9655429277670719e-10  2.2785299651872196e-10  2.5809156866646243e-10  4.7598243314497513e-10  2.1543281974250963e-10  2.1111971296948068e-10  1.4775743035952730e-10  7.7930135616504189e-11  1.5715701972411227e-10  1.6038556759183931e-10  6.3840792796616021e-10  1.2435623975669710e-10  5.9624353449765198e-11  4.2411251476845517e-10  2.0014107930955984e-10  1.8570578910927197e-10  1.2424706375842420e-10  2.7576505014153421e-11  4.2888918574261858e-11  8.8022189327778306e-11  7.4339442169442995e-10  3.4470896667120100e-10  1.7910228547805645e-10  1.3136610472993579e-10  3.3045920089813691e-10  6.6089812522372980e-11  1.0837967734939687e-10  3.6903722345583107e-10  1.2415732028262028e-09  9.4723683064839532e-11  2.8657630391742974e-10  6.5928373233843214e-10  1.3368134418702116e-09  2.0814924192116159e-10  1.7401965658861788e-09  4.5530275994718308e-10  2.2338007780582410e-10  1.2101183256026471e-10  3.7040625967485251e-11  6.1101533960259033e-11  1.2475393914193886e-10  1.4674010254923492e-10  5.7515398479942074e-11  9.8898519632764896e-11  1.0768227589323874e-10  1.2465603850740550e-10  2.2491490399579941e-10  5.7245565052492775e-10  3.2587639286586889e-10  1.6375871559733835e-10  9.4785209403684259e-11  5.9675310811202056e-11  6.0875704938376553e-11  6.6842062353094930e-11  1.8092067444640551e-10  2.0630277123300458e-10  9.9986874421778904e-11  9.9764767073804316e-11  2.2872226157808346e-10  1.3300440888779679e-10  6.3915878837420342e-11  5.7944073673396384e-11  1.0501813318082930e-10  3.0716075098924359e-11  1.7308508322199967e-10  3.1277626082516120e-11  1.5989703213590014e-10  1.7901974443329874e-10  1.5651685677855409e-10  3.6183441202709189e-10  7.7819062135667841e-11  7.7782422632350644e-11  1.3387374919145838e-10  2.9446781152276639e-10  1.4453895241448885e-10  2.5922679504439637e-10  1.0754097647828845e-10  1.3068677507234053e-10  1.4295855084183757e-10  2.8609284099251150e-10  1.2896943075372854e-10  3.0675419832763652e-11  1.1113929042706422e-10  1.0907000563808193e-10  1.4333505826341835e-10  2.3180812592353234e-10  1.6110591705517503e-10  3.3273770385612754e-11  1.2766532434096421e-10  2.3387778563127625e-10  2.2828664363795741e-11  3.2601335233675760e-10  1.7208855470143993e-10  4.8434506631853554e-10  1.1494532643657016e-10  2.1536207529562141e-10  3.1665327126464203e-10  7.0464707238517004e-11  1.0334966481549157e-10  2.1964990532074520e-10  5.8818025193397956e-11  4.9698730690228147e-10  1.6223008559367064e-10  9.3833356782441295e-11  1.0693710033219990e-10  2.0609145355236654e-10  5.7787034239356896e-10  5.0680390116644342e-10  1.5846672762685507e-10  1.6584108681402951e-10  1.9450288581873017e-10  3.8276944257468206e-10  4.3503329471633021e-11  2.1314179379566536e-10  7.6830088963749922e-11  1.2779822364475655e-09  1.1585354326326265e-10  4.4321237641275652e-11  6.8650514368932862e-10  3.4652777955734559e-10  2.4444018197119354e-10  2.0155421065141805e-10  5.9028644977526706e-11  1.4631716615520017e-10  3.1489996226576858e-11  4.3676797881793066e-10  7.3946886485229498e-11  1.2535550566755389e-10  1.2813381514317068e-10  6.2961453341898227e-11  3.4923472211038003e-10  3.9386894901384455e-11  1.0773674701097559e-10  2.5065838152152492e-10  1.7844565134934437e-10  7.6282417708836360e-10  8.9412129439188431e-11  5.8695266262006159e-10  1.3383238198141670e-10  4.4283070708443005e-10  6.3228905735305579e-10  2.4817798367119725e-10  1.5495929875720620e-10  2.7791655699292652e-10  5.5239467772279592e-10  3.4738189386262858e-10  6.8245507038832118e-11  4.5699812053788747e-11  1.7279682138203844e-10  3.8452685178703132e-10  1.7634155237728488e-10  1.1074093439707881e-10  1.5719769735658641e-10  7.2720183785925294e-11  6.4746289083347409e-11  1.9651325263268695e-10  5.5255193808640576e-11  2.0512505188125195e-10  9.2336859932473238e-11  5.0715915435991854e-10  4.6806135347715447e-10  7.9567821266347406e-11  3.8421164084005272e-11  4.0979889009742625e-10  6.7439406059978884e-10  2.5618213763737319e-10  1.1422151633875463e-09  3.0007471366748890e-10  3.2837130117540941e-10  3.0355764796894068e-10  2.7346716163521308e-10  9.5442278027373893e-11  2.6428617334355418e-11  1.9162513471919106e-10  1.0009492186837761e-10  2.0890834962208599e-10  7.4640141073631299e-11  1.1376612353410211e-10  2.4053273912856915e-09  1.7627974761409793e-10  7.6170208498310427e-11  7.9886491984111682e-11  4.3424090371915222e-10  2.4578972230010171e-10  1.9046975635900500e-10  2.1400166941021956e-10  4.0962207336404675e-11  8.2936141672638189e-10  2.4300466638415801e-10  5.4040588132207052e-10  2.4953121320712035e-10  2.2564043218621402e-10  3.0402900789013793e-10  9.3760794272160336e-11  2.9790674365170277e-11  3.1219093117979139e-11  4.8629363503824371e-10  3.0486712006271171e-11  1.0119728773698436e-10  1.0899061377788701e-09  7.1677589328337456e-11  3.2050869791122695e-10  2.5606884004064148e-10  6.0785206810189046e-11  5.5786448376270360e-11  1.8532357800735014e-10  2.5298588641985836e-10  4.2831688936407506e-11  1.1138920118759135e-10  1.5408578180665513e-10  7.3969015360661550e-11  1.6167288656629322e-10  2.2961003820954731e-09  3.7349993321669028e-10  3.1857494124204933e-10  1.1017728817096414e-10  9.9014772758031743e-11  1.6756692866702010e-10  6.7660698606295941e-11  1.2849798891324625e-10  4.8495662566418995e-10  8.4495701797013683e-11  2.2582608203664388e-10  2.0505299587908706e-10  1.3728698993908314e-10  4.0860839656914887e-11  6.2450353789916428e-11  4.2132820537413286e-11  7.7050479348242531e-09  1.0342821794465480e-10  2.1216665459956490e-11  5.8166517781515601e-10  2.5895504354330672e-11  6.2660102373309855e-10  1.1379883168771672e-11  1.9444422064332535e-09  1.7675360529984673e-10  2.4043120599900754e-10  9.3474529804728810e-11  2.4805861453886977e-11  7.4846884688171143e-11  2.5305774586327530e-11  1.7916707792365947e-10  3.7549413592929159e-10  2.6256273093977844e-10  4.3650214973439826e-10  2.0277429826558053e-10  8.9537320511732080e-11  5.3788259495254810e-11  1.8953776275976776e-10  4.9363436604815652e-10  9.8690653817861214e-11  9.3027365200059717e-11  1.3807340310348629e-10  6.9077900960934074e-11  4.4954106622009851e-11  4.3230464371394316e-11  2.6268188199853338e-11  8.1742856501152493e-12  1.5258051258368010e-11  7.8225422574514796e-11  1.6952742498789917e-12  8.2304048370439780e-12  1.9557956076635669e-10  3.6062968978542138e-09  2.0086901377202888e-10  3.2273235625600984e-11  2.2641347028028979e-10  8.9525198829559733e-11  1.0967465294063685e-10  3.9767060989562692e-11  1.4020407934224732e-11  7.1496749180516106e-11  7.9593360767311045e-10  7.2830794792291066e-11  1.8208318816515768e-10  3.2638690032546630e-10  4.8444143769105140e-10  9.3690282165266896e-11  1.0213872729548020e-10  5.6267305354335661e-11  7.6037283502704922e-11  9.5617385678658509e-11  5.0936115174508459e-11  6.2218224273385836e-10  5.7064913494579890e-11  2.8853640520580236e-10  8.3061192792142339e-11  1.2358723475268494e-10  2.9079751350982561e-10  4.0642964707445618e-11  5.4190715829414557e-11  2.5060106896190250e-10  1.0111258864982970e-11  1.0900747998819046e-10  8.7092117067494042e-11  7.2078728406028881e-11  5.6959121867921451e-10  1.6971695558613841e-09  3.2812671335317727e-10  2.9410660131103085e-10  8.9746199154808309e-11  6.7692571315897037e-11  2.4681712188422513e-10  1.1049065387719011e-10  8.6456726195253167e-11  9.8848117375787304e-11  1.8787096840117157e-10  7.0721848279123667e-11  4.4160780024827171e-11  5.9526947637743071e-11  3.4892799028906100e-11  7.7971289265265078e-11  1.9900219461344099e-10  1.6374173434857202e-10  1.1178484976846752e-10  2.8033105254054585e-10  4.1801264220570205e-11  1.4017526219196305e-10  5.3989354223034687e-10  5.9962362916534018e-11  1.1276098712205827e-10  1.4277650709860941e-09  5.6488761583892337e-11  3.5657630123323828e-10  5.6863262042847896e-10  1.6197926754173073e-10  1.2175445162888338e-10  1.2631469728126097e-10  7.6189485311964697e-11  3.4848761579277872e-10  2.9928913982854113e-10  1.7467818328105752e-10  4.8648259618308380e-10  4.3385792967655513e-10  1.1609202959865302e-10  1.9767412727025656e-10  6.2439562788667198e-11  7.9156836864941327e-11  5.9478933675708781e-11  2.3306869781947146e-10  4.0565675591955197e-10  3.0862484270675620e-10  3.3348934668861884e-10  8.2948233647553563e-11  2.5866724204928414e-10  5.2575547512109723e-10  1.5924875979504230e-10  4.6024356101085182e-10  1.7854717375000493e-10  1.3065664797470649e-10  1.0692544224494266e-10  4.8456872706364600e-11  4.9689204879621257e-11  3.3680400346556623e-10  5.9836809815277610e-11  5.9766230064853893e-11  1.2312233505679711e-10  3.2618923289645814e-10  3.2937415184798037e-10  1.5625826359206695e-10  1.1371913842043463e-10  7.2128388289173557e-10  6.6216080256604802e-10  2.6795415700094739e-09  3.6408970414367178e-10  2.7991247236671217e-10  5.4097941799430408e-10  4.5655295435057520e-10  2.6473565485926167e-09  3.1556122497186797e-10  2.3152889011717359e-10  3.0423131587325992e-11  1.1900546065230701e-10  3.4616419016897028e-10  5.2139960877321577e-10  2.2209301784251014e-10  6.8937074978403607e-10  2.8758106899986617e-10  1.8050227320236651e-11  4.6812620882626534e-10  3.5253047211490918e-10  3.7815416171387870e-11  3.3718247273383524e-10  4.0647666463038293e-10  5.5471393494719165e-10  1.4613595345515857e-10  6.8357130272359551e-10  1.9220874077698980e-10  4.5714478054694238e-11  1.2617633610543960e-10  1.3011518651806214e-10  3.2117473914239864e-10  7.0871372961839051e-11  2.4879400246000217e-10  1.8420202209380359e-10  6.5015707844588254e-12  2.2541201962910152e-10  5.3027201793398682e-11  8.8950365935395984e-11  1.2021492892667327e-10  6.8362245793301623e-10  4.6597883601521589e-10  3.1823667723126408e-10  1.1912412583671761e-10  1.2491066972694522e-10  1.1641842714820328e-09  8.0892714850491192e-10  1.3478719269284505e-10  1.4105450430818277e-10  9.2083430250336735e-11  4.9851081032830474e-10  1.3309718403676173e-10  1.6567998676145586e-10  8.9247518029184539e-11  6.7896092585341977e-11  6.1147383921198502e-11  1.4985152719134803e-10  9.4940361089263805e-11  1.2299716719855909e-10  3.8304068298910543e-10  7.2983584767328761e-11  6.4664263435313649e-10  1.1443198868066690e-10  2.2812455919149871e-10  2.5762542753155872e-10  6.4599212471692154e-10  1.1154499163442685e-10  3.6751705157616963e-11  5.6555983087438888e-11  1.4228867865196663e-10  1.5706326005704999e-10  5.0219716254833414e-10  7.6692195782654853e-11  1.5036354490327049e-10  2.3618253243330051e-10  1.3506417556549167e-10  2.3147591878954958e-10  3.2707545756570001e-10  3.2738649785874989e-10  1.0052511605041897e-10  1.7783761714709628e-10  1.4729875566835440e-10  2.2620208924578639e-10  5.2971107833587792e-10  3.8031190516114917e-10  2.0261464058543625e-10  1.7800580812540223e-10  1.2000419226584446e-10  1.5823282375633059e-10  3.0983930430591703e-10  3.8684022137874576e-10  3.6927236906397423e-10  1.7006862220223266e-10  2.1916009572448886e-10  1.9050876912909744e-10  1.3837462716316230e-10  3.9128915214158078e-10  2.8135684963550577e-11  1.0385796038724596e-10  1.2510295818422574e-10  2.1223421555721127e-08  4.0468044760232707e-10  1.6966568581094606e-10  6.1556892525561255e-11  2.6172750392373456e-10  1.3431920695727821e-10  6.0543211123394478e-11  9.9247891772973900e-11  2.0291303900827768e-10  2.0339322677492707e-10  1.9475462548392072e-10  1.8228839173971108e-10  3.0030061272403492e-10  6.0604408082054883e-11  7.8095676520874797e-11  1.8661600757394775e-10  1.2357732145439086e-10  3.0930034661449979e-11  3.9905991874797821e-10  5.9756977890634454e-11  5.6911477151736771e-11  1.9337260219242084e-10  9.4338073838343492e-11  2.3459822120363628e-10  2.9114032653807549e-10  2.8111748790995507e-11  7.9256729534418890e-11  1.7577704542715496e-10  9.3201567768036816e-11  2.6582996692092177e-11  7.6696574863020775e-11  5.5966307043079355e-11  7.7650444371333264e-11  3.3723115155863424e-10  4.2308317634367796e-11  5.8383857436795236e-11  8.8643238046891924e-11  8.5089350616716319e-11  9.1035616176194206e-11  2.6556762819343494e-10  8.5939709290523121e-11  1.7648620936208563e-10  2.0947714642350544e-10  1.0154538609801010e-10  1.5676496972717854e-10  3.1633384021214451e-10  1.1743745063544702e-10  6.6585974658166251e-10  1.6502817484963613e-10  1.4715191606489751e-10  1.4213291537026555e-10  1.9949063978878089e-10  3.9746241375711489e-11  3.5203830511969759e-11  7.1424052005780064e-11  4.3477153094160774e-10  2.0539586238496798e-10  6.4535031578776267e-10  4.6411849608601748e-10  1.1863166529568156e-10  5.9078235450519663e-10  3.5834271552025930e-10  1.8609998811861442e-10  6.9063829253346977e-11  8.7609408049134156e-11  1.7575857103506336e-10  1.9131720738454643e-10  3.5665545090549121e-11  4.7634168256637993e-10  2.7137697772543968e-10  3.2019017063093422e-10  4.3328142117441036e-11  3.5118076186860203e-10  2.6834421776069057e-10  4.1028732197849158e-10  7.0413265302370273e-11  5.6785468966803064e-11  2.4341707489370147e-10  6.7423636632117947e-11  3.8193088569369468e-11  1.3103751108206289e-10  2.1702438602671540e-11  5