<?xml version="1.0"?>
<VTKFile type="UnstructuredGrid"  version="0.1"  >
<UnstructuredGrid>
<Piece  NumberOfPoints="4852" NumberOfCells="9430">
<Points>
<DataArray  type="Float64"  NumberOfComponents="3"  format="ascii">-1 0 0  -1 -1 0  0 -1 0  0 0 0  1 0 0  1 1 0  -1 1 0  0 1 0  -0.5 1 0  -1 0.5 0  -1 -0.5 0  -0.5 -1 0  0 -0.1608775713298009 0  1 0.5 0  0.5 1 0  0.1967448868031411 0 0  -0.3405044013065628 -0.1757867470408041 0  -0.3367010045576196 0.2242771083520867 0  0.1740846409849945 0.3459961249300318 0  -0.1849871208893179 0.5549144343604533 0  -0.5039286067464915 -0.5376626920686763 0  0.4905149859697579 0.2572707461506192 0  -0.06423643430139235 0.2008624914777214 0  0 -0.5061325913258391 0  -0.25 -0.9999999999999999 0  -0.5617846641539032 0.5774807845507788 0  0.66171821437886 0.6344130039670217 0  -0.1763146289427782 -0.5378113431382947 0  -0.538734327927505 0.02548748432055663 0  -1 0.25 0  -0.2059721906766748 0.02376334748920466 0  -0.6545305362765865 0.309807791517823 0  -1 -0.25 0  0.03925333782948814 0.591594933786162 0  0.1951484935800155 0.1288019807561208 0  -0.1360166756204705 -0.2200004493193747 0  0.3711879066001103 0.6144797069751582 0  1 0.25 0  0.5355652144809806 0 0  -0.75 -1 0  -1 -0.75 0  -0.6450106523112588 -0.3231182362329355 0  0.25 1 0  -0.9999999999999999 0.75 0  0.02757118475249542 0 0  -0.25 1 0  -0.75 1 0  1 0.75 0  0.75 1 0  0 -0.02898318711980711 0  0.05431437080624254 0.1420881701984945 0  -0.07758486893089063 -0.02783554494442477 0  -0.7011078258043818 -0.1323727713470876 0  -0.3214826421262358 -0.3474211924284927 0  -0.3401011024651003 0.4372526927800084 0  -0.09986439986487651 0.7640624185200499 0  -0.3832996114785897 0.702735730336312 0  -0.05465612448732268 0.3987223027681784 0  -0.07878486327186031 0.07183654041415483 0  0.359033251203509 0.3696691174653109 0  -0.7166774650848657 -0.7305021644233122 0  0.4118714402014207 0.09000463664603804 0  0.6899213736590423 0.1920028966230215 0  -0.7477317456876387 -0.5274748990786886 0  -0.3879262112844809 -0.7107270052963897 0  0.7215060299029634 0.4192206830513274 0  -0.7761135953391461 0.09720846754673534 0  0.1970271230952584 0.6986822360315734 0  -0.1985199241736692 0.2883749641215445 0  -0.7990997333091316 0.5780312989755717 0  -0.7175829544923528 0.7666693302526957 0  -0.04419095273035856 -0.3737385861916018 0  0.5850887323928886 0.8171992099163908 0  0.8208507319141126 0.8069832472275256 0  -0.1035014750577092 -0.6971117003503885 0  -0.5142672034169339 0.1629716157721595 0  -0.2016423738262692 0.1255751233998042 0  -0.358990559558211 0.0753639174998114 0  -0.3649839053508055 -0.05224429269752989 0  -0.4967670591640476 0.3951459267033385 0  0.375 1 0  1 0.125 0  -0.01175659335614768 0.07111977767815464 0  0.06224734672697287 0.3916848581530156 0  -0.1712642903812197 -0.1223931328257273 0  -0.2431572153683831 0.773614601419917 0  -0.625 1 0  0.5335834082959453 0.4546233973728708 0  -0.5765155027972009 -0.8302921139735321 0  -0.257925975351381 -0.7836266735224555 0  -0.319900406189753 -0.5084843551182729 0  0.8340698678449835 0.5958180649658876 0  -0.5490604677254328 0.7910134165557455 0  0.125 1 0  -0.06735779755617281 -0.0934239948933273 0  -0.4945671181472986 -0.1432023571167688 0  -0.875 -1 0  0.02960937865112722 0.04153324331325296 0  0.9999999999999999 0.375 0  -0.875 1 0  0.05745141986419179 0.7939662829479487 0  -0.1957165628287224 -0.3737137855642404 0  -0.07277816557295703 0.5709826356705989 0  0.2366229034464589 0.5178775856019259 0  -0.792153229648595 0.2297733098593418 0  -0.4951280273920095 -0.3891805323618439 0  0.0002666959567076369 0.2709340825235176 0  0.5101822299264841 0.6405212923791052 0  0.3991465515241196 0.8075130208933342 0  -0.8060453119711155 0.4250284223513382 0  -0.06362260611401868 -0.2209902947717709 0  -0.7095732790446144 -0.01409822831083238 0  0.090555019572091 0.05240100477725013 0  -0.4781430425793046 -0.2513501943316609 0  0.7238659648841776 0.08305089432825141 0  -0.8087579295132181 -0.4112854161228151 0  0.3375815028738414 0.1537089126409206 0  -0.7944848859378064 -0.250976049156089 0  0.2364329082236722 0.2542370077390592 0  -1 -0.875 0  -1 0.875 0  0.1843569507421442 0.04791021295691547 0  -0.2472940385365977 -0.2291482952848011 0  -1 0.375 0  -0.1709240751575165 -0.04179010605013814 0  -0.6490468527537262 0.4677284742005006 0  0 -0.07736776745332727 0  0.08058123343001115 0.2597510255568232 0  -0.375 1 0  -0.2169513781189402 0.4246457136150854 0  -0.1198893011687211 0.1500468054638781 0  0.1334729422337268 0.5540493436088312 0  0.1320527294961785 0.1936877249609597 0  -0.474666274962348 0.2696165741774307 0  -0.04611010706544171 0.01386602477665205 0  0.851217387631662 0.3707717786484434 0  -1 -0.125 0  0.28570499179514 0.8370625760837511 0  -0.1106410707955025 0.3129000353350253 0  -0.125 -1 0  0 -0.7575037395175259 0  0.07821397079968176 0 0  -1 -0.375 0  -0.375 -1 0  -0.625 -1 0  0.7474787146812756 0 0  0.625 1 0  0 -0.2918843213980812 0  -1 0.625 0  -1 0.125 0  -1 -0.625 0  0.3284075310660084 0 0  0.004929205892015135 0 0  -0.125 1 0  0 -0.006571003003944568 0  1 0.625 0  1 0.875 0  0.875 1 0  -0.5629846431749849 -0.6767240607924799 0  -0.004542237972671929 0.1600876332022376 0  0.3624837961612525 0.2630989229084157 0  0.652972000846483 0.2943113675304069 0  -0.8547966925418311 -0.647338111890319 0  -0.8643071642908275 0.7880296326823415 0  0.4305391417947801 0.5016587574086827 0  -0.3984634117071456 0.8560391770399851 0  -0.7795068252761157 -0.8749204645249163 0  -0.8707141048172615 -0.7850138575669928 0  0.1545240292238644 0.8422362461569161 0  -0.6584715701818936 0.1530394265024234 0  -0.5775270938158181 -0.06419667748681246 0  -0.8545836686816768 -0.06246120938905141 0  -0.296044461181743 0.562193859352129 0  -0.4238813841538056 0.5700374471132765 0  -0.3760192340537241 0.3311938145288849 0  -0.6182360159105348 -0.2164004897734624 0  -0.2726786621332779 -0.0900484123815796 0  -0.6403775307784592 -0.5890308043175241 0  0.859612920356372 0.2662174064105137 0  -0.03275269880143016 -0.03296531081841211 0  -0.05461028305377982 0.1144622601655237 0  -0.133647830567938 0.4319439538986256 0  -0.1196241291351903 0.03235971493813716 0  0.5377925796501289 0.06475591503590071 0  0.579361672261972 0.3599123441806831 0  0.6918203993059832 0.775559118776447 0  -0.7948310585307717 0.8815212059550978 0  -0.6434332216126096 -0.4293605446139741 0  -0.1149018014141635 -0.397029479148353 0  0.8720522568660019 0.4893328232244693 0  0.07603964210243958 0.09379260835629659 0  -0.6653211957410721 0.8686591864370772 0  0.454717936417314 0.3509771079380868 0  -0.02622225360163431 0.03576829885591298 0  -0.409087776881833 -0.4404973463505284 0  -0.3617692810950769 -0.2689122686458065 0  0.3237239736604178 0.4820469039453228 0  -0.1959123827011862 0.2014432370328962 0  0.7057879007068981 0.5314545630028777 0  0.2619419456286751 0.356231136527951 0  -0.3771888288409049 -0.8517707749040639 0  0.1093394181661658 0.682030866862159 0  -0.2851913031098146 -0.6119864946382699 0  -0.4415653614743673 -0.6202714319894082 0  0.2964646849839152 0.6925918063358018 0  -0.8747774313298717 -0.174841334980193 0  -0.1802410088928667 0.8551628369881801 0  0.4547768134200483 0.1637266239488664 0  0.2803079082182521 0.04675594798936188 0  -0.1423470015370482 0.6574159265252966 0  -0.01135304708911479 0.7085859660320001 0  -0.0533272014169548 0.8752330082311028 0  0.005527757460230935 0.4697948311101893 0  -0.3876373568483465 0.1536565711642164 0  0.5492210128724685 0.1335333988215105 0  -0.4762537677449529 0.6826716738209822 0  -0.8515023727675569 0.3333612762450248 0  -0.0880302675230578 -0.5365081255582372 0  -0.01977522284940891 -0.552472894761026 0  -0.2133682499346393 -0.2878097420597017 0  0.8684394900334813 0.1517997859778133 0  -0.1697849189983996 -0.6609856691660868 0  -0.8892276183646923 -0.5289104685304176 0  -0.2816671322808662 0.3384273683133074 0  -0.6766788543002358 0.5746433558373194 0  -0.8975014936915005 0.5319715866211581 0  -0.8987443431159302 0.6616849128115875 0  -0.644341613756324 0.07256597960234401 0  -0.8592032070824763 0.02873410236699183 0  -0.8881914721127642 0.1679694422793327 0  -0.1300066127786834 0.2289323596450326 0  0.1605921763060546 0.446346196955653 0  -0.04350556518251536 -0.1258210305331298 0  -0.7540563657998661 0.6705134592161074 0  -0.6031743155381879 0.6981942718787858 0  -0.2542961600666483 0.07859577428008044 0  -0.2495419998093076 0.6489156572525945 0  -0.02737753952698916 -0.00639937050281065 0  -0.4949206905319353 0.8771765107302241 0  -0.4772710079392614 0.4908417021873872 0  -0.2903202721592958 0.1441389243192032 0  0.002329384269991333 0.02358577200423071 0  0.7797941097320519 0.6844970869477363 0  -0.4702843195481578 -0.8249498308228684 0  0.2720083840570296 0.1951712370939448 0  -0.1486060515505192 -0.8632417485722382 0  -0.06352646789563268 -0.8290298829215061 0  0.4436121043419971 0.7064776808081773 0  -0.1164430628320305 -0.2884660889645414 0  -0.2648174943495323 -0.02612290668025989 0  -0.8943695421870964 -0.896817096066824 0  -0.5728913159593405 0.2376493787966474 0  -0.4760387655525357 0.08776362901876618 0  0.4916704345556819 0.8263172121550534 0  -0.02737399229355508 -0.2616019591499165 0  -0.3104474007279733 0.8757057557409811 0  -0.1428896637088667 0.08049911142929085 0  -0.4692694208895477 -0.03478017078012947 0  -0.3879540964144818 0.01223836329733354 0  -0.2916858844269621 0.02764595165873267 0  -0.384899555221944 -0.1204328326844327 0  0.8883293462614527 0.6987816925421811 0  0.7936160880922841 0.9114901802424721 0  0.5767199804023343 0.2083871265244155 0  -0.5600420263251995 -0.4696648772235841 0  0.5992390266956069 0.7066921432875908 0  0.6786694519223341 0.8889870200185738 0  -0.05096244343038243 0.3031405929235294 0  -0.9028884282853614 0.905228357481927 0  -0.1274171133903342 -0.06712312642881386 0  -0.1689000383409096 -0.1826230453854878 0  -0.2522479874081732 -0.143754295963508 0  0.03719208459575909 0.2015701101733815 0  0.9024491103107395 0.895
[...]
<PointData  Scalars="w"> 
<DataArray  type="Float64"  Name="w"  format="ascii">1.7318478454687323e-10  1.0054000674114135e-11  4.4395911938826550e-10  2.5675931588693610e-09  6.2494226340620729e-10  1.5249392751196976e-12  8.5632222696636386e-12  7.4065994917326791e-11  3.9821508846151175e-11  2.1181150199749490e-11  1.0817208377907755e-10  9.5942997586994594e-11  4.0693754030881242e-10  2.7277847755957691e-10  8.9643842925062670e-12  5.2650476033743447e-10  9.1252446681137234e-11  7.2340775944319993e-11  1.3099706923128884e-10  3.5757405389222422e-10  6.6909781261286517e-11  1.0341105214106505e-10  5.7723812406895082e-10  3.5392542900245901e-09  5.7745788798480398e-10  1.0862174819742884e-10  8.8954740519602546e-11  1.7267309691409068e-10  7.6819655661228524e-11  1.8857072929885955e-11  4.7188040560518940e-10  9.8188691248556762e-11  2.4433721636810008e-10  1.8208168838832971e-10  4.5701675314836019e-10  2.2676676585199890e-10  7.8336262572353005e-11  4.7846816603926196e-10  5.8883708834082083e-10  3.0613990702502749e-11  5.0544662186992614e-11  1.0922146774574379e-10  9.1768649058206631e-11  1.8562267741771974e-11  1.0486844854894423e-09  8.7569334500562174e-11  3.1455908809930727e-11  9.3804381220927447e-11  1.2947730681111998e-12  5.8921884014397860e-10  2.2093765275282010e-10  2.1340678324546081e-10  8.3009854630006358e-11  2.5377420320717485e-10  2.5812424715243306e-10  2.0898274609262092e-10  3.6051372929307325e-10  8.9208469880966749e-11  5.7894704462590066e-10  2.5217969899328755e-10  3.1397522285675530e-11  3.1595741327715631e-10  3.7790122701046334e-10  1.4296983198388257e-10  5.3603787945849949e-11  1.7790688186531719e-10  7.0062513245317120e-11  1.8084436065897411e-10  2.3490343725917747e-10  4.5169014902570594e-11  6.5075423434224453e-11  4.2600875813590503e-10  5.6452463305386089e-11  8.7450346594225406e-11  1.8678728536475799e-10  1.7084371659753315e-10  2.5716141298567900e-10  2.9083197321570284e-10  1.8405213611122994e-10  1.9798164723011374e-10  6.4089998694270764e-11  2.5148953937931344e-10  2.6285442223270670e-10  2.0159263023268966e-10  2.3416132142800551e-10  1.2601726414227555e-10  4.4628839399742728e-11  1.0960374554864194e-10  9.5126531703853650e-11  2.5348024876821998e-10  6.8720217360067286e-11  9.9413028954386139e-11  7.8317929747125822e-11  9.3711198326154975e-11  3.8846117471352521e-10  2.1048755184639768e-10  2.4828734337296032e-11  6.5154956781373521e-10  2.5731565599991829e-10  3.0396459948596682e-11  2.7836405002043592e-10  4.2014049680627624e-10  7.1142203929301318e-11  9.6378291873076183e-11  1.5618862226225653e-10  6.3284553016032478e-11  2.7594358552037552e-10  8.3740347199028043e-11  1.4855518085871515e-10  6.5768855644577172e-11  3.0926048920187854e-10  2.5092878342382993e-10  2.3139623275518720e-10  6.4982806362926307e-10  1.2179185935825345e-09  1.4618108845748929e-10  1.6547166799706170e-10  1.0083447712563341e-10  4.6018787439021381e-10  2.5403253373025878e-11  2.4881014559339546e-11  2.7788092211128141e-10  9.1531271727075431e-11  6.0882760477220429e-11  5.0328353368749440e-10  5.6815568930112232e-11  5.9621985043792626e-10  1.1815821850663647e-10  7.6233043966740997e-11  8.2421366254523447e-11  3.4355446180580800e-10  1.7194711640762173e-10  4.6835991995710301e-10  1.3387323398400953e-10  6.2153184966517227e-10  4.4366103676516130e-10  1.0870044358000288e-10  5.1417097005201589e-11  1.3066410640547346e-10  2.6175366000581355e-10  1.0113281527382550e-09  6.0399314337036729e-10  9.3105433427973668e-11  1.1807593373412669e-10  6.6635240990006264e-11  6.5749868497460720e-10  8.4042428156632744e-11  2.5484792940163950e-10  1.4535844077227596e-10  1.2353817571819544e-10  1.9628212124117194e-11  2.8371083605106210e-10  1.5705742094891823e-09  5.6060271501273855e-11  9.5991205477370324e-10  7.7193048969333264e-11  2.2690246060188655e-11  2.2758077985810230e-11  1.2326321059049563e-10  5.6195940346054608e-10  4.4329399437905205e-10  1.6107496596174998e-10  1.1428262979173368e-10  1.6369647046097215e-10  1.8789820057506246e-10  5.8017623723130347e-11  7.7217491824392728e-11  1.9770539582709025e-11  5.9366189102420833e-11  2.9789410549993419e-10  9.1452998477048104e-11  1.0590081565543980e-10  8.1751954016142875e-11  9.6485635500739821e-11  5.2898596949159306e-11  9.5918107195048635e-11  4.5809401459732767e-10  5.6716431827780564e-11  1.6412114075983111e-10  1.7085854688421440e-10  4.6620691652878517e-10  1.9985058361673040e-10  2.8370934391384110e-10  1.4300564980966697e-10  1.4526347874454101e-10  1.5201704969610868e-10  2.1159447404924867e-11  2.9269327580350154e-10  7.0392861344199405e-10  2.5092053677266037e-11  2.5106236395482431e-10  8.9415895073390219e-11  1.5823418594502664e-10  1.1085077128844951e-09  1.3768844473354875e-10  1.6394108379251377e-10  2.3579435848634256e-10  2.8910184125131255e-10  1.0575777990418703e-10  2.0506487000187046e-10  4.1786217796928042e-10  2.2164596161627470e-10  2.3996511208970709e-10  1.1097599530661451e-10  1.1259972218378840e-10  1.1253424714509247e-10  7.1704996646592257e-11  2.0921342585402112e-10  8.8739274075328617e-10  7.7608383529311796e-11  1.0710293774147195e-10  7.8126492736631875e-11  9.7435178813709715e-11  1.6226731863315588e-10  3.7811780553312863e-10  8.0234287603026186e-11  8.5245069090985195e-11  9.5004735163806786e-10  6.8618503617104993e-10  2.9445887369779633e-10  1.9978665048942768e-10  7.8769071338651223e-11  8.0781220835312946e-11  3.4003770586582019e-10  5.8531562653251814e-11  8.3624753247846435e-11  4.9606881871045755e-11  9.4053323840858871e-11  4.1428291854005199e-10  9.0133515899009445e-11  1.9737347603079570e-10  1.6726185760442152e-10  9.0633124259746660e-10  6.1418049021268504e-11  2.0045327406901758e-10  1.1564299518060244e-10  1.1192564541409756e-10  7.4717455055314893e-10  7.5652165386881466e-11  8.5790757550511328e-11  1.1786596835748802e-10  1.1076018018928276e-09  4.0598606976244547e-11  7.6857003349903476e-11  2.7945755165497926e-10  2.6199477577628084e-10  3.6362984733468481e-10  1.8495596093106958e-10  2.0342979341183675e-10  4.0700688283204275e-10  2.8759731193557345e-11  1.0568599248713408e-10  1.2883432750661502e-10  3.7330799696228284e-11  2.9783937929283617e-10  4.2734368295304802e-11  3.3726902428075076e-10  1.3571946648134830e-10  1.1055206247702248e-10  1.9111008345480246e-10  5.0764193854553532e-10  7.3636941706557842e-11  2.6455966449169893e-11  1.4412002908095619e-10  8.2577469803099970e-11  5.9535267793783851e-11  7.5128504134420396e-11  1.7944689564195043e-10  4.6921758371800649e-11  2.6478816372494732e-10  2.5510146229003796e-10  1.2871059679385497e-10  1.2887080594759217e-10  1.3102571289363029e-11  7.1332371199610940e-11  1.4675010406381041e-10  1.6889559434873731e-10  4.9843787385967397e-10  3.6544291540522263e-11  8.1869179646170355e-11  3.2708186680449217e-11  2.3877135758184135e-10  1.2563485288450965e-10  1.8649419564223938e-10  7.5326549516481834e-11  8.8573359675146539e-11  1.2060813089247567e-10  2.0309207435184623e-10  2.2467253134364751e-10  2.6084878006043240e-10  4.3993039617178127e-10  2.1612144725720828e-10  2.0974660220065185e-10  1.4575386448937191e-10  7.9736329801220901e-11  1.6930409932340533e-10  1.6585630534934698e-10  6.2508440030008472e-10  1.3101532279342811e-10  6.1526182115266816e-11  4.0813164260023035e-10  1.8904086127169166e-10  2.0871593568908515e-10  1.1763732565006446e-10  3.2070964141464312e-11  4.4758295379303050e-11  9.7856290672549694e-11  6.8659806504231406e-10  2.9314634002584701e-10  1.8073822269232033e-10  1.3725304180657648e-10  3.3632831896047497e-10  6.7342977276326537e-11  1.0920791283977052e-10  3.5701168171150770e-10  1.0216345781274205e-09  9.9240149171227253e-11  2.8235123596892187e-10  6.1293456936918830e-10  1.2302950541807018e-09  1.9701758795192228e-10  1.5277320541191432e-09  4.2033586437290156e-10  2.2615342680770479e-10  1.1652868635740966e-10  4.1413375917719562e-11  6.5461510085118609e-11  1.2724218177380823e-10  1.5618449188920880e-10  6.2959671131916198e-11  9.8234721164482704e-11  1.0745304781497543e-10  1.2666077941575837e-10  1.9181433419438692e-10  4.9910269439054705e-10  3.1934489071223179e-10  1.6703597127280686e-10  9.5768358855524555e-11  6.1467984773893943e-11  5.9338855269481320e-11  7.1286830451886881e-11  1.8339909239446168e-10  2.2916298550652847e-10  1.0619160908204009e-10  1.0624131367386055e-10  2.3814393728625729e-10  1.3659462703071581e-10  6.9501928063465116e-11  5.9217583406335658e-11  1.0538449355849862e-10  3.3911070825783291e-11  1.8886045275525688e-10  3.3101843287766433e-11  1.6128750990066364e-10  1.7975422545692178e-10  1.5412659463244984e-10  3.9987086107391736e-10  7.9297111612439582e-11  8.2160006936026034e-11  1.4620922497811995e-10  3.1456118032311038e-10  1.4435770191356264e-10  2.6345806379419230e-10  1.1061877220466986e-10  1.3723197479978800e-10  1.5954239513357614e-10  2.8395074481163412e-10  1.2747594290350762e-10  3.3678075297989322e-11  1.1893533525314620e-10  1.1265105604131596e-10  1.4758006705869642e-10  2.5382169521888787e-10  1.7175452947534901e-10  3.4764904494636408e-11  1.2982196332810481e-10  2.3573898685271850e-10  2.7675059357411778e-11  3.3180182267097527e-10  1.6410911588820044e-10  3.8816470058512139e-10  1.1325353413025043e-10  2.3992340551809067e-10  3.2590352184718054e-10  7.5432783688853062e-11  1.0575249494903860e-10  2.2023360935664309e-10  7.1470673882158378e-11  4.8502129636150292e-10  1.5887700565055281e-10  9.8331032209798632e-11  1.0972642747822901e-10  2.1034833797376112e-10  5.4677836649129891e-10  4.7696756447924086e-10  1.7820643308283555e-10  1.7424447013338667e-10  2.0977862600627747e-10  4.0184129375875139e-10  4.5268916212613455e-11  2.2721652500924963e-10  8.0885031002815890e-11  1.2431193212574250e-09  1.1784974881782346e-10  4.6006311439867134e-11  5.5120471612022127e-10  3.3628266854229957e-10  2.4796448776649792e-10  2.1498587413258558e-10  6.3760799697598760e-11  1.5372128604860577e-10  3.3683047045454319e-11  4.4143049040824554e-10  8.1597674175662863e-11  1.3539410576542408e-10  1.2845017707526723e-10  6.6251648210639202e-11  3.4901305035888964e-10  4.2481649565910737e-11  1.1736520621407671e-10  2.4710425603512145e-10  1.7933976573439862e-10  7.1612478347332312e-10  9.3114908040476537e-11  5.7922063660035691e-10  1.4779093063677565e-10  3.5435910529166409e-10  5.4946588932773921e-10  2.4390923565079845e-10  1.5471195779979751e-10  2.7255052671207958e-10  4.8093239746014488e-10  3.5188114239802585e-10  7.4614878596251004e-11  5.0007803956911079e-11  1.6399605320077115e-10  3.5793321087989523e-10  1.8836358608918005e-10  1.2582454374782926e-10  1.7024803725321152e-10  8.1396852087825866e-11  7.1606320621881953e-11  2.0034297674754971e-10  5.8233653977865673e-11  2.0889309958710633e-10  9.1020478624370910e-11  4.8387560170794457e-10  5.0350696332535597e-10  8.2406010229031371e-11  4.1163737478974716e-11  4.0456456869468385e-10  6.5091928745987723e-10  2.5906143715833602e-10  9.8624430046282288e-10  2.8895825434407647e-10  3.1837248672906382e-10  2.7198695620423155e-10  2.6616071198758090e-10  9.8040863399480859e-11  3.0501648217422007e-11  1.9550353547399835e-10  1.0394146765084355e-10  2.1510150373065309e-10  7.5664522164945178e-11  1.2563831923535383e-10  2.0391547785198167e-09  1.7717810377582495e-10  8.0627383130465439e-11  8.3516533882124425e-11  4.0113040256563753e-10  2.4296055654716735e-10  1.9015596940861925e-10  2.0841960950739775e-10  4.4664959043358071e-11  7.5854785923055195e-10  2.4371532908994829e-10  5.4091933412864977e-10  2.5556208236468511e-10  2.4027236828299277e-10  3.1249278099700798e-10  9.4230425609310442e-11  3.2483146173678571e-11  3.5120565850379216e-11  3.6880110782665608e-10  3.4397927659918609e-11  1.1412993637436495e-10  1.0250275569020854e-09  7.5068590931679327e-11  3.4739537536740662e-10  2.6314265833484489e-10  6.2201259586605095e-11  5.9699785655784340e-11  1.7897138933644909e-10  2.4613880866025957e-10  4.8242688900057584e-11  1.1287850205888628e-10  1.6168790048102338e-10  7.5387944996636303e-11  1.7205297106454643e-10  2.1217863674515671e-09  3.8382891737153217e-10  3.1983496252505132e-10  1.0695379790512563e-10  1.0784970058865135e-10  1.8593569827913977e-10  7.8507642956996404e-11  1.3473414832144177e-10  4.9834292182732804e-10  8.6665320300761406e-11  2.4208837645173732e-10  2.1803360283768428e-10  1.3927813970358393e-10  5.0071093222194095e-11  7.5561704330119378e-11  5.3486623365891418e-11  9.6813557467846224e-10  1.0634396920275970e-10  2.1931241549662526e-11  5.7197026781803290e-10  2.9885185823933624e-11  6.2311294524676961e-10  1.1613503241777882e-11  6.6246440656774227e-10  1.8137297996738412e-10  2.4940794117526074e-10  1.0445222883576970e-10  2.7835462377836282e-11  8.5280175730805120e-11  2.7644622438731624e-11  2.0650602715364855e-10  3.7339497040690312e-10  2.7048321687220051e-10  3.2640358069069649e-10  1.3399957671563152e-10  9.2671891601837654e-11  6.1648032670924272e-11  3.6134744954174991e-10  5.0421017975285191e-10  1.0650232326266297e-10  1.0070088385007404e-10  1.4656330265265687e-10  7.6241904995535546e-11  4.5261805780397108e-11  5.2322728992371648e-11  3.0277987843389461e-11  8.7814416242704513e-12  1.7329582341963391e-11  9.5197196938800986e-11  2.0439401605367676e-12  1.0053030963337086e-11  1.8603851855494753e-10  3.4960775793624639e-09  2.2090318307171533e-10  4.0933508573480690e-11  2.2112636759656526e-10  9.4082246902542819e-11  1.1315615876105730e-10  4.3935957402810241e-11  1.6389181415808756e-11  8.4384867530751078e-11  7.2721863007898571e-10  7.9054658169873147e-11  1.8400402535756968e-10  3.2478443060609186e-10  4.9252356686861448e-10  9.6061904779742880e-11  1.0168684703247549e-10  5.7955157126165512e-11  7.6580572950300116e-11  1.1002679278788733e-10  5.7537030669705729e-11  6.5318971968621833e-10  5.9264979607110887e-11  2.7843633312743968e-10  8.7354442870866534e-11  1.2746566473120432e-10  3.1331192564577558e-10  4.1489602540685405e-11  6.1647286539064531e-11  2.8357755889247062e-10  1.1659300136940497e-11  1.1412445188129592e-10  8.7516383816284677e-11  7.5867580666746740e-11  5.6373703534070441e-10  1.6190716336528061e-09  3.4059357360306685e-10  2.8885781472571245e-10  9.0462826393043250e-11  6.9948147333504112e-11  2.5559525769367275e-10  1.1819112704331148e-10  9.8489128013171172e-11  1.0387292489587029e-10  2.0098564856890532e-10  7.4391145306007438e-11  5.1893916953980777e-11  6.9131470672154952e-11  3.9331457314321449e-11  8.6445920168715008e-11  1.9145703616672999e-10  1.6315089132037109e-10  1.1184812198537366e-10  2.9009756932240548e-10  4.7013206666929598e-11  1.3664391354108010e-10  5.2302466351108226e-10  6.6115236986894639e-11  1.1606305948814270e-10  1.5802955626404011e-09  5.8727549948363478e-11  3.3878942094081147e-10  5.1342644743566199e-10  1.5820690272165253e-10  1.2805083085131662e-10  1.2610591171687157e-10  8.8082722663538220e-11  2.4681213677286400e-10  2.8672868440310506e-10  1.7817327105386393e-10  4.6859148090155377e-10  4.2495139438329650e-10  1.2241264220023427e-10  2.1159817234730574e-10  6.6771490929302017e-11  8.5014896379093703e-11  6.2476012665883752e-11  2.3992712081575183e-10  4.0109411981041042e-10  3.0837654855830253e-10  3.2714022573760935e-10  8.6212502361562625e-11  2.2708607004365751e-10  4.7844722384523517e-10  1.7379261905233594e-10  4.8382871210309762e-10  1.8211659718204876e-10  1.3780362421469424e-10  1.1133753619783376e-10  5.1096522970503294e-11  5.4189124420723803e-11  3.3569477026153141e-10  6.2982034318106441e-11  6.4691057723196986e-11  1.2996646601305323e-10  3.2268371358583499e-10  3.2275694159456413e-10  1.5768681802528312e-10  1.1714462740088800e-10  5.9285148320449671e-10  6.3185451588843985e-10  1.5994044915247015e-09  2.6796372176750992e-10  1.9803051530779691e-10  4.4273977766558399e-10  4.5777601158754432e-10  1.1679169735462306e-09  2.9787786589942317e-10  2.4619074780511986e-10  3.2662693779579487e-11  1.2929368439816027e-10  3.5755938559418224e-10  5.6837504219589806e-10  2.1540220348998174e-10  6.8042494325515485e-10  3.0606018052967585e-10  2.0708413418829152e-11  4.8366249460353483e-10  3.3028316075814834e-10  3.8682350699625732e-11  3.3432348260551019e-10  4.1335574027895901e-10  5.4544754852858368e-10  1.4599279372754871e-10  6.7821127820476195e-10  1.9574485546377911e-10  4.7094836729189710e-11  1.2723776764379628e-10  1.3295649979992238e-10  3.0835128516523756e-10  7.8042104737189239e-11  2.6829502351055073e-10  1.9347202129267997e-10  7.7379705663578265e-12  1.9010026454792994e-10  5.7738336372485105e-11  9.0081246522579710e-11  1.2400138706079784e-10  6.3147265925791865e-10  4.1287301467902805e-10  3.0441516906703763e-10  1.1689051104132965e-10  1.3297334635667812e-10  8.9964885308941044e-10  5.3986623763017606e-10  1.3536816030149298e-10  1.4222281729297982e-10  9.2854421014803025e-11  4.9199921619052019e-10  1.3989949370370515e-10  1.7524996365576136e-10  9.5568963256479383e-11  7.0112006734493796e-11  6.3431209513024383e-11  1.5053978088346625e-10  9.7251617926337528e-11  1.3111345969316984e-10  4.4224635904292951e-10  7.6040806776674376e-11  5.9852496398976360e-10  1.2843199554762108e-10  2.2483431889266003e-10  2.8293416973510134e-10  5.4981259044145414e-10  1.1561256549237213e-10  4.1011664595997506e-11  6.2287170214133790e-11  1.4166831842196511e-10  1.5824021449541627e-10  5.2199033376255116e-10  8.3264514757334167e-11  1.5985631103400004e-10  2.4908092900181778e-10  1.3746364365866213e-10  2.3711940570454529e-10  3.3454912673127975e-10  3.1352262264843820e-10  1.0615323684736912e-10  1.7584161940597290e-10  1.4976233299404880e-10  2.2919312001456161e-10  4.5581163092091685e-10  3.7554856523288849e-10  2.0231240477342803e-10  2.0640145378665878e-10  1.2502194136267610e-10  1.7047074493011928e-10  3.0066018505879711e-10  3.8267457801823574e-10  3.6251714882439316e-10  1.6596027874618865e-10  2.2000913475455224e-10  1.9453670836615576e-10  1.5378581860154838e-10  3.9970017897180390e-10  3.0965807247769073e-11  1.0602756634193889e-10  1.2709191713015698e-10  3.8134168322797768e-08  4.0957400784736238e-10  1.7760084495547178e-10  6.1177381330706081e-11  2.5845032918609635e-10  1.3888922073507099e-10  6.4253847124050521e-11  1.0551109790397254e-10  2.0327859711370536e-10  2.0655810924610011e-10  1.9399487174614219e-10  1.9032842961683628e-10  3.0846457843762883e-10  6.4700526666458903e-11  8.0204521370010552e-11  1.9291452925711134e-10  1.2299650968394988e-10  3.5072595081865872e-11  4.0534172325818573e-10  6.4397478482106397e-11  6.1609372757629025e-11  1.9369058987686605e-10  9.8490660690635266e-11  2.3746954315276404e-10  2.9454943495760198e-10  1.5144061657873259e-10  8.0335629688932929e-11  1.8645583734537829e-10  9.6201663135265768e-11  3.1735470874992758e-11  8.9316119206670866e-11  5.7374373246607436e-11  7.8142333344907261e-11  2.2466154200557706e-10  4.7046634233307233e-11  6.5891250365568610e-11  9.3874550903197513e-11  9.2993387212478857e-11  9.3898972286017014e-11  2.7072712463674288e-10  8.7488349021677428e-11  1.8319515623722278e-10  2.0425525493358997e-10  1.0035621077283731e-10  1.6059932186082327e-10  3.1568321009184731e-10  1.2415015530022246e-10  6.1573360443206020e-10  1.7246661688153510e-10  1.4961008692327408e-10  1.3920830481511185e-10  2.2767827130938530e-10  4.3602800199415918e-11  3.9539162193153013e-11  7.6872735781094061e-11  4.4068795913779983e-10  1.9955227223791593e-10  6.4534060117661102e-10  4.4522732794465276e-10  1.2175879818058779e-10  5.5105408102774550e-10  3.6499470083049083e-10  1.9005759258144425e-10  7.0702726442760426e-11  9.3363357240963548e-11  1.7435752881181018e-10  1.8818892214168646e-10  4.0499107059471459e-11  4.9102050025216175e-10  2.7851157436212379e-10  3.2791623444560744e-10  5.2120990210444221e-11  3.5667162906744810e-10  2.6524736345162852e-10  5.7726647809734909e-10  7.4032989667169582e-11  6.0907602307985358e-11  2.4076298945978973e-10  7.2562324283999981e-11  4.2069936970936575e-11  1.4708087544136938e-10  2.3870196983758381e-11  6