<?xml version="1.0"?>
<VTKFile type="UnstructuredGrid"  version="0.1"  >
<UnstructuredGrid>
<Piece  NumberOfPoints="4852" NumberOfCells="9430">
<Points>
<DataArray  type="Float64"  NumberOfComponents="3"  format="ascii">-1 0 0  -1 -1 0  0 -1 0  0 0 0  0.9999999999999999 0 0  1 1 0  -1 1 0  0 1 0  -0.5 1 0  -1 0.5 0  -1 -0.5 0  -0.5 -1 0  0 -0.1608775713298009 0  1 0.5 0  0.5 1 0  0.1967448868031411 0 0  -0.3408319118588314 -0.1765624252476654 0  -0.3375995317829717 0.2248813774578112 0  0.1741450725320444 0.347223399521776 0  -0.1858384836757474 0.5556983720024188 0  -0.5041756157210319 -0.5383147748862448 0  0.4907880337600183 0.2584930314466911 0  -0.06469793954588608 0.2016484563658512 0  0 -0.5061325913258391 0  -0.25 -1 0  -0.5620637469783486 0.5781775349310336 0  0.6619811601682341 0.6353276583389857 0  -0.1758745137285509 -0.5386229502042816 0  -0.539542936437597 0.02551575365697614 0  -1 0.25 0  -0.2067025752599972 0.02385277927297451 0  -0.6550674143337624 0.3101071564991815 0  -1 -0.25 0  0.03893212254780284 0.5925375888484636 0  0.1954284870884572 0.1295458092479739 0  -0.1359497475532699 -0.2206208731656488 0  0.371450276304796 0.6156750031396991 0  1 0.25 0  0.5355652144809806 0 0  -0.75 -1 0  -1 -0.75 0  -0.6452428583496345 -0.3238308849080858 0  0.25 1 0  -1 0.75 0  0.02757118475249542 0 0  -0.25 1 0  -0.75 1 0  1 0.75 0  0.7499999999999999 1 0  0 -0.02898318711980711 0  0.05431942259032461 0.1428109065887079 0  -0.07790481222633938 -0.02789100983867568 0  -0.7013710879140749 -0.1327613953689114 0  -0.3214158539750925 -0.3482961596162893 0  -0.3411632027665998 0.438121042998084 0  -0.1004667788361031 0.7647176931174795 0  -0.3841572930753517 0.7030010444671907 0  -0.05530550372187992 0.3997632579276555 0  -0.07920075567240596 0.07220707607570269 0  0.3593046080556938 0.370871979881997 0  -0.7164936636290211 -0.730603942365086 0  0.4121202939792087 0.09055834221744204 0  0.6900557480544098 0.1926002044219066 0  -0.7475145093532308 -0.5278582015615519 0  -0.3881142071488816 -0.711110706206264 0  0.7217049066888032 0.4201073186914581 0  -0.7762698513474505 0.09718227893897587 0  0.1968829638886777 0.6994132280769302 0  -0.1994184599139582 0.2891708748188649 0  -0.7993047263810868 0.5779970548314576 0  -0.7171354187709359 0.7667533854686877 0  -0.05284111414904892 -0.3740608827339983 0  0.5852719916574552 0.8171623421517143 0  0.8207743129797556 0.8067231194172126 0  -0.1034403673591881 -0.6973655645292125 0  -0.5153017553887232 0.1632148985421226 0  -0.2024371199246642 0.12601840718032 0  -0.3598895667119689 0.07557360895942293 0  -0.3656577967536741 -0.05264408524286428 0  -0.4974784677076822 0.3958700092204188 0  0.3749999999999999 1 0  1 0.125 0  -0.01188811878883095 0.07148117081699604 0  0.06205376016554934 0.3927751414533838 0  -0.1714576882356932 -0.1229375666915795 0  -0.243536305897135 0.7740099546114088 0  -0.6249999999999999 1 0  0.5337344623585683 0.4558424362059426 0  -0.5766477156860965 -0.8303854745233097 0  -0.2573590108731419 -0.7839117121280614 0  -0.3198439874517578 -0.509279245938292 0  0.8340711157666499 0.5964684905009854 0  -0.5495251948291988 0.7910238248672327 0  0.125 1 0  -0.06750257523192096 -0.09361812859188431 0  -0.4948280665734625 -0.1437818723802093 0  -0.875 -1 0  0.02967008285871674 0.04174374866679759 0  1 0.3750000000000001 0  -0.875 1 0  0.05717916966257906 0.7944365514604581 0  -0.1956872626919738 -0.3746312904587075 0  -0.07336838795242778 0.5718453587451185 0  0.2366808325296502 0.5190493573340195 0  -0.7926296130919661 0.2299917789838264 0  -0.4952466233293647 -0.3900031312738613 0  -8.804406023589669e-05 0.2719500380618354 0  0.5104210098339993 0.6415458894716619 0  0.3992528325766533 0.8080584358831798 0  -0.8065217798557868 0.42504956555908 0  -0.06403247658289304 -0.220854477502676 0  -0.7099691411482484 -0.01419531440241114 0  0.09070272525485276 0.05272184098486062 0  -0.4782532132977632 -0.252102531069796 0  0.7238655408514446 0.08331246330043833 0  -0.8085838597338016 -0.4116883060443375 0  0.3378978478416328 0.1545093654055416 0  -0.7945847097960709 -0.251236526701915 0  0.2366569118497211 0.2554301051697977 0  -1 -0.8750000000000001 0  -1 0.875 0  0.1845217589872003 0.04823997255750896 0  -0.2472729835756855 -0.2300789297329132 0  -1 0.3749999999999999 0  -0.1714349043533504 -0.04198440029672398 0  -0.6494724750956029 0.4683004205362319 0  0 -0.07736776745332727 0  0.08047229489478122 0.260770388056847 0  -0.375 1 0  -0.21767299517626 0.4255776576024994 0  -0.1205142533984771 0.1506324048084738 0  0.1332449291834454 0.5552379883505398 0  0.1321662493284443 0.1946124797105855 0  -0.4756098781701742 0.270286728098639 0  -0.04633780048360778 0.01394190264875469 0  0.8512996952937619 0.3712232938104419 0  -0.9999999999999999 -0.125 0  0.285868167545094 0.8373386964341765 0  -0.1113134076802304 0.3138477210298394 0  -0.125 -1 0  0 -0.7575037395175259 0  0.07821397079968176 0 0  -0.9999999999999999 -0.3750000000000001 0  -0.375 -1 0  -0.625 -1 0  0.7474787146812756 0 0  0.625 1 0  0 -0.2918843213980812 0  -1 0.625 0  -1 0.125 0  -1 -0.625 0  0.3284075310660084 0 0  0.004929205892015135 0 0  -0.125 1 0  0 -0.006571003003944568 0  1 0.625 0  0.9999999999999999 0.875 0  0.8750000000000001 1 0  -0.5632904521947504 -0.6770717375219194 0  -0.004791571726710092 0.1608136710048894 0  0.3627284347977112 0.2644465532784535 0  0.6531317339296502 0.2953983075586378 0  -0.8549401847093059 -0.6472417218026584 0  -0.8634437645712985 0.7871517730339266 0  0.4308790742931291 0.5028889335576878 0  -0.399274569101663 0.8559562389275884 0  -0.7790977552528781 -0.8751666302504478 0  -0.8708210270034743 -0.7847950318068602 0  0.1541943030857124 0.8426790517689161 0  -0.6591001715756232 0.1531871616821281 0  -0.5781253206063031 -0.06434844141366494 0  -0.8546992567432244 -0.06272869842781525 0  -0.2969081784560245 0.5629575642031034 0  -0.4247203348808589 0.5706955845971577 0  -0.3769278193840195 0.3318348323362553 0  -0.6186685642096549 -0.2170140253361918 0  -0.2732456404074524 -0.09052818695968133 0  -0.6404682445368604 -0.589384812118396 0  0.8596665040781698 0.26670869657495 0  -0.03287422521745325 -0.03300878402216943 0  -0.05499016540055358 0.1150024772941819 0  -0.1344032476815268 0.4329304214954413 0  -0.1201931400109977 0.03251584123104508 0  0.5378738246149611 0.06509024430971329 0  0.5794967942323502 0.3609965683550907 0  0.6920339239236777 0.7757641430166244 0  -0.7935112703158345 0.881172724019391 0  -0.6434348322409243 -0.4301277048852487 0  -0.1164499961584837 -0.3980805795885209 0  0.8720836294479419 0.4897193043476674 0  0.07613641052680906 0.09429991937408359 0  -0.6650871815555685 0.8681286948355009 0  0.4549952379360218 0.3522383202560762 0  -0.0263769129091528 0.0359475293238188 0  -0.4091936154140287 -0.4411959839900265 0  -0.361797481230957 -0.2697950526980243 0  0.3238720511841774 0.4831739319240022 0  -0.1967653584046556 0.2021744284695111 0  0.7059319619770077 0.5325494085955099 0  0.2621183512662097 0.3574236964938871 0  -0.3771304213473593 -0.8520057441009216 0  0.1091875272584824 0.682939671424905 0  -0.2850336183488837 -0.6127590782829541 0  -0.4417581732548228 -0.6208410964396188 0  0.2964688768269602 0.6933573790303832 0  -0.8750877176072224 -0.1750650962860056 0  -0.1804964142660749 0.8551331482626391 0  0.4550408151324954 0.16456319688729 0  0.2804724854804964 0.04702711412927228 0  -0.1430507260273481 0.6582959417998601 0  -0.0117196081258736 0.709449440995194 0  -0.05359088338597402 0.8752297375679216 0  0.005071437728711669 0.470936343012153 0  -0.3885181706225365 0.1540731056303633 0  0.5493556912785457 0.1341825554790454 0  -0.4769168379661807 0.6830339058834678 0  -0.8517682788038022 0.3334492877892594 0  -0.09141003296894694 -0.5371298043792548 0  -0.03060065643273696 -0.552827682301289 0  -0.213254679477863 -0.2887066980609212 0  0.8684204799898915 0.1519566822618479 0  -0.1684422742848395 -0.6616383722993968 0  -0.8893827379693617 -0.5290743694891484 0  -0.2826546902110746 0.3391643441130599 0  -0.6769942183433036 0.57494849161086 0  -0.8976936193080238 0.5318819005125682 0  -0.898468809828748 0.6612060779232075 0  -0.6450421331027986 0.07262527396346424 0  -0.8593091567128084 0.02856356014656432 0  -0.8883775678244827 0.1682103117293128 0  -0.130734455346838 0.2297312555073673 0  0.1604911990701543 0.4474223773731762 0  -0.04350502168028397 -0.1259474688038492 0  -0.7539523104147888 0.6708094190840375 0  -0.6032740623579036 0.6987340359566688 0  -0.2551609611328385 0.07885989666779425 0  -0.2502234543859983 0.6495501263211781 0  -0.02749670826078309 -0.006417424873898651 0  -0.4950983564719431 0.8771197752525622 0  -0.4778491353482484 0.4914479113144782 0  -0.2913172961309852 0.1446231257019639 0  0.002329109743892575 0.02369471727942327 0  0.7799041108426162 0.6850131598298581 0  -0.4705798676454966 -0.8250002184968087 0  0.2723182761696052 0.1961009035299086 0  -0.1472943055402108 -0.8631208337551649 0  -0.06454396726971108 -0.829375554151064 0  0.4439193270895369 0.707188743853653 0  -0.1169606020405104 -0.2890335257078566 0  -0.2655340248391337 -0.02634566162040409 0  -0.8940304592121142 -0.89676840680394 0  -0.5737847495397138 0.2380004707572287 0  -0.4770410605528826 0.08794816313552344 0  0.4917140820192393 0.8265624238077856 0  -0.02813145746773731 -0.2602762566398621 0  -0.3105749008997428 0.8754700042738826 0  -0.143561984539764 0.08086841755308218 0  -0.469973390900048 -0.03506655064363838 0  -0.3887308902459046 0.01212674255771479 0  -0.2924685478923781 0.02765981740580994 0  -0.3853644038629694 -0.1210080399302032 0  0.8882874297303203 0.6990156832137282 0  0.7931470180788273 0.9110967763125096 0  0.5768361391445657 0.2092576793094285 0  -0.5604392990934779 -0.4703242880461374 0  0.5995111276708779 0.7073495834981126 0  0.6788173217530067 0.8887626143352236 0  -0.05146217811957175 0.3041021418058704 0  -0.9022168963296155 0.9047168834798957 0  -0.1277813445709222 -0.06740832845412131 0  -0.1688683302998373 -0.18333374
[...]
<PointData  Scalars="w"> 
<DataArray  type="Float64"  Name="w"  format="ascii">1.7428363041337000e-10  1.0329617455765389e-11  4.4596126062586761e-10  2.6203934380572273e-09  6.2489694114149394e-10  1.5708586733810988e-12  8.6713244570362354e-12  7.4690525787688892e-11  4.0336725118180034e-11  2.1101032455295161e-11  1.0569502887859594e-10  9.4889359692355517e-11  4.0432012276564397e-10  2.7225703591793316e-10  9.0887778615298621e-12  5.3242612798988237e-10  9.1336277388858854e-11  7.2182264138813216e-11  1.3061373446519544e-10  3.5278981386113989e-10  6.7157284738620420e-11  1.0536249688533958e-10  5.7950408531371240e-10  1.0629778551284568e-07  5.8317331766333995e-10  1.0701245820688913e-10  8.7712168676381682e-11  1.7221983106296198e-10  7.6595667052208951e-11  1.8936048985123116e-11  4.7087435021622676e-10  9.7114448999713089e-11  2.4049022577940931e-10  1.7869770256612101e-10  4.5902632980612252e-10  2.2722826123149135e-10  7.6843636868777168e-11  4.7247568859308638e-10  5.9078746359447162e-10  3.1086300895025594e-11  5.1687675919672530e-11  1.0734601606671962e-10  9.1370865147103905e-11  1.9688884565153745e-11  1.0637921878549583e-09  8.8374378194514825e-11  3.2158878307913563e-11  9.4085980559877431e-11  1.2740164675360083e-12  5.9353284528161671e-10  2.2383352793751362e-10  2.1615029457844575e-10  8.2079261150240668e-11  2.5293633814565079e-10  2.6113122324119661e-10  1.9969508037377135e-10  3.5002793107361386e-10  8.9316918463210182e-11  5.8920367409995421e-10  2.5146483540394167e-10  3.0696390834731581e-11  3.1719198852124011e-10  3.7745812899722735e-10  1.4361392926574591e-10  5.3775858269329763e-11  1.7719765905421974e-10  7.0303946835537278e-11  1.7495495064035673e-10  2.3275026512768010e-10  4.5476306556642457e-11  6.2952224485327122e-11  4.3869588508967658e-10  5.5597488548397590e-11  8.6184252211259310e-11  1.7093598173086291e-10  1.6966767800975671e-10  2.5942460265824213e-10  2.8999037335460455e-10  1.8265266994792093e-10  1.9205476100907823e-10  6.4486444796435980e-11  2.5217283595781382e-10  2.6744273239672783e-10  2.0055462208106798e-10  2.3513750115637689e-10  1.2297716518004686e-10  4.6260426817370778e-11  1.0943868333975469e-10  9.3109273255601306e-11  2.5673844074114867e-10  6.9562908065176483e-11  9.7765898979038164e-11  7.6979697875772577e-11  9.3461827326845227e-11  3.9135489726113324e-10  2.0908792182902433e-10  2.5172050288247831e-11  6.6320532981179346e-10  2.5573270468898548e-10  3.1445693152030478e-11  2.7234957811257752e-10  4.1429069258613629e-10  7.1401994126471710e-11  9.7247837669812899e-11  1.5625146858584850e-10  6.4021195108979922e-11  2.7480505633182810e-10  8.2390076867515572e-11  1.4349886681005379e-10  6.5074990309899080e-11  3.1286311824630672e-10  2.4357890541491884e-10  2.3516321809703576e-10  6.4323437518252682e-10  1.2126973487515393e-09  1.5008601252497353e-10  1.6700623467634455e-10  1.0292779019022476e-10  4.5976081072658921e-10  2.5497877091082132e-11  2.5645899505163311e-11  2.7990612365851966e-10  9.2131732839256222e-11  6.0503988253917021e-11  5.0612636818360531e-10  5.6935473345417470e-11  6.0192310356579497e-10  1.1962401777353333e-10  7.6654022698158192e-11  8.2752946092389088e-11  3.4543052580744716e-10  1.7201579608481904e-10  4.6694540878150076e-10  1.3481798441276388e-10  6.3088245025027275e-10  4.3383911943346899e-10  1.0860786031024427e-10  5.1569131066117676e-11  1.3069408554823852e-10  2.6168470747267192e-10  4.2908239020251597e-10  6.1415891055974152e-10  9.1142340222908879e-11  1.1854323567199457e-10  6.7681856956120910e-11  6.5897470906519010e-10  8.4061770765978429e-11  3.2591247558160524e-10  1.4591920067169129e-10  1.2382914709194090e-10  1.9777918304973167e-11  2.8512613228865216e-10  1.5930454736572640e-09  5.7149152463822432e-11  9.7381023617208213e-10  7.7539773168020224e-11  2.3822579346500353e-11  2.3879894690971369e-11  1.2100912386754821e-10  5.6685240126099145e-10  4.4974506573942958e-10  1.6097287444455349e-10  1.1265377897821170e-10  1.6539327035308021e-10  1.8612035184601027e-10  5.8356161193832050e-11  7.6348012699880001e-11  2.0284611453512646e-11  5.9529182696493165e-11  2.9045406947378998e-10  9.2895288163701167e-11  1.0537048903319527e-10  8.3400148659881549e-11  9.5437451901034378e-11  5.3277473488250547e-11  9.5726691864116668e-11  4.5734414501713055e-10  5.6277149871485376e-11  1.6412419671294070e-10  1.7231782083493609e-10  4.7118893661868453e-10  1.9737756281733077e-10  2.8629250493206329e-10  1.4410994477369511e-10  1.4432189923767036e-10  1.4659538506181056e-10  2.0846704018668673e-11  2.8297493783687704e-10  6.4586133465926707e-10  2.5219971326021959e-11  2.5482402218754445e-10  8.7611435690961145e-11  1.5722672023111290e-10  1.1313300960888689e-09  1.3791906505110745e-10  1.6435138782563938e-10  2.3175574349860632e-10  2.8894782491577176e-10  1.0446964342088441e-10  2.0440869456236169e-10  4.1497598309016590e-10  2.1554277431959811e-10  2.3775646264404329e-10  1.0972610568084490e-10  1.1116749930110811e-10  1.1243345633225464e-10  7.0338242404239358e-11  2.0853352721546574e-10  8.9351355666646543e-10  7.7660194762642445e-11  1.0813054443747716e-10  7.7650781620985207e-11  9.6693742505277803e-11  1.6291075208968086e-10  3.7774323705847826e-10  7.7970008395658564e-11  8.3411745330364452e-11  7.4140891725186341e-10  7.5885004897853217e-10  2.9475942615124335e-10  2.0059127520794656e-10  8.0341156557671856e-11  7.9987762173866774e-11  3.3434719310153685e-10  5.7946696032999379e-11  8.1693266956314107e-11  4.9767293591522873e-11  9.2921780845642115e-11  4.1004629234348928e-10  9.0188558350201875e-11  1.9882783552864552e-10  1.6493075327457964e-10  9.0737835866081419e-10  6.0925744065064827e-11  1.9591906416623149e-10  1.1624651529851058e-10  1.1102583113285776e-10  7.5584519677928993e-10  7.3735364234190116e-11  8.4170684096863754e-11  1.1824100001186963e-10  1.1317261466511992e-09  4.0287659348738115e-11  7.7449534785236278e-11  2.8116234998013501e-10  2.5750847815069311e-10  3.4010765949876298e-10  1.7881191790768502e-10  2.0600341993946909e-10  4.0465861672580958e-10  2.9069917440854557e-11  1.0470097059345203e-10  1.2788863220768688e-10  3.7202362661442574e-11  2.6641160052493637e-10  4.3979129589744222e-11  3.3594020390048544e-10  1.3703718915742025e-10  1.1072187663926101e-10  1.9304048895764753e-10  5.0243153551018081e-10  7.2080463957507287e-11  2.6404912896000190e-11  1.4504214209947799e-10  8.1879823930571456e-11  5.8450446995707109e-11  7.4275592008035196e-11  1.8009169313824376e-10  4.9349648779500578e-11  2.6524662587657772e-10  2.5559721746621028e-10  1.3057526959003422e-10  1.2961903819096244e-10  1.3294329668499180e-11  7.1852603132312954e-11  1.4775165672826031e-10  1.6671095756371099e-10  5.0405991047667195e-10  3.7126151853153463e-11  8.1953414682766735e-11  3.3404452913610557e-11  2.4209974597093248e-10  1.2536743526924225e-10  1.8265034074009814e-10  7.5436145768161642e-11  8.6322721924122076e-11  1.2059179133380481e-10  2.0206085705575481e-10  2.2377470830073999e-10  2.6171881755666116e-10  4.4059566880498996e-10  2.1427969607827865e-10  2.1110939598831615e-10  1.4418087497477165e-10  8.0325797057458672e-11  1.7183935401831334e-10  1.6926428742750637e-10  6.3051150852341998e-10  1.2778894358031895e-10  6.2396023587703357e-11  4.1036963778736258e-10  1.9221933114784943e-10  2.0489720889594117e-10  1.0968511742499836e-10  3.1996039992669106e-11  4.4666062465440431e-11  9.7771131927957063e-11  6.8820871165875344e-10  2.9462888391394943e-10  1.8110542226152870e-10  1.3551461225290373e-10  3.3380301359958153e-10  6.7431622143545627e-11  1.0952016457923111e-10  3.5237734136936428e-10  1.2072261455748114e-09  9.8611353014705457e-11  2.8398087030032114e-10  6.1929312326577811e-10  1.2481143796602722e-09  1.9897231017380764e-10  1.5508211109458597e-09  4.2215219369343435e-10  2.2592439554617083e-10  1.1807821692646904e-10  4.1453623221163165e-11  6.5554779395254977e-11  1.2686571755625161e-10  1.5699338683111103e-10  6.3554477461569802e-11  9.9461188653988766e-11  1.0738133777127180e-10  1.2849970709737543e-10  1.9408863490521688e-10  5.0535910612030855e-10  3.2179214271610193e-10  1.6546964541293124e-10  9.5758402705989640e-11  6.1620699728190809e-11  5.9210685259804386e-11  7.0179858833535407e-11  1.8165155998715384e-10  2.2285264653412694e-10  1.0467924385062741e-10  1.0398822015563220e-10  2.3731203243979008e-10  1.3564259549501728e-10  6.8357465945141687e-11  5.9620586968320035e-11  1.0584947424624156e-10  3.3997359230973887e-11  1.8333049000026461e-10  3.2261630797492504e-11  1.6121117572399936e-10  1.7898170756975409e-10  1.5242601809533580e-10  3.9190837590746919e-10  7.9844411006032421e-11  8.3170604870043052e-11  1.4265902565955207e-10  3.0375835136824492e-10  1.4478469957415374e-10  2.6329900620752619e-10  1.1088935409301358e-10  1.3426155976447211e-10  1.5402309592681205e-10  2.8745418776274127e-10  1.2819179900227124e-10  3.3366324411040090e-11  1.1531346314386263e-10  1.1188005780022107e-10  1.4714638757634837e-10  2.4651620269989185e-10  1.6768163951403051e-10  3.4755678350625044e-11  1.2952769606372509e-10  2.3173681321842498e-10  2.9191294899983197e-11  3.3017164436583247e-10  1.6523734495376185e-10  3.9508174967148717e-10  1.1335309529002572e-10  2.3425569673154848e-10  3.2583012806120069e-10  7.5130231090417718e-11  1.0512982332486438e-10  2.1601298512040606e-10  7.1808997160023212e-11  4.8327773264026139e-10  1.6142658693679022e-10  9.7347381851125513e-11  1.0759492866628112e-10  2.0712421558636317e-10  5.4572740213478745e-10  4.8392454352613052e-10  1.7726604937779183e-10  1.7027241903315682e-10  2.0568505485005057e-10  3.9924096057528720e-10  4.5640082276568929e-11  2.2359733759742664e-10  8.2005040753218739e-11  1.2453576274433976e-09  1.1857061653563318e-10  4.6142318440913105e-11  5.5973599260319746e-10  3.3353106356364664e-10  2.4770488370106916e-10  2.0715341745670260e-10  6.3845286797926153e-11  1.5292817065228984e-10  3.3031221006709729e-11  4.3955816586622330e-10  8.1337768466245178e-11  1.3707617432890124e-10  1.2722480776190843e-10  6.5578677154054415e-11  3.4756308938205679e-10  4.3046776479239369e-11  1.1614463968621192e-10  2.4686468002465999e-10  1.7984498621725769e-10  7.2033159412692069e-10  9.1457304062036059e-11  5.7881634640745797e-10  1.4445494714163438e-10  3.5982760364875391e-10  5.5725536764009884e-10  2.4526970631727944e-10  1.5546856976907544e-10  2.7436036203944443e-10  4.8650597747870509e-10  3.4705981749258391e-10  7.5500853533559095e-11  4.9068623046713356e-11  1.6531528631214238e-10  3.6100376066009726e-10  1.8319585698948083e-10  1.2476485279831545e-10  1.6863558513513725e-10  7.9866099633499899e-11  7.0216490633844690e-11  1.9876265817812116e-10  5.7439566289073548e-11  2.0638375336069133e-10  9.0520505085514140e-11  4.8422030802700926e-10  4.8453776288009112e-10  8.1666965135852538e-11  4.1980433894755302e-11  3.9837686557456329e-10  6.5492850778888885e-10  2.5945821651936572e-10  1.0014231229110195e-09  2.9042439078346094e-10  3.1939393456911306e-10  2.7647013709579883e-10  2.6922723417433540e-10  9.7260121494438533e-11  3.1114999908713221e-11  1.9392186980451455e-10  1.0537441328349857e-10  2.1396386496440089e-10  7.5383594330034902e-11  1.1954821778266595e-10  2.0763916112932543e-09  1.7775312008055889e-10  8.0465457726536761e-11  8.1494173042699651e-11  4.0233936492641928e-10  2.4457590940467902e-10  1.9016231870883513e-10  2.0897646823989157e-10  4.3947206887579968e-11  7.6810848199399579e-10  2.4209987150642231e-10  5.3428380267086984e-10  2.5067660369151688e-10  2.4033810715124196e-10  3.0867903987859251e-10  9.4489207828258961e-11  3.2827162591761987e-11  3.5778622267277867e-11  3.7382485675082204e-10  3.6183647768140651e-11  1.1602981098880717e-10  1.0213240148316048e-09  7.4873935549995981e-11  3.4457602614235921e-10  2.6078106367900589e-10  6.1529495479707130e-11  5.9631733736352993e-11  1.8252256930800195e-10  2.4701683944998851e-10  4.7179255019112197e-11  1.1404652956175455e-10  1.5869854233691775e-10  7.5815830126212161e-11  1.6757879352126870e-10  2.1421112652267272e-09  3.3239275108253977e-10  3.2090598681074456e-10  1.0760381259351304e-10  1.0568865816289756e-10  1.8477738933571153e-10  7.8783326411502741e-11  1.3415959339509320e-10  4.9869524658070395e-10  8.7040525484028913e-11  2.3867946332382286e-10  2.1055228178192681e-10  1.3911476519318126e-10  5.0267860693724543e-11  7.6563627053504910e-11  5.3985727656467725e-11  4.0036758139157040e-10  1.0603013691241495e-10  2.2034165088909360e-11  5.7372369129921036e-10  3.0183872429884238e-11  6.2311450819305597e-10  1.1744057193441573e-11  1.0338690970273982e-09  1.7575425328437172e-10  2.5760321421842668e-10  1.0346462588992280e-10  2.8730393214467242e-11  8.3167995379596125e-11  2.7783076619307519e-11  2.0287415446330645e-10  3.7344870620175923e-10  2.7137015702105642e-10  3.2882957335538830e-10  1.3406925562138092e-10  9.3934448015942628e-11  6.3403996459395241e-11  3.6496307740925271e-10  4.9926266831370370e-10  1.0481083826413750e-10  1.0011225825537090e-10  1.4648178381449835e-10  7.5093767119676574e-11  4.5732701106585629e-11  5.4611492742866404e-11  3.2160352175765332e-11  8.8001798485502400e-12  1.7702381192327385e-11  9.6416940044653154e-11  2.2438783609021195e-12  1.0995614209104910e-11  1.8565810153833030e-10  3.5160064810127592e-09  2.2136943588498916e-10  4.1632454771472820e-11  2.2098982332932468e-10  9.1729973734607554e-11  1.1186997095558085e-10  4.3234637858996244e-11  1.7070412314060275e-11  8.7875638866016329e-11  7.4345416980003076e-10  7.9185883192791148e-11  1.8309482883284825e-10  3.2291751784774938e-10  4.8172779927860811e-10  9.6622139822620209e-11  1.0159262916255029e-10  5.8158283940317104e-11  7.7451643877801946e-11  1.1077362801463824e-10  5.5985883290673180e-11  5.9433254597083399e-10  5.8852985809510930e-11  2.8072820235985382e-10  8.8406917361199639e-11  1.2747909438523943e-10  3.0638007317805204e-10  4.1540194756664061e-11  6.2723000800833557e-11  2.8060349503799530e-10  1.1724001933614346e-11  1.1249173180728784e-10  8.8347655809810615e-11  7.6808648605595224e-11  5.6551619906766111e-10  1.6223760530432344e-09  2.7172486217149191e-10  2.9039281059596618e-10  9.0696835920323498e-11  6.8321383037667020e-11  2.5282558313220671e-10  1.1597130311974548e-10  9.7154044197781615e-11  1.0433241679389629e-10  1.9588574432908673e-10  7.3224804035595160e-11  5.1653902065328858e-11  6.9683347611092355e-11  3.9154501138866457e-11  8.5157482675324302e-11  1.9331950732438802e-10  1.6299310874072616e-10  1.1241754483477996e-10  2.7253301116073107e-10  4.6224859655920793e-11  1.3595648579339550e-10  5.2828242163775432e-10  6.6264368909102293e-11  1.1867186508778064e-10  1.2692303961109536e-09  5.7430203806782187e-11  3.3936467508024685e-10  5.1973854579833500e-10  1.5918725054084160e-10  1.2817504527014713e-10  1.2598927604801307e-10  8.9160228005187581e-11  2.5034198285174923e-10  2.8831386321946898e-10  1.7651062565829617e-10  4.7512741857281946e-10  4.2516732747833870e-10  1.2039102894450851e-10  2.0831561295370296e-10  6.5540076824864306e-11  8.3895058887733380e-11  6.2388978988304263e-11  2.3890035282861765e-10  4.0130596381259428e-10  3.0857957481496492e-10  3.2600714097016454e-10  8.5614314557699785e-11  2.3087969024520404e-10  4.8624053066877175e-10  1.6972400748013567e-10  4.7531889700170554e-10  1.8265786449345718e-10  1.3723780173749172e-10  1.1122974594451028e-10  5.0689167153054779e-11  5.3289765846558712e-11  3.3645692796497260e-10  6.2437335175789567e-11  6.3946402813749526e-11  1.2789430955516530e-10  3.2219030059126022e-10  3.1729787815858930e-10  1.5800253908051592e-10  1.1756013571323924e-10  6.0172779955332027e-10  6.3414880326923012e-10  1.6298651602812712e-09  2.7107233153587222e-10  1.9959715606969384e-10  4.4608102650890202e-10  4.5706901838979231e-10  1.1909052526602045e-09  2.9915802996738834e-10  2.4225893578700725e-10  3.3070334339214847e-11  1.2759279801014206e-10  3.2089463906150684e-10  4.7640547156842749e-10  2.1121257830218274e-10  6.6652100577993818e-10  3.0041276388142166e-10  2.1486006444682833e-11  4.8496068262152394e-10  3.3268205404310742e-10  3.8830130863315494e-11  3.3628447475828105e-10  4.1392522950621431e-10  5.4814092098636738e-10  1.4617308573368644e-10  6.7317413537269468e-10  1.9593711545447962e-10  4.7286543168490720e-11  1.2780627892838544e-10  1.3251875948156011e-10  3.1717074627946685e-10  7.7805630197953909e-11  2.6070156466979424e-10  1.9539380237800000e-10  8.1324096219321433e-12  2.4086266553504215e-10  5.7190407318440658e-11  8.9961485493267487e-11  1.2260117002788406e-10  6.4232256670832200e-10  4.1349852062765554e-10  3.0867224054169921e-10  1.1722399920652751e-10  1.3085667750456752e-10  9.1713275958154722e-10  5.4980591891601973e-10  1.3349505182363338e-10  1.4235313225414199e-10  9.4104807515179581e-11  4.8999457784919621e-10  1.3647979791548145e-10  1.7263891706238513e-10  9.4003574509055680e-11  7.0330287812540778e-11  6.2969355824152498e-11  1.4770564360883871e-10  9.7866386205089133e-11  1.2765669127706338e-10  4.2152256014683468e-10  7.6358777917092942e-11  6.0060105215500712e-10  1.2338344686479919e-10  2.2553659037799320e-10  2.7619011750041102e-10  5.5873059167643623e-10  1.1651381347402941e-10  4.0084022245522180e-11  6.2394350881318803e-11  1.4254750909068900e-10  1.5910391294120548e-10  5.1006482937997158e-10  8.3249898281332866e-11  1.6057350122805283e-10  2.5106544915101634e-10  1.3857536431764161e-10  2.3484903056548134e-10  3.3551246431520817e-10  3.1393127170997815e-10  1.0300138452782747e-10  1.7355393344830103e-10  1.4853310922380192e-10  2.2806832402778847e-10  4.3960649709250483e-10  3.7404482609991950e-10  2.0151148280866022e-10  1.9993446003816763e-10  1.2418962684012621e-10  1.7108141805440467e-10  3.0223016952678872e-10  3.8099055500514551e-10  3.6232655266397659e-10  1.6718719943497498e-10  2.2118079646497303e-10  1.9598639644153971e-10  1.5135569635199945e-10  3.9672599220111821e-10  3.1681383186267229e-11  1.0494173964869970e-10  1.2675264226649600e-10  9.7253173435267702e-08  4.0797241636380353e-10  1.7364181801318868e-10  6.0980830307572396e-11  2.5828458156676538e-10  1.3617315633449516e-10  6.4023500635747619e-11  1.0462834013348621e-10  2.0283132629688527e-10  2.0546177225168689e-10  1.9434040434053100e-10  1.8717048927331904e-10  3.0961972282139401e-10  6.4701673806525418e-11  7.9914900359016261e-11  1.8978256195850884e-10  1.2285037585977149e-10  3.4785625000397368e-11  4.0108880211912458e-10  6.4335226691692349e-11  6.0910320294674928e-11  1.9396743233764625e-10  9.8739667323579906e-11  2.3555624217416283e-10  2.9023324095797224e-10  1.9344414324889539e-10  8.0750843118018829e-11  1.8614948577355956e-10  9.6311227436233631e-11  3.1901791092597810e-11  8.9062357563102140e-11  5.8246285168180036e-11  7.9304463983937489e-11  2.2801503284658025e-10  4.6537329863047188e-11  6.5464977893780048e-11  9.4519693382476086e-11  9.2531478065308187e-11  9.3842043033222578e-11  2.5280719031834700e-10  8.7992264981037356e-11  1.8453312541383078e-10  2.0360490113521643e-10  1.0009848983963283e-10  1.6099845810373343e-10  3.1512898156724570e-10  1.2373892589680647e-10  6.2066391645500705e-10  1.6949244720361317e-10  1.4913832905715764e-10  1.4014568729298435e-10  2.2311184433690722e-10  4.3649427618893333e-11  3.9243239282332809e-11  7.6161571903374695e-11  4.3134650303257496e-10  2.0221763445184120e-10  6.4775925070091585e-10  4.4678158142010961e-10  1.2077026584485385e-10  5.5182371513835813e-10  3.6286298457614463e-10  1.8735013220231202e-10  7.0680191929041154e-11  9.2810506558900344e-11  1.7551702617274866e-10  1.8902240675255128e-10  4.1314184935226675e-11  4.9243076701940960e-10  2.8269804500876630e-10  3.1402644314942387e-10  5.2075834864216172e-11  3.5075029501382170e-10  2.6779495634981608e-10  5.8656181232923420e-10  7.2440902037122885e-11  6.1357972629368810e-11  2.4029225172802869e-10  7.1941424941591240e-11  4.2282533112576868e-11  1.4542656224937428e-10  2.4284392034384510e-11  6