<?xml version="1.0"?>
<VTKFile type="UnstructuredGrid"  version="0.1"  >
<UnstructuredGrid>
<Piece  NumberOfPoints="4852" NumberOfCells="9430">
<Points>
<DataArray  type="Float64"  NumberOfComponents="3"  format="ascii">-1 0 0  -1 -1 0  0 -1 0  0 0 0  1 0 0  1 1 0  -1 1 0  0 0.9999999999999999 0  -0.5 1 0  -1 0.5 0  -1 -0.5 0  -0.5 -1 0  0 -0.1608775713298009 0  1 0.5 0  0.5 1 0  0.1967448868031411 0 0  -0.3414709319199437 -0.1761538862310322 0  -0.3379371482962318 0.2251131055911201 0  0.174327987813718 0.3473282680582837 0  -0.186162784038699 0.5558301263756754 0  -0.505108303878553 -0.5384036155562339 0  0.4907438302296457 0.2590063666173539 0  -0.06481072847425962 0.2017873404739317 0  0 -0.5061325913258391 0  -0.25 -1 0  -0.5623918190040279 0.5782705745344685 0  0.6620441015463902 0.6356898458692595 0  -0.1760900392031564 -0.538569015900182 0  -0.5398188521509789 0.02593206696057574 0  -1 0.25 0  -0.206910421610164 0.02392363728785159 0  -0.655329097889768 0.310453243987584 0  -1 -0.25 0  0.03905455242912375 0.5926158426246502 0  0.1953854592404637 0.1298163251158786 0  -0.1360887098475886 -0.2207357068556535 0  0.3719030870532181 0.615659980785019 0  1 0.25 0  0.5355652144809806 0 0  -0.75 -1 0  -1 -0.75 0  -0.6458427657172864 -0.323817585247161 0  0.25 1 0  -1 0.75 0  0.02757118475249542 0 0  -0.25 1 0  -0.75 1 0  1 0.75 0  0.75 1 0  0 -0.02898318711980711 0  0.05440407910367889 0.1429180241809434 0  -0.07797969186154992 -0.02796882403327453 0  -0.7019068518782773 -0.1323622253430304 0  -0.322131850447904 -0.3481606300674018 0  -0.3414592556297223 0.4382214555186702 0  -0.1005396592869648 0.764546834974296 0  -0.3844606870335708 0.703014577054103 0  -0.055369507658976 0.3998643463753312 0  -0.07940535729713172 0.07223532204272068 0  0.3594634678716572 0.3711855445052747 0  -0.7171724597014886 -0.7308278180447626 0  0.4120732455599569 0.0909537343889802 0  0.6899669668599386 0.1933102287563945 0  -0.7484983854953808 -0.5280364848355823 0  -0.3887386210447485 -0.7109327419387294 0  0.7215055264228858 0.4210117120930077 0  -0.7765503352157019 0.09762538831164352 0  0.1973212410895789 0.6994538086186829 0  -0.1997231412769372 0.2893327912425042 0  -0.7994486962312417 0.5780854339645157 0  -0.7173205166418358 0.7668027411779242 0  -0.0509932154536327 -0.3743556129630362 0  0.5853513249497072 0.8173519889943436 0  0.820718369091639 0.8067110888851863 0  -0.1060815787715688 -0.6972167642209344 0  -0.5154948399746788 0.1636054114829844 0  -0.2026950531084419 0.1260983826552736 0  -0.3601856136879597 0.0758317497858377 0  -0.3660603915795826 -0.05226390165505983 0  -0.4978386426302581 0.3961098559832447 0  0.375 1 0  1 0.125 0  -0.01184170057511862 0.07160652368074766 0  0.06218300279313763 0.3929160840353819 0  -0.1718253978815812 -0.1227380467241091 0  -0.2439058118595398 0.7739484246573256 0  -0.625 1 0  0.5338464698789402 0.4563782603144548 0  -0.5770821148355032 -0.83038928595985 0  -0.2578963411677002 -0.7835416130558297 0  -0.3204467912804694 -0.5092483048128923 0  0.8340200836938958 0.596812247868254 0  -0.549569165922376 0.7911688456134389 0  0.125 1 0  -0.06763103086201677 -0.09361061206625233 0  -0.4955198946873358 -0.1433825638992543 0  -0.8750000000000001 -1 0  0.02976377157227152 0.04178867446992238 0  1 0.3749999999999999 0  -0.875 0.9999999999999999 0  0.05737547531723838 0.7944983099360947 0  -0.1956093787048318 -0.3748669110850711 0  -0.07356018612987121 0.5720147451964458 0  0.2370584976345236 0.5191520130870065 0  -0.7927136161967147 0.2301393845239383 0  -0.4962088000603183 -0.3899744260006528 0  -5.385296091925261e-05 0.272075802185522 0  0.510759454697574 0.6416854154638806 0  0.3995638882071962 0.8080413511525176 0  -0.8066280392155322 0.4251588259876354 0  -0.06387440204989774 -0.2211192082100785 0  -0.7103073809069816 -0.01373560948146189 0  0.09071006366559535 0.05286693336588636 0  -0.4791444756946501 -0.2518299031748771 0  0.7238295731316952 0.08364492072211663 0  -0.809224314198418 -0.411854179919849 0  0.337825942620726 0.1548939081182039 0  -0.7951907396441095 -0.2512094415665258 0  0.2366988681071019 0.2556350027233539 0  -0.9999999999999999 -0.875 0  -0.9999999999999999 0.8750000000000001 0  0.1844694871558737 0.0485059803053885 0  -0.2478469333292357 -0.2298539904337139 0  -1 0.375 0  -0.1716445758322518 -0.04188289989364651 0  -0.6496500735106396 0.4684440536437999 0  0 -0.07736776745332727 0  0.08059388152654672 0.2609014701653947 0  -0.375 0.9999999999999999 0  -0.2180699859859863 0.4257242101488426 0  -0.1207353369663401 0.1507333221067337 0  0.1335917958558556 0.5552383169296673 0  0.1322224330946716 0.1947725945743706 0  -0.4758077613196696 0.2705712777740906 0  -0.04649854877019658 0.0138621870604412 0  0.8510616620564574 0.371964965762019 0  -1 -0.125 0  0.2861273698449502 0.8373845840049664 0  -0.1115065307617494 0.3140116269941258 0  -0.125 -1 0  0 -0.7575037395175259 0  0.07821397079968176 0 0  -1 -0.375 0  -0.3750000000000001 -1 0  -0.625 -1 0  0.7474787146812756 0 0  0.625 1 0  0 -0.2918843213980812 0  -1 0.625 0  -1 0.125 0  -1 -0.625 0  0.3284075310660084 0 0  0.004929205892015135 0 0  -0.125 1 0  0 -0.006571003003944568 0  1 0.625 0  1 0.8750000000000001 0  0.8749999999999999 1 0  -0.5640877698832202 -0.6771830147831892 0  -0.004763658847152767 0.1609509277888598 0  0.3627001994323224 0.2647469561974677 0  0.6529864514633691 0.296201787202364 0  -0.8552568829841212 -0.6473117248423327 0  -0.8637274241879285 0.7873227572484868 0  0.4311933344554061 0.5031038525073744 0  -0.3993050161213284 0.8562854244057658 0  -0.7793807922845373 -0.8752787698709624 0  -0.871010735447454 -0.7848981100887543 0  0.1544633450555122 0.8427116239471527 0  -0.6593021672518561 0.1536866332705543 0  -0.578412615574442 -0.06392226003839852 0  -0.8548810583820527 -0.06241056287234406 0  -0.2972534723302924 0.5630760730594119 0  -0.4250968366023373 0.5709036232774192 0  -0.3772643490825076 0.332055652144389 0  -0.6189973637948564 -0.2167655725250974 0  -0.2736398338491012 -0.09019374410279933 0  -0.6412815810762919 -0.5897168992323655 0  0.8594935213421439 0.2673545314307652 0  -0.03286772101021364 -0.03307982224258024 0  -0.05509454339734311 0.1151031105901781 0  -0.1346941885373032 0.4330614503153142 0  -0.1203974505794355 0.03246754573601793 0  0.5378364491938128 0.06540924686591795 0  0.5794463789683812 0.3617261022547913 0  0.6920083181649279 0.7759829007782939 0  -0.7936791630728844 0.8814135755125064 0  -0.6442455958022786 -0.4302323268460276 0  -0.1155768180517824 -0.398525008151615 0  0.8718966597932717 0.490245037220761 0  0.0761721876890345 0.09442977004453765 0  -0.665136241788243 0.8685076525200339 0  0.4550575374669406 0.3527233667401355 0  -0.02648780255996882 0.03600069025572152 0  -0.4101198022271201 -0.441178716723105 0  -0.3625888590215499 -0.2695064563102376 0  0.3242247471545465 0.4833570637111304 0  -0.1970254623420762 0.2022792809134417 0  0.7058398848060654 0.5331774806688421 0  0.2623020198020616 0.3575997144274627 0  -0.3773713673298948 -0.8517680483414098 0  0.1093991467695842 0.6828975876226785 0  -0.2854445258392204 -0.612610527461692 0  -0.4426609456694205 -0.6208103197413078 0  0.2970239919398185 0.6933705718038413 0  -0.8751534444092016 -0.1748859116275118 0  -0.1807049221514243 0.8555033719813403 0  0.4549723982931164 0.1650820052341516 0  0.2804415428310378 0.04721085436161093 0  -0.1432714888932027 0.6581178370431862 0  -0.01172201085291784 0.7092919594081767 0  -0.05355302416694256 0.8755410743626982 0  0.005162237714281422 0.4710271899992917 0  -0.388829741584746 0.1543423351931885 0  0.5493016820694037 0.134707220741051 0  -0.477166956829368 0.6830765239815556 0  -0.8519124882514525 0.3334852883275922 0  -0.09145820151598513 -0.5370323175527794 0  -0.02990970289200413 -0.5526668295744603 0  -0.2135415368099247 -0.2887359835004606 0  0.8682885005827715 0.152378956164873 0  -0.1696009152471775 -0.6612754869520449 0  -0.8894376842044498 -0.5290948129982809 0  -0.2830247559385858 0.3393849549330862 0  -0.6771350759959368 0.575063745612201 0  -0.8978642643947551 0.5319072592324851 0  -0.8987162683052069 0.6613086459939891 0  -0.6451941583351095 0.0731318701062426 0  -0.8594173979050713 0.0288977681346534 0  -0.8884010106538265 0.16831579423543 0  -0.1309534590853993 0.2298555379522173 0  0.1607653853792993 0.4476110613266663 0  -0.04363205944918316 -0.1259735570534537 0  -0.7541283747559832 0.6707939234360288 0  -0.603445438739984 0.6986904658154272 0  -0.2553820455681799 0.07897532003510616 0  -0.2505730488996167 0.6494506896529258 0  -0.0275403016247479 -0.006538097286076822 0  -0.4950887286353828 0.8774844418256292 0  -0.4783239670330436 0.4917290274114814 0  -0.2915710440497899 0.1447700129599698 0  0.002417146075016516 0.02376313452666131 0  0.7799112469114042 0.6852293191779929 0  -0.4709643719265463 -0.8248528966368796 0  0.2722932680019106 0.1964230718465877 0  -0.1488416574223048 -0.8631067296605075 0  -0.06598699561305477 -0.8297354237608613 0  0.4442925880821408 0.7072662543470257 0  -0.1164987936663438 -0.2894407822485935 0  -0.2658058588140171 -0.02611480442826333 0  -0.8941044971787813 -0.8967979990366988 0  -0.5739975359037642 0.2384005552541036 0  -0.4772940830769299 0.08831377564392563 0  0.4918977459537912 0.8266348355240147 0  -0.02774439326149473 -0.2604978663147766 0  -0.3107895392465125 0.8758842152424878 0  -0.1437926152416513 0.0808750896810693 0  -0.4704106839644462 -0.034642695636103 0  -0.3890828045489485 0.01248008580786751 0  -0.292722746587282 0.02785791767857872 0  -0.385923439371763 -0.1205857148619281 0  0.8883313112746698 0.6990302053964879 0  0.792989243326305 0.9111131175590559 0  0.5767529415138447 0.2099350870720615 0  -0.5611606387356426 -0.4704477473112735 0  0.599683692541968 0.7075496069284811 0  0.6787040238746787 0.8888979017464043 0  -0.05156105541742426 0.3042597214958822 0  -0.9023153393009722 0.9047897294526489 0  -0.1279462313596419 -0.06734211562475823 0  -0.1692566172061603 -0.183219938111398 0  -0.2530825
[...]
<PointData  Scalars="w"> 
<DataArray  type="Float64"  Name="w"  format="ascii">1.7397239751591992e-10  1.0317920129793190e-11  4.4583851895464420e-10  2.5987578351464802e-09  6.2537360830840379e-10  1.5681907127110747e-12  8.6653877795324021e-12  7.3731051047627101e-11  3.9430351907334881e-11  2.0838432885873822e-11  1.0646656534735372e-10  9.5113309543198121e-11  4.0523152209076999e-10  2.6983996186765057e-10  9.0353863985338703e-12  5.3901075639839219e-10  9.1581447452885506e-11  7.1978741001725004e-11  1.3050228406654706e-10  3.5156302766483504e-10  6.6671972021626613e-11  1.0481123896266705e-10  5.8034500962726266e-10  1.3748725772609603e-08  5.8135274435565979e-10  1.0574427137407647e-10  8.6770812223034083e-11  1.7010523676300182e-10  7.6034779808030665e-11  1.8843005057892344e-11  4.7077280114233217e-10  9.6020763067363446e-11  2.4150520537422237e-10  1.7904773405615206e-10  4.5866855926905423e-10  2.2954727110680554e-10  7.6720034327281921e-11  4.6988007190471833e-10  5.9393982586424871e-10  3.0735852379607980e-11  5.1226479924713017e-11  1.0856928166606798e-10  9.1224043436177336e-11  1.9379591194416636e-11  1.0677041072164324e-09  8.5776696110894100e-11  3.1620335213594380e-11  9.3934558921365245e-11  1.2640039874704052e-12  5.9406692664271850e-10  2.2322843311795113e-10  2.1555333136541198e-10  8.3179630500530786e-11  2.5553423275767930e-10  2.5772343097256039e-10  2.0563684857962052e-10  3.4962090911055967e-10  8.9517564045847436e-11  5.8843646525095435e-10  2.5110590308677439e-10  3.0636332552084684e-11  3.1839807552492314e-10  3.7760338516229093e-10  1.3999944678472762e-10  5.3638232971553636e-11  1.7608356148583534e-10  6.9353261382074454e-11  1.7789138476329127e-10  2.3356819030807567e-10  4.5412475472295659e-11  6.3755706735682815e-11  4.4090629698781755e-10  5.5201702704005853e-11  8.6195598935577167e-11  1.6932772155482821e-10  1.6900996639224942e-10  2.5898791727120756e-10  2.8938799130031253e-10  1.8304957705709869e-10  1.9345199386012463e-10  6.4179910825750112e-11  2.5236049396111267e-10  2.6862654951218726e-10  2.0033938230284509e-10  2.3585347488659947e-10  1.2528306842240386e-10  4.5424144420467568e-11  1.0830230060750487e-10  9.3177999459516172e-11  2.5383125747197529e-10  6.9678486270605885e-11  9.6587459889400970e-11  7.7304502037272275e-11  9.2936097320942543e-11  3.9300016662369118e-10  2.0875073662822743e-10  2.5033888266717324e-11  6.6245429187078880e-10  2.5499082480053074e-10  3.1229348127123608e-11  2.7415750122473519e-10  4.1856339127452387e-10  7.1105926962550492e-11  9.6651301389588231e-11  1.5388529805306145e-10  6.2993133542198926e-11  2.7523687218199894e-10  8.1929193356910315e-11  1.4344180562400153e-10  6.5180117554090886e-11  3.1408954277042558e-10  2.4665517335167587e-10  2.3542290228028300e-10  6.4494018017987851e-10  1.2181571580923757e-09  1.4348802712712457e-10  1.6750558344690667e-10  1.0033599654747547e-10  4.5877733005037007e-10  2.5518557118756582e-11  2.5483162247335626e-11  2.8062443139425598e-10  9.3066493096229003e-11  5.9912587502776148e-11  5.0641270981140053e-10  5.6246702759123768e-11  6.0608010642155072e-10  1.1914762369064166e-10  7.5233887669455141e-11  8.2620531840676954e-11  3.4630277969967586e-10  1.6972139723895481e-10  4.6668607234584900e-10  1.3400515965612102e-10  6.3277414528380963e-10  4.2841169044634614e-10  1.0893699499320066e-10  5.1274013131586526e-11  1.3109779536806553e-10  2.5751744092709144e-10  4.3593719042021984e-10  6.2042411104630233e-10  9.2048671359105700e-11  1.1922594884631997e-10  6.7317497969191164e-11  6.6101759215727915e-10  8.3820091561681778e-11  3.3013994478980878e-10  1.4414965567497452e-10  1.2389945997411409e-10  1.9777061690645452e-11  2.8629473255863422e-10  1.6126276195785366e-09  5.5623752235408034e-11  9.7759262052815319e-10  7.7173920342435110e-11  2.3926041639030076e-11  2.3974690205866926e-11  1.2062008949551033e-10  5.6735214675373235e-10  4.4571652481413951e-10  1.6098818711691451e-10  1.1118413507005864e-10  1.6408359213733320e-10  1.8414684064874389e-10  5.8285714754433807e-11  7.5732622228715357e-11  1.9990619729909047e-11  5.9280433490875237e-11  2.9217047601446752e-10  9.2032735158675743e-11  1.0410423913526806e-10  8.2491657226180555e-11  9.4584735824362367e-11  5.2771233935878695e-11  9.6435357969664780e-11  4.5758005221382907e-10  5.6448554933721955e-11  1.6419646965321213e-10  1.7168907483236548e-10  4.7249460983696472e-10  1.9822829097287196e-10  2.8556227819062602e-10  1.4515716235138810e-10  1.4418603591928923e-10  1.4583234725820509e-10  2.0851866919221748e-11  2.8865248679679504e-10  6.4913771757697392e-10  2.4999690859995484e-11  2.5418707425293341e-10  8.7554667462691589e-11  1.5686233029575471e-10  1.1387278563100803e-09  1.3924467329952849e-10  1.6543674005393319e-10  2.3197004254603775e-10  2.8945007170655417e-10  1.0377004867447989e-10  2.0435297412153596e-10  4.1560056690804162e-10  2.1794297647055445e-10  2.3734286698653325e-10  1.0976212129749170e-10  1.1153127009067424e-10  1.1011590084937603e-10  7.1746612213431126e-11  2.0913442696360522e-10  8.9735615999032503e-10  7.6306074390851785e-11  1.0741298969737495e-10  7.8453220162203419e-11  9.7117720077900612e-11  1.6233585816453476e-10  3.7894726830264902e-10  7.7830767669040302e-11  8.3802510101634957e-11  7.6022405938815412e-10  9.2794446035781209e-10  2.9736486368380934e-10  2.0111757224069725e-10  7.7283063325742595e-11  7.9292539307258116e-11  3.3431176795746580e-10  5.7711739581943329e-11  8.1590000880521496e-11  4.9616999784502150e-11  9.3468204048936883e-11  4.0457896557164834e-10  8.9548291501674643e-11  1.9890906051908860e-10  1.6584595253957228e-10  9.1404805101489081e-10  6.0930222022031906e-11  1.9480157076375840e-10  1.1591149061290338e-10  1.0958135730746407e-10  7.5566492387229523e-10  7.4535600099598803e-11  8.4250985208443427e-11  1.1810662893501145e-10  1.1405884484546994e-09  3.9994937168766205e-11  7.7520820197957235e-11  2.8120139902552096e-10  2.5250478755945400e-10  3.4487150700225070e-10  1.7899455460917649e-10  2.0565506139892091e-10  4.0533086586401038e-10  2.8852909950958396e-11  1.0462214964068040e-10  1.2747133355798077e-10  3.7031996295107814e-11  2.7098695846460670e-10  4.3544293944668851e-11  3.3727058623241018e-10  1.3598632019252431e-10  1.1067818537070613e-10  1.9220328303374391e-10  5.0405681432808738e-10  7.1916411032274040e-11  2.6387165772316066e-11  1.4484659493291167e-10  8.1377909486079939e-11  5.8128608850797415e-11  7.3661521115151774e-11  1.8042175168614789e-10  4.8807050836148957e-11  2.6483290491306639e-10  2.5718687314586380e-10  1.3084079572177962e-10  1.2974860109542780e-10  1.3430915855437184e-11  7.2173671920051438e-11  1.4786538273489203e-10  1.6608563721972748e-10  5.0371608099566077e-10  3.6160557937233613e-11  8.1068722297739509e-11  3.3116434431760395e-11  2.4202084888456051e-10  1.2508482085054233e-10  1.8284711734781940e-10  7.5535892466721266e-11  8.7350066866010552e-11  1.2050011744845081e-10  2.0143418827173448e-10  2.2408329708515643e-10  2.6148248808594050e-10  4.4190270215611087e-10  2.1490697256596801e-10  2.1151779123700744e-10  1.4323502937801056e-10  8.0241127275532877e-11  1.7149505103919696e-10  1.6673064961138329e-10  6.3209305035932475e-10  1.2713464225639444e-10  6.1789531776595670e-11  4.1157104062149661e-10  1.9095317494403361e-10  2.0537530786242029e-10  1.2189514763647561e-10  3.2045885766813480e-11  4.4628567128628283e-11  9.6927062853922036e-11  6.9561313197059447e-10  2.9572994538338217e-10  1.8056989258109804e-10  1.3485661171305396e-10  3.3368008332543059e-10  6.7846537772152592e-11  1.1074577873256067e-10  3.5406507914655589e-10  1.4250334318262255e-09  9.6983066295717699e-11  2.8351384346475599e-10  6.2087608667897839e-10  1.2491490417243356e-09  1.9907502447588840e-10  1.5550923396437153e-09  4.2085628637729669e-10  2.2649894790012935e-10  1.1884473707723320e-10  4.1505198010896645e-11  6.4418451175901935e-11  1.2754167671491490e-10  1.5629566324000723e-10  6.2803419642538941e-11  9.9032179524163846e-11  1.0826283045663781e-10  1.2569080904394568e-10  1.9336611779914315e-10  5.0444164995172747e-10  3.2363236240206267e-10  1.6564005927968954e-10  9.4538871874563423e-11  6.1324763982390848e-11  5.8727492593577893e-11  7.0941252570927531e-11  1.8257323676486546e-10  2.2516306478562090e-10  1.0451433012406609e-10  1.0478581164340840e-10  2.3717898672112946e-10  1.3473538685903239e-10  6.8181159264029351e-11  5.8706675509345791e-11  1.0574491599556416e-10  3.3923177764101773e-11  1.8597581699398647e-10  3.2222392318802055e-11  1.6084914540728273e-10  1.7859766449237722e-10  1.5438023997940865e-10  3.9110840985463005e-10  7.9228241004056280e-11  8.1765144328652797e-11  1.4280520459381137e-10  3.0847111745838623e-10  1.4626562494352673e-10  2.6344495749617427e-10  1.0995866502588372e-10  1.3526231271012706e-10  1.5794508410308778e-10  2.8374663629140345e-10  1.2830322232770895e-10  3.3379169295995723e-11  1.1573268193586268e-10  1.1263212200683551e-10  1.4463919537351293e-10  2.4699372196209911e-10  1.6745504159176561e-10  3.4605562237183586e-11  1.2813428602052691e-10  2.3117970707391150e-10  2.8349953328542238e-11  3.3040615602315121e-10  1.6527843775299403e-10  3.9492693835178164e-10  1.1352086356825612e-10  2.3882457668351610e-10  3.2541640258699283e-10  7.4343848927644112e-11  1.0399769985165466e-10  2.1497164061950363e-10  7.1575334285679899e-11  4.8732232794214686e-10  1.6123937182379174e-10  9.6555004105671663e-11  1.0732251473937244e-10  2.0606863142156798e-10  5.4784009641110587e-10  4.8329325831479914e-10  1.7817578897900116e-10  1.7160852518193332e-10  2.0458082971145775e-10  3.9544554203993983e-10  4.4774071607924819e-11  2.2242337374324072e-10  7.8548467774335588e-11  1.2506362678372605e-09  1.1706565538568454e-10  4.5886834142608203e-11  5.6175880209958877e-10  3.3676865818103618e-10  2.4979728212682269e-10  2.1026590346519403e-10  6.3793386320393389e-11  1.5249103160925641e-10  3.2808686485320616e-11  4.4274126870520823e-10  8.0869831243032476e-11  1.3420893096834887e-10  1.2717057532286843e-10  6.4712203160416416e-11  3.4648785844345778e-10  4.2843567221102316e-11  1.1594108748048463e-10  2.4993707021597375e-10  1.8085116083601319e-10  7.2223929115298133e-10  9.0780506839433901e-11  5.7915768753889246e-10  1.4351890197163984e-10  3.6076320257783764e-10  5.6784630689745011e-10  2.4636700052654432e-10  1.5497750522825498e-10  2.7583861781016858e-10  4.8263273839574257e-10  3.4365909826991391e-10  7.5085839482079754e-11  5.0187223256780802e-11  1.6501394110299908e-10  3.5949731652815774e-10  1.8548602601305869e-10  1.2493890150363172e-10  1.6739769140211556e-10  7.9278899591356436e-11  7.0339763340492057e-11  1.9964462323509702e-10  5.7025309620872600e-11  2.0668815871676743e-10  9.0371062336562291e-11  4.8640486107147996e-10  4.9097937608106499e-10  8.1685232031746796e-11  4.1638845243610361e-11  4.0372919529489795e-10  6.5823220488449592e-10  2.5927744783381216e-10  1.0027551052047195e-09  2.9100344812674046e-10  3.1998253820482897e-10  2.7681941274201123e-10  2.7016612461259659e-10  9.7256090190016169e-11  3.0793778997149712e-11  1.9431301541031846e-10  1.0137369263284058e-10  2.1209680747219835e-10  7.5659014449972656e-11  1.2076146245483995e-10  2.0933191636280546e-09  1.7853039141173585e-10  8.0134224348978473e-11  8.1130915233005483e-11  4.0157165836896934e-10  2.4517631348139235e-10  1.9077299300402376e-10  2.0866206016447047e-10  4.4028046858112087e-11  7.6698363011915197e-10  2.4254522702938437e-10  5.3477154418876377e-10  2.4870095839062046e-10  2.3812187313375339e-10  3.0821541173537997e-10  9.4188796351511787e-11  3.2741661253176706e-11  3.5781306581826095e-11  3.7496406871347514e-10  3.5351972069580824e-11  1.1378085462209976e-10  1.0276053215792321e-09  7.5211285964845803e-11  3.4088325821760736e-10  2.5963932107303117e-10  6.1461025438141263e-11  5.8108933565189401e-11  1.8201714687777569e-10  2.4678748819908700e-10  4.6946776270073090e-11  1.1340333421439205e-10  1.5803727223713679e-10  7.4997957434480290e-11  1.6870740780048583e-10  2.1551413994815948e-09  3.5021441928255629e-10  3.2178942027814986e-10  1.0670951948583474e-10  1.0543337829473662e-10  1.8428216103032006e-10  7.8097854228432139e-11  1.3535107598099113e-10  4.9666821526598635e-10  8.6493476100019158e-11  2.3950853392730228e-10  2.1327522930462900e-10  1.3885785551826384e-10  5.0148408036591854e-11  7.5928258253954548e-11  5.3810590747241074e-11  3.9574949362274245e-10  1.0501292111983738e-10  2.2066653449015054e-11  5.7560503849213285e-10  3.0099068612967009e-11  6.2520938069899417e-10  1.1641000603281437e-11  1.8719416141550328e-09  1.7723170942817587e-10  2.4985842170216626e-10  1.0313694819984783e-10  2.8599675852444179e-11  8.3422828267148395e-11  2.7470633234162863e-11  2.0384459941662613e-10  3.7425854407529535e-10  2.7158954164559757e-10  3.2436629835864262e-10  1.3323424637213615e-10  9.1635883178410348e-11  6.2435393611864636e-11  3.6553314232690860e-10  4.9744366330578064e-10  1.0559352936271769e-10  1.0030805528019465e-10  1.4659484454145220e-10  7.4822936590147040e-11  4.4472211422319659e-11  5.3652628938538538e-11  3.1669543537330083e-11  8.7843926328836219e-12  1.7636103271241075e-11  9.6598349827254249e-11  2.2418006913394509e-12  1.0996038035642459e-11  1.8627775416048486e-10  3.5109797975062218e-09  2.1610742585522883e-10  4.1244563747752987e-11  2.2004083096999394e-10  9.1350855297906237e-11  1.1122215856372384e-10  4.2876686209346809e-11  1.6898069200145595e-11  8.6618420880723108e-11  7.5695037628270791e-10  7.8310419073968547e-11  1.8331820853056522e-10  3.2217920884326144e-10  4.8652144609259776e-10  9.6765866023815354e-11  1.0120511788335694e-10  5.7694526801316224e-11  7.6933722917264733e-11  1.0989328303732855e-10  5.6295315860649547e-11  5.9502228696821156e-10  5.8649972948563379e-11  2.8110395522692462e-10  8.7527055007369733e-11  1.2747643096643911e-10  3.0999782425358602e-10  4.1600029489593394e-11  6.1918226732645993e-11  2.7595634611577162e-10  1.1764701198577207e-11  1.1224010375079291e-10  8.7084281074903719e-11  7.6147532781605973e-11  5.6969708344711083e-10  1.6141740459316338e-09  2.8584426250615079e-10  2.8931794634046711e-10  9.0276807142069597e-11  6.7748744891025899e-11  2.5093922293609553e-10  1.1530864560951912e-10  9.6757471583570369e-11  1.0207733776446674e-10  1.9749808362562658e-10  7.2625220711405046e-11  5.1246078919919749e-11  6.9125155497146521e-11  3.8967099085823641e-11  8.4754540268835911e-11  1.9293663771121377e-10  1.6300252131193581e-10  1.1244519727020303e-10  2.7054446634978140e-10  4.6417441279817994e-11  1.3506201614258947e-10  5.3147387577496920e-10  6.5945962668131460e-11  1.1616179357929240e-10  1.2857043536749024e-09  5.7977348803564674e-11  3.4304075718995616e-10  5.2071029494854929e-10  1.5968667410119280e-10  1.2732686228866525e-10  1.2628536116392356e-10  8.7854564825376632e-11  2.4966647125980261e-10  2.8845734978849812e-10  1.7725732737812567e-10  4.7786441235072564e-10  4.2618825774791699e-10  1.2006608374851966e-10  2.0757790295237289e-10  6.5147244101808616e-11  8.3548152413771399e-11  6.2037404949063156e-11  2.3656982792917614e-10  4.0221745054891136e-10  3.0969017979433056e-10  3.2937425158115040e-10  8.5377027791644665e-11  2.3046423617139649e-10  4.8523023835687274e-10  1.7274809406351824e-10  4.7169652283896238e-10  1.8064315842027443e-10  1.3769206297908926e-10  1.1104957560039192e-10  5.0908490280257421e-11  5.2862707663960944e-11  3.3080668927828218e-10  6.2154144900465520e-11  6.4152267229433500e-11  1.2729168327645971e-10  3.2383263872619173e-10  3.1770476903399005e-10  1.5709743916341634e-10  1.1756267811692975e-10  6.0344161002877314e-10  6.3664233143151776e-10  1.6312361796098673e-09  2.7108846591194758e-10  1.9900220568528624e-10  4.4586294882178364e-10  4.6086793355195818e-10  1.2005559875601073e-09  3.0052250225516239e-10  2.4029792993017026e-10  3.3095808830917321e-11  1.2653825418919145e-10  3.1787344422987722e-10  4.7064944910190680e-10  2.1200888280145006e-10  6.7430992641686681e-10  3.0019489941251444e-10  2.1287627173989866e-11  4.8116855210311948e-10  3.3292268225662204e-10  3.8669801031526195e-11  3.3547671758956285e-10  4.1465708759113865e-10  5.4721526953658739e-10  1.4640997538887429e-10  6.7584105849323414e-10  1.9630094872147387e-10  4.6917274977789659e-11  1.2707456335452479e-10  1.3200402304494771e-10  3.1537323030950300e-10  7.7598096262087907e-11  2.6390209064950112e-10  1.8937468743834582e-10  8.0649143009619875e-12  2.3242882770188397e-10  5.6872464090748790e-11  8.9374596338902864e-11  1.2212942255785299e-10  6.4116945091587237e-10  4.1565108601998905e-10  3.1074965373271458e-10  1.1670625739300192e-10  1.2992488718463626e-10  9.1812198565104913e-10  5.5146721087596539e-10  1.3389194608161544e-10  1.4173356189747123e-10  9.4812196160362243e-11  4.9526312219355916e-10  1.3519628281318709e-10  1.7146855237170030e-10  9.3949597225061346e-11  6.9612338912561728e-11  6.2538261072473115e-11  1.4630190717038452e-10  9.6603472874080301e-11  1.3145206747483303e-10  4.3607861630930835e-10  7.4626961954546150e-11  6.0554434113952645e-10  1.2500091256486845e-10  2.2532105745301708e-10  2.7476377102904487e-10  5.5906368495885036e-10  1.1571441634215916e-10  4.0316871448846288e-11  6.1778913742209626e-11  1.4263633303945911e-10  1.5858361247219991e-10  5.1286063455703099e-10  8.2851821647582952e-11  1.5623858772411671e-10  2.4431022681473896e-10  1.3908311391949646e-10  2.3496863133297071e-10  3.3332453462854077e-10  3.1361832435516203e-10  1.0238147069502523e-10  1.7271694227032108e-10  1.4921513007064833e-10  2.2829709157049288e-10  4.7151840232241591e-10  3.7382788258550759e-10  2.0140861315019871e-10  2.0239647747910244e-10  1.2242944842002453e-10  1.7041505335672298e-10  3.0121379203005840e-10  3.8187916777394246e-10  3.6323673331462034e-10  1.6662608138203572e-10  2.2119122376334587e-10  1.9576992209605674e-10  1.5173853333988873e-10  3.9600825390316393e-10  3.1220708315342819e-11  1.0413058417742996e-10  1.2742166321994939e-10  7.7743912507272160e-08  4.1051586586534521e-10  1.7239123594160865e-10  6.1175716347752453e-11  2.5837003254987764e-10  1.3666177231871710e-10  6.3534037612889365e-11  1.0376841212574779e-10  2.0323527534028247e-10  2.0396973477592515e-10  1.9097863581473769e-10  1.8824247129657757e-10  3.0814807580291002e-10  6.4135167407254871e-11  7.9892811200035830e-11  1.8914048430388892e-10  1.2395800898191102e-10  3.4612958637677520e-11  4.0106111773354666e-10  6.4345806482541237e-11  6.0464635398235945e-11  1.9275665584378761e-10  9.7550814116175042e-11  2.3396680881921909e-10  2.9167865441084699e-10  1.6649428164479217e-10  7.9602638857754396e-11  1.8350903393390524e-10  9.5663105636822144e-11  3.2018075338663191e-11  8.8493878245018096e-11  5.7819819877141927e-11  7.9079869224772097e-11  2.2727416318588968e-10  4.6527397101916984e-11  6.5036836462600898e-11  9.2964432485108970e-11  9.1883310150949613e-11  9.3562106270177815e-11  2.5330120833092443e-10  8.8268822791589358e-11  1.8527321837369976e-10  2.0775243233742723e-10  1.0253585748429992e-10  1.6150606420569903e-10  3.1588623039399501e-10  1.2342419413500689e-10  6.1898139959522640e-10  1.7030560729056700e-10  1.4793859363415503e-10  1.3940088716077385e-10  2.2359894127489720e-10  4.3538143562439842e-11  3.9148639198808942e-11  7.5976948879038751e-11  4.3601266188160778e-10  2.0187881000688757e-10  6.3912270010973088e-10  4.4840292913934649e-10  1.2146814241579383e-10  5.5091856775045775e-10  3.6195198650466767e-10  1.8671380349965553e-10  6.9927293647225679e-11  9.3475174501671551e-11  1.7613427813584910e-10  1.8832116024349718e-10  4.1085837291626859e-11  4.8316318258972229e-10  2.8017257700663922e-10  3.0065054476830261e-10  5.2268484307671930e-11  3.5322478919846972e-10  2.6189443585240706e-10  5.9216077166385588e-10  7.2871665985831231e-11  6.0343814066291482e-11  2.4043438853448750e-10  7.1766130251357263e-11  4.1809715466802388e-11  1.4528609683410400e-10  2.4038362629149050e-11  6