<?xml version="1.0"?>
<VTKFile type="UnstructuredGrid"  version="0.1"  >
<UnstructuredGrid>
<Piece  NumberOfPoints="4852" NumberOfCells="9430">
<Points>
<DataArray  type="Float64"  NumberOfComponents="3"  format="ascii">-1 0 0  -1 -1 0  0 -1 0  0 0 0  1 0 0  1 1 0  -1 1 0  0 1 0  -0.5 1 0  -1 0.5 0  -1 -0.5 0  -0.4999999999999999 -0.9999999999999999 0  0 -0.1608775713298009 0  1 0.5 0  0.5 1 0  0.1967448868031411 0 0  -0.3490502986129388 -0.1799793481127633 0  -0.3467095809750082 0.2307435755159135 0  0.1780578116060418 0.3524151661360704 0  -0.1891185376882099 0.5625171782286981 0  -0.5078012305814972 -0.5423855860791452 0  0.4952304938435421 0.2585799402659246 0  -0.06907667949499317 0.2101170090581938 0  0 -0.5061325913258391 0  -0.25 -0.9999999999999999 0  -0.5670245124205763 0.582524806621344 0  0.6646286861104425 0.6360435478743919 0  -0.1784965385128436 -0.5420831166479957 0  -0.5481638277274898 0.02634583716863178 0  -1 0.25 0  -0.2165637956133138 0.02536966003710527 0  -0.6606876735371043 0.3145092392114759 0  -1 -0.25 0  0.03995664637380235 0.5984214420344254 0  0.1990271561630487 0.1314320053620555 0  -0.1401541002891553 -0.2244499742283798 0  0.3753178667540562 0.6179309716467829 0  1 0.25 0  0.5355652144809806 0 0  -0.75 -1 0  -1 -0.75 0  -0.6500653663750662 -0.327359323666534 0  0.25 1 0  -1 0.75 0  0.02757118475249542 0 0  -0.25 1 0  -0.75 1 0  1 0.75 0  0.75 1 0  0 -0.02898318711980711 0  0.05532830242714411 0.1484725577372365 0  -0.08273507440394209 -0.0278400025708531 0  -0.7068875862157331 -0.1343008538295439 0  -0.3271557421972551 -0.3529482068647702 0  -0.3473696248946853 0.4447804799485661 0  -0.1011325446001987 0.7685790723392628 0  -0.3878580954619558 0.7073304110166579 0  -0.05709469610734663 0.4080861297200309 0  -0.08559165174845387 0.07706157568420854 0  0.3643032178415186 0.373161429967903 0  -0.7183509589686108 -0.7328781694390736 0  0.4148908608517816 0.08992552563669778 0  0.6927643290589053 0.1916510433069773 0  -0.7499668758435377 -0.5310382474801588 0  -0.3903274959037876 -0.7141013922065387 0  0.7246571842311232 0.4202721896765898 0  -0.7808611736852727 0.09871042216861538 0  0.1999760452748615 0.7027559133840723 0  -0.2062100755487808 0.2973128033467813 0  -0.8017979567689972 0.5813057138480384 0  -0.7201814542778818 0.7691085758692284 0  -0.04542928156956189 -0.3770538404238648 0  0.5872153527572602 0.8182239208061431 0  0.8218518477844424 0.8076230638379527 0  -0.1045326765228072 -0.6991487839014121 0  -0.5237273876220594 0.1671758350202246 0  -0.2118980121932395 0.1314487043736439 0  -0.3702382250277192 0.07811683764099638 0  -0.3755530596198121 -0.05330832347983178 0  -0.5040825826395976 0.4013607092786068 0  0.375 1 0  1 0.125 0  -0.01443028503231359 0.07638478116284696 0  0.06353338765280295 0.4000400295293345 0  -0.1782454301162951 -0.125872832409312 0  -0.2460666406668825 0.7776122248867257 0  -0.625 1 0  0.5380359373762585 0.4567925498235582 0  -0.5781819136901185 -0.8320286974866086 0  -0.2589028207930728 -0.7860380687220508 0  -0.3236998860055941 -0.5136212614477883 0  0.8355962090034709 0.5968700196391892 0  -0.5525643922709412 0.793732046873256 0  0.125 1 0  -0.07075550898111388 -0.09518617904260654 0  -0.5030907929744095 -0.1458655518360701 0  -0.875 -1 0  0.02914895614346426 0.04420499717163322 0  1 0.375 0  -0.875 1 0  0.05837200467899534 0.7976501973941288 0  -0.1993839924768254 -0.3790829590708863 0  -0.07465120106759511 0.578568719206792 0  0.240678786702658 0.5231587807611827 0  -0.7963683811640723 0.2327015987803306 0  -0.5005469070705191 -0.3943677749325299 0  -0.000987539970166958 0.2802333153831139 0  0.5138597381864205 0.6428011933567823 0  0.4018216423862896 0.8092826886980603 0  -0.8092265628145811 0.428538513732142 0  -0.06549235754659161 -0.2236778172040638 0  -0.7156794726329113 -0.01411894837868008 0  0.09201847829944954 0.05451361362591739 0  -0.4853239879914953 -0.2558296703004025 0  0.7251536017306165 0.0824417638311192 0  -0.811005468968777 -0.4144613145817854 0  0.3420400516772442 0.1550287110412755 0  -0.7979039991201551 -0.2536807211885114 0  0.2414819834729303 0.2585393807518405 0  -1 -0.875 0  -1 0.875 0  0.1863447434785045 0.04895158298501497 0  -0.25392821239073 -0.2342964375047652 0  -1 0.375 0  -0.1796875216855342 -0.04294507429133312 0  -0.6542334778842978 0.4727152750949089 0  0 -0.07736776745332727 0  0.08250496176165983 0.2675271512565393 0  -0.375 1 0  -0.2231514293566163 0.4332684844354094 0  -0.1277385319925706 0.1578441767377569 0  0.1361201759704443 0.5603198523097715 0  0.1355234993692572 0.1991620223071661 0  -0.4835596111791198 0.2754126905505366 0  -0.05010401865855366 0.01605196637829612 0  0.8530695203602371 0.3711868329130267 0  -1 -0.125 0  0.2880017517228941 0.8389579987117853 0  -0.1158210155369752 0.3226410378440143 0  -0.125 -1 0  0 -0.7575037395175258 0  0.07821397079968176 0 0  -1 -0.375 0  -0.375 -1 0  -0.625 -1 0  0.7474787146812756 0 0  0.625 1 0  0 -0.2918843213980812 0  -1 0.625 0  -1 0.125 0  -1 -0.625 0  0.3284075310660084 0 0  0.004929205892015135 0 0  -0.125 1 0  0 -0.006571003003944568 0  1 0.625 0  1 0.875 0  0.875 1 0  -0.5657142432095214 -0.6801153081111 0  -0.006498723082643283 0.168380686828891 0  0.3678005406966835 0.2656534011779904 0  0.656707454814892 0.2948596410565113 0  -0.8558612239507014 -0.6493758669272125 0  -0.8654324888461949 0.7892906346868966 0  0.4352579091960795 0.5048354515478521 0  -0.4011355146206586 0.8582523992349081 0  -0.7803121249393343 -0.8759412877045755 0  -0.8714579302223542 -0.7861779761473056 0  0.1561559374233148 0.8446514590842394 0  -0.6654354417859625 0.1561502467335097 0  -0.5858551686889024 -0.06528792932086433 0  -0.8577270836759899 -0.06295360721479733 0  -0.3016576807540762 0.5690852375814356 0  -0.4297796394214047 0.5760272521709781 0  -0.3846309278173988 0.3383942055857587 0  -0.6247185311097749 -0.2198025731524414 0  -0.2823731397249038 -0.09264182829211294 0  -0.6432091829463797 -0.5928769597504325 0  0.8612657844303966 0.2659844239142966 0  -0.03486834741956381 -0.03244292101308717 0  -0.05986700554367587 0.1218111973889766 0  -0.1381152248181672 0.4410487638452412 0  -0.1280511715806454 0.03496457988404315 0  0.5396065582916393 0.06440194918196923 0  0.5836954858465424 0.3613443912567184 0  0.6937568763827997 0.7766357099029809 0  -0.7959105791929879 0.8825219470004598 0  -0.6474209612779177 -0.4338439996489268 0  -0.1169727636335671 -0.4017296476487823 0  0.8734222709946577 0.4901209483099176 0  0.07770466095846126 0.09785644123227553 0  -0.6673135620395183 0.8700950054521124 0  0.4598191815853644 0.3532854929698016 0  -0.02958909638915838 0.03921169897585677 0  -0.4139871588827838 -0.4458624951823337 0  -0.3688152170147945 -0.2740849605344666 0  0.3284280576465486 0.4863138823994252 0  -0.2050527535568344 0.2093539362261493 0  0.7087625856481025 0.5329112094284432 0  0.2669039685536901 0.361122648431239 0  -0.3785109795225506 -0.8535375087969785 0  0.1111641037856227 0.687039098390737 0  -0.2877790499664931 -0.6163157645154004 0  -0.4447990323826294 -0.6245007092626952 0  0.2999897262661406 0.6959021696832028 0  -0.877263377308272 -0.176267841925704 0  -0.1817068511284004 0.8577966178617098 0  0.4589052130304512 0.1643429845317201 0  0.2821811059106397 0.04698477692292312 0  -0.14497401464168 0.6637124283852928 0  -0.01151946938870361 0.7139096832527174 0  -0.05347707566397775 0.877566129348446 0  0.005248869196237969 0.4782700690578979 0  -0.3982540127125619 0.1584053258895963 0  0.5523078045699822 0.1333969908441917 0  -0.4810124672178828 0.6871861355104454 0  -0.8542249331794717 0.3362058208545095 0  -0.08966045063936107 -0.5397297007469973 0  -0.02148699208768437 -0.554255624836513 0  -0.218374522177639 -0.2932234640157413 0  0.8695508806090504 0.1511870181436026 0  -0.1710515105991229 -0.6641904807965759 0  -0.8902486814512098 -0.5310651658389254 0  -0.289798093464389 0.3465897923427746 0  -0.6808958281653247 0.5789611562535062 0  -0.8989885675705621 0.5340855350978124 0  -0.89991983697665 0.6633666697243464 0  -0.6518790615592501 0.07424844910611744 0  -0.8623509480426772 0.02917794418688699 0  -0.8907345190849739 0.1692642388022817 0  -0.1369120828949508 0.2381205621468351 0  0.1639420663200668 0.4529055681501637 0  -0.0453035168629437 -0.1274244358067751 0  -0.7569095674272934 0.6736489861835104 0  -0.6072049364490398 0.7019677639891303 0  -0.2654780878122242 0.0822050098383138 0  -0.2537342401581584 0.6548698582983907 0  -0.02888967007556735 -0.004872304182274659 0  -0.4974082807857678 0.8788563860247445 0  -0.4837381139970635 0.4969896057818528 0  -0.3012585845045319 0.1495013989366129 0  0.0005388759155803302 0.02495213511801372 0  0.7815643933938687 0.6856622329667202 0  -0.4720254589814481 -0.8268836086246085 0  0.276986152566106 0.1978953923573677 0  -0.1485333011187558 -0.8643706334284221 0  -0.0640650679494662 -0.8299874007895266 0  0.4470541879400251 0.7087448524630158 0  -0.1192508669788125 -0.2928712878864252 0  -0.2755224474396775 -0.02665439269018152 0  -0.894691634535155 -0.8973054394442754 0  -0.5808630466894069 0.2423928873090792 0  -0.4863192071221246 0.09040271771533283 0  0.4940016003258236 0.8275767133264805 0  -0.02818173279135208 -0.2626810217340805 0  -0.3125485375624075 0.8776764146620338 0  -0.152284897537122 0.0853891892728917 0  -0.4791527442865373 -0.03521479757702546 0  -0.3989489722335251 0.01295685057703816 0  -0.3029516626831978 0.02906416173690298 0  -0.3944254762480641 -0.1231495872358254 0  0.8891659725334001 0.6995286197961247 0  0.7941493686662087 0.9117658967756569 0  0.5804869581684398 0.2086768039550963 0  -0.5643468421360195 -0.4744851985949528 0  0.6021348308679777 0.70831573984473 0  0.6798602903683532 0.8894816116027462 0  -0.05419493341247798 0.3128631060061896 0  -0.9033371389640354 0.9056667835445326 0  -0.1341199205585215 -0.06903941514874151 0  -0.174605244528374 -0.1871237879197723 0  -0.260576610318475 -0.1476760765008525 0  0.03732830281902019 0.2097523440144549 0  0.9026804268771599 0.
[...]
<PointData  Scalars="w"> 
<DataArray  type="Float64"  Name="w"  format="ascii">1.5610508917110605e-10  1.0028904721996559e-11  4.4195828835635275e-10  2.5874465693216304e-07  6.2087018846069770e-10  1.5311671065172401e-12  8.5259848033087717e-12  7.0045209134177122e-11  3.7026428092626838e-11  2.0290887327345195e-11  1.0011841258666040e-10  9.0159839572741697e-11  4.2910504249935260e-10  2.5829647759755965e-10  8.6822541425203260e-12  5.3851669936672614e-10  8.8143768960261717e-11  6.9236166828361486e-11  1.2944452841531249e-10  3.2257145475118999e-10  6.2989710409937058e-11  1.0212163316965780e-10  5.6215774304767874e-10  5.5358374088886028e-08  5.5183886664741646e-10  9.9075751513286746e-11  8.5583248549377488e-11  1.6795329411107007e-10  7.1794088835189685e-11  1.8096852557807407e-11  4.6253945330594785e-10  8.9138572475984583e-11  2.2322075167225538e-10  1.6888904702042642e-10  4.7403515118884957e-10  2.3075230061778363e-10  7.4772269177564634e-11  4.6187204896452053e-10  5.8369406235098572e-10  2.9683549194819014e-11  4.8374817921532018e-11  1.0110141256849303e-10  8.6162570087760955e-11  1.7456898873123287e-11  1.1916408623743950e-09  8.3201851110244406e-11  3.0300389306682899e-11  9.0759079781643438e-11  1.3147080120610927e-12  6.7011471312421709e-10  2.4046294223030416e-10  2.4593334705440129e-10  7.7225504382451742e-11  2.4324608390860725e-10  2.3665150564560350e-10  1.8730223347150430e-10  3.2674402567049512e-10  8.4539550891415890e-11  6.3595073857637610e-10  2.4249772009709892e-10  2.9876587090090275e-11  3.1531696306865903e-10  3.6504145892404441e-10  1.3344737234441409e-10  5.0740535583741212e-11  1.7008280056200960e-10  6.3446071747316504e-11  1.6903361305526789e-10  2.2588715261688043e-10  4.2224099221476489e-11  6.1009455467818929e-11  4.6360109454989975e-10  5.3624334635563570e-11  8.4539795153244001e-11  1.7904100152960108e-10  1.5778537456599840e-10  2.5278535620705235e-10  2.6497885255914301e-10  1.7313644977670232e-10  1.7962253549418951e-10  6.1401831574742971e-11  2.4650121739903384e-10  3.1482360446751989e-10  1.8717859573671209e-10  2.3424462970067204e-10  1.1590186787578327e-10  4.1125557982253724e-11  1.0595579361929902e-10  8.9783990929302782e-11  2.4209038502871619e-10  6.5495270702600003e-11  9.5698403159601066e-11  7.1996100115364548e-11  8.7378127428714319e-11  4.2026844127393793e-10  1.9465921314671088e-10  2.4209324750139250e-11  8.0648176981056273e-10  2.4479533725720722e-10  2.9244873837078096e-11  2.5827264543093646e-10  4.1377539112881857e-10  7.0802406561340257e-11  9.1882502743107636e-11  1.4234994346285336e-10  6.0794783354140014e-11  2.7244320298917253e-10  7.9187017294759740e-11  1.3872814698671819e-10  6.0540244688430762e-11  3.3555124993670769e-10  2.2472429726435707e-10  2.6304886895505506e-10  6.0476624159692188e-10  1.2113983619429686e-09  1.3574727169294182e-10  1.7029964571843412e-10  9.3865666625549174e-11  4.5285194724962296e-10  2.4800617772289604e-11  2.4339652059368710e-11  2.8699342504957698e-10  9.1316630625219484e-11  5.5599503574717165e-11  5.1894505704511209e-10  5.1709821369453133e-11  7.0682675179826173e-10  1.1993508801384252e-10  7.1725844321518770e-11  7.8785451298303157e-11  3.4177674409542977e-10  1.5890880887259110e-10  4.6205683859731989e-10  1.2335563672041637e-10  7.9423369379707867e-10  4.2401648645777819e-10  9.9510811086883404e-11  4.8807101567150084e-11  1.3124008251052643e-10  2.5526297312637555e-10  1.9563361078927266e-10  6.7338647775879572e-10  8.3858260286148320e-11  1.1222698427822380e-10  6.3159522141011857e-11  6.5026779249385251e-10  8.0820243912407645e-11  2.2910571974245614e-10  1.3432766486984709e-10  1.1267761863191934e-10  1.8754019814878808e-11  2.8437338678696299e-10  1.8574900978920332e-09  5.2729042311161298e-11  1.0097654535483349e-09  7.3806274243908533e-11  2.2169530835158297e-11  2.2590975006017681e-11  1.1519161961092480e-10  5.6740133785089657e-10  4.4429944236735529e-10  1.5668027966806284e-10  1.0630857090439881e-10  1.5352348137342804e-10  1.8496871233265876e-10  5.3939116998874295e-11  7.3358685175962722e-11  1.9151317758107950e-11  5.5213674484268428e-11  2.6434555174166171e-10  8.7127728638550185e-11  9.6804089253532350e-11  7.9298226348694029e-11  8.7910269869483162e-11  5.0940327380405496e-11  8.8615200695288817e-11  4.4246612385212708e-10  5.3864015781551229e-11  1.5884785001954231e-10  2.1158323187276438e-10  4.9225777936834932e-10  1.8567211296079196e-10  2.9616784886785491e-10  1.3999372221639496e-10  1.4008384197451263e-10  1.4468946366934868e-10  2.0228618943267868e-11  2.6655184380966799e-10  6.9283480444443518e-10  2.3944440104785994e-11  2.6597972110214107e-10  8.2957078741224291e-11  1.5186691615829943e-10  1.8431453760153813e-09  1.3034281819874929e-10  1.6173172899814552e-10  2.2670412799472596e-10  2.7532965548414512e-10  9.9823215900210087e-11  1.9877358435385688e-10  3.9112368398102548e-10  2.1020812385371889e-10  2.2670371651263418e-10  1.0363599588354643e-10  1.0930381295122509e-10  1.0249081428788356e-10  6.6423995610667238e-11  2.0507133272063351e-10  8.9966867518982849e-10  7.1955692485545091e-11  9.9921935991023018e-11  7.6559932677141260e-11  9.2235305620390817e-11  1.5791437454661662e-10  3.6498984394663308e-10  7.5887783047188420e-11  7.5380554608230647e-11  9.1944238281786141e-10  6.4590487187893269e-10  2.8817330262967910e-10  1.9655444452084719e-10  7.9176588545451555e-11  7.4817217447395649e-11  3.1142388648624347e-10  5.3745399090880294e-11  7.6267334424417168e-11  4.7187725741268309e-11  8.6978889823273300e-11  3.6665557170149022e-10  8.2194072688964821e-11  1.9625062483785659e-10  1.6011534465544697e-10  9.8936595052507401e-10  5.7448128708638010e-11  1.8209439587756638e-10  1.1462479260445988e-10  1.0217641693885243e-10  1.1425764995574413e-09  6.8817778575005476e-11  7.9422990895310545e-11  1.1744199381068223e-10  1.8750313569189331e-09  3.8816921914273685e-11  7.3291072688687402e-11  2.8473564949501063e-10  2.5163267307591990e-10  3.4951786750610057e-10  1.7530604375700712e-10  2.0249320646323517e-10  3.8903875992403508e-10  2.7933243479557658e-11  9.9168600498420184e-11  1.1919778477384173e-10  3.5789879524966480e-11  3.0695719801695482e-10  4.0061613619576686e-11  3.4145556554399499e-10  1.2968701764390802e-10  1.0496783996857344e-10  1.8998346780183856e-10  4.7692645129117727e-10  7.0554407516547043e-11  2.5730202612779661e-11  1.4017941415988880e-10  7.7649938023850229e-11  5.6782975550393716e-11  7.2072919693365176e-11  1.7756073280319875e-10  4.4942529592210675e-11  2.7924806997079042e-10  2.5468407157032953e-10  1.3157995511996797e-10  1.4035054514565294e-10  1.2872035313157513e-11  6.9963931618657373e-11  1.5078936326435879e-10  1.5182026247916547e-10  5.6957673722612071e-10  3.4521265548033407e-11  7.8218754481033916e-11  3.1798094733410521e-11  2.5438765615382957e-10  1.1769707457113579e-10  1.7010496434371007e-10  7.2454480241665334e-11  7.9153709489671582e-11  1.1691289206978073e-10  1.8724014188027228e-10  2.2655129136632354e-10  2.4893501072856194e-10  4.6547502293014952e-10  2.0492855103946893e-10  2.0956122472153898e-10  1.3874004719290820e-10  7.6773317947472932e-11  1.6197581161978775e-10  1.5893131393942661e-10  7.3675297542345328e-10  1.2406308619563614e-10  5.9184892425893936e-11  4.1657426060114378e-10  2.0469908249738893e-10  1.8736361800682560e-10  1.1927313225475453e-10  3.1084150841157835e-11  4.3113577497160858e-11  9.0236080082633846e-11  7.4213586108487410e-10  3.3422141581872539e-10  1.7143553490339150e-10  1.2292110426951875e-10  3.2337313849028187e-10  6.4320130916346535e-11  1.0684061006649123e-10  3.7935684590902670e-10  1.3338878668876350e-09  9.2690116698214115e-11  2.8677362035742901e-10  6.7271761103564122e-10  1.4089714332672651e-09  2.4868118614720585e-10  1.7035032092076108e-09  4.3646673902602538e-10  2.2056490107066776e-10  1.2228738376091186e-10  3.7943816696668475e-11  6.0416120141025964e-11  1.2222671902769212e-10  1.4351770006587147e-10  5.8015332867670073e-11  1.0048802214859336e-10  1.0338076046423021e-10  1.1743518175576255e-10  2.1947075490976475e-10  5.4842699111643385e-10  3.1900014029106334e-10  1.6056198756538979e-10  9.1410041863078482e-11  5.8872105352559634e-11  5.8042402629228658e-11  6.6630467994911061e-11  1.7099415040320935e-10  2.1073596524442908e-10  9.7663297296098437e-11  9.7350435048409599e-11  2.2277157012353876e-10  1.3077929189022889e-10  6.7057429837493236e-11  5.4587388317905226e-11  1.0500570941630985e-10  3.1668373947866086e-11  1.6953684146262278e-10  3.1961055372436397e-11  1.5774420380607763e-10  1.7765430875107959e-10  1.4983169365636725e-10  3.7640845138414238e-10  7.5107909694688058e-11  7.6147131389420911e-11  1.3229852123831411e-10  2.8701628790966390e-10  1.4149372101292794e-10  2.5504855968578987e-10  1.0418055423134354e-10  1.2548962969891769e-10  1.4203910498442778e-10  2.7647374224034030e-10  1.2733117649330981e-10  3.1611839128421674e-11  1.1020787999257108e-10  1.0645545661108354e-10  1.3502222519354204e-10  2.3646039106827916e-10  1.6251516758159801e-10  3.3106323419148572e-11  1.2034662674610973e-10  2.3272956626499473e-10  2.6670916209851239e-11  3.1235487019315856e-10  1.6582767021824056e-10  4.8464518321707457e-10  1.1002261704061342e-10  2.1656564826618546e-10  3.0116970434097232e-10  6.9511371379792079e-11  1.0054226074242152e-10  2.0998087449700646e-10  6.8453923067980898e-11  4.8960489217442489e-10  1.6218002329059048e-10  9.0440188480918186e-11  1.0365392856455340e-10  2.0159397834548122e-10  5.5558672113440781e-10  5.0933211262673564e-10  1.6749798689541717e-10  1.5949672446113922e-10  1.8711314259159389e-10  3.5886653791288354e-10  4.2535474284165841e-11  2.0712421390282173e-10  7.5143364831780243e-11  1.2253684974424738e-09  1.1034148104545891e-10  4.2449444485643633e-11  6.2078951024188661e-10  3.4033725392688392e-10  2.3511016634006846e-10  1.9573984804350792e-10  5.9153423939389720e-11  1.4136296489558356e-10  3.0943767537577606e-11  4.1696275266713348e-10  7.5151451337576929e-11  1.2302169091070159e-10  1.2088758206980373e-10  6.0140765424084418e-11  3.3986513903711363e-10  4.0442640656566821e-11  1.0831991851933251e-10  2.4506457066324336e-10  1.7369608252420041e-10  7.4299073112788608e-10  8.8343343555640934e-11  5.7224686626376505e-10  1.4076533000803136e-10  4.0767998664084232e-10  6.2914051327486694e-10  2.4442289346349179e-10  1.5063653429634943e-10  2.7222193406225926e-10  5.4278947205015977e-10  3.3649943024480997e-10  6.8543896348957583e-11  4.6527629657954660e-11  1.6873672509970080e-10  3.8660534214404372e-10  1.7227229713042812e-10  1.1734557902135760e-10  1.5613727023132287e-10  7.6444874395722047e-11  6.6106206237828035e-11  1.9024963179671120e-10  5.4236129761795998e-11  1.9320436776301762e-10  8.8467736032713227e-11  4.9656451098618667e-10  4.5788519294632267e-10  7.7922545449360843e-11  3.8860341853694587e-11  3.9271824661156435e-10  6.6580015846398227e-10  2.4670997897863717e-10  1.1417541667501553e-09  2.9080606548567072e-10  3.2459602096178477e-10  3.2243604101855662e-10  2.7258014577038714e-10  9.1716453976123628e-11  2.9409316831232438e-11  1.7886604332235176e-10  9.4768556925678455e-11  1.9719589866844225e-10  7.3838922767826912e-11  1.1497137012504486e-10  2.8025819770438527e-09  1.7089140810464890e-10  7.7526324843908363e-11  7.7804853006914075e-11  4.2788486581042611e-10  2.3718993970853932e-10  1.8773762103628997e-10  2.0410869654598568e-10  4.2286043794025094e-11  7.6136841830960319e-10  2.3478295163730471e-10  5.3129700168176468e-10  2.4956989256421360e-10  2.2129487916661325e-10  2.9865171007204522e-10  9.1594821393701021e-11  3.2039172294340770e-11  3.4653928560611602e-11  4.4466474564834027e-10  3.2860712139597250e-11  1.0517682694547290e-10  1.0762791256594336e-09  7.1244790759889796e-11  3.2989661043382161e-10  2.5048813044614935e-10  5.9888758124940701e-11  5.6055941057089945e-11  1.8532665232568285e-10  2.5302417760802169e-10  4.6410387902551728e-11  1.0753295761899155e-10  1.5142874530838943e-10  7.3468233251650948e-11  1.6072282292752000e-10  2.5075079165547319e-09  3.5576983917899927e-10  3.1299587203910305e-10  1.0841232402679481e-10  1.0273537584976494e-10  1.7308154920379737e-10  7.4569886622907798e-11  1.2685878680404331e-10  4.5573016888404626e-10  8.1505168949845204e-11  2.2186184880362678e-10  2.0430041458153181e-10  1.3601942180873162e-10  4.6801350712337150e-11  6.9423180607473382e-11  4.9369380668633816e-11  1.2749519840243288e-09  9.8098920426641587e-11  2.1793045400092360e-11  5.7567566851063646e-10  2.9040568596758741e-11  6.1287852198006616e-10  1.1625401701806841e-11  3.3446102532346308e-09  1.8329928721272434e-10  2.4126909076975134e-10  9.4393115128705599e-11  2.7275377779860319e-11  7.7913635536658060e-11  2.5977778001925903e-11  1.9226893607622260e-10  3.6693133543284924e-10  2.6305979289657518e-10  5.0300536638007789e-10  2.3056542178120444e-10  8.6609116476214411e-11  5.8429073101985851e-11  3.9229687094290431e-10  4.8491601457705082e-10  9.8799741746058205e-11  9.2039648548864739e-11  1.3397471912054156e-10  7.3466461592507688e-11  4.2512248753977683e-11  4.8611533067264221e-11  2.8951843323455351e-11  8.6316243341031921e-12  1.6892402022941896e-11  9.2549282443069749e-11  2.0641120052811933e-12  1.0122023670174242e-11  1.9351184712373567e-10  3.7043603480913303e-09  2.0065835152412562e-10  3.8520789089249786e-11  2.0796225945252838e-10  8.7437698888554609e-11  1.0663348439545262e-10  4.1966888887263508e-11  1.5684300886731127e-11  7.9951842095493203e-11  1.0165318394537067e-09  7.6156734385559585e-11  1.8160291977921004e-10  3.1304580895558916e-10  4.8113073272289837e-10  9.3392983793660795e-11  9.8463287408716913e-11  5.6210448895137603e-11  7.4551435400665595e-11  1.0186249568407896e-10  5.2990276205740033e-11  6.2731246358519266e-10  5.7355778728695928e-11  2.8121123422252687e-10  8.1423973283928079e-11  1.2301737750016549e-10  2.8752005909559108e-10  4.0143101730073903e-11  5.6430391227953844e-11  2.5183945041799273e-10  1.0956722838898076e-11  1.0637295143299076e-10  8.5869511032817814e-11  7.3764276819654961e-11  5.5025470797200112e-10  1.7036719377027947e-09  3.2330735176600323e-10  2.9274083504202172e-10  8.7668740754059283e-11  6.6508866492649414e-11  2.3137190495074905e-10  1.1150597916013680e-10  9.3979349919801874e-11  9.6166760139046237e-11  1.8009550725323687e-10  6.9076994089244173e-11  4.9649727331001772e-11  6.6398782383309272e-11  3.7847534325091379e-11  8.2600381756916077e-11  1.9663116839640671e-10  1.5978412677978457e-10  1.0943479845251776e-10  2.8165304024621905e-10  4.3598180434713810e-11  1.3173222164730841e-10  5.3597997235024668e-10  6.1164029454710196e-11  1.0821774336124236e-10  1.5013076797690345e-09  5.6053751324392115e-11  3.5028786250393291e-10  5.5125475500435999e-10  1.5825447341175359e-10  1.2067796327418575e-10  1.2328723022109802e-10  8.4901177370518559e-11  3.4591112116684612e-10  2.8926128149793181e-10  1.7541153125888081e-10  4.8443537719980341e-10  4.2157703449939022e-10  1.1065786696439507e-10  1.8986009711305003e-10  6.3644584839981086e-11  7.9321438457065582e-11  6.0485322964831199e-11  2.1943310267914137e-10  3.9151193905176247e-10  3.0229668978090847e-10  3.1634685989196077e-10  7.9640420968226933e-11  2.5241697479116984e-10  5.2196191514270652e-10  1.5889570161037705e-10  4.3088590143603733e-10  1.7078644235829950e-10  1.3309149213032578e-10  1.0534082078116942e-10  4.9693429935929938e-11  5.1941743918805886e-11  3.2202375867474079e-10  5.7709182816607377e-11  6.1957644967407691e-11  1.2351504368477089e-10  3.1077615372751996e-10  3.1238213245621500e-10  1.5058041625705407e-10  1.1370534907848606e-10  6.7792892322167596e-10  6.3146335089321531e-10  2.1176131273344107e-09  3.3543161841251724e-10  2.4182727133195685e-10  5.2261503580521019e-10  4.3146115155770737e-10  1.7188869879332467e-09  3.1470823316663920e-10  2.3232754902682558e-10  3.0835606422931479e-11  1.1739975974311533e-10  3.4860852269926572e-10  5.3203143164814231e-10  2.2630948211103027e-10  6.7050271457994932e-10  2.8224022929950028e-10  1.9947162957033108e-11  4.5673254449826450e-10  3.5253641644581964e-10  3.6656781432775949e-11  3.2184720340308134e-10  4.0483443278036799e-10  5.1520681488119505e-10  1.4117000680887842e-10  6.3998701839748939e-10  1.8017415837030440e-10  4.4386985881674508e-11  1.2165430142386170e-10  1.2323809537721297e-10  3.1950481426735965e-10  7.2949555046124624e-11  2.4051642202009716e-10  1.7817480908637417e-10  7.3940970810237284e-12  2.0812842724789433e-10  5.5933976216192547e-11  8.6178842420805011e-11  1.2099483371969832e-10  6.6233509876268266e-10  4.6296947304140789e-10  3.2027386875906633e-10  1.1337114802852637e-10  1.2172792352826962e-10  1.0156687717566998e-09  6.8774927986649907e-10  1.2973615219901139e-10  1.3723648382328909e-10  8.9774642889316813e-11  4.6749671812508074e-10  1.2650192798359657e-10  1.5972921314209469e-10  8.6865309179607503e-11  6.7880199552484627e-11  6.1437231936420948e-11  1.4439554767764880e-10  9.4047339394732174e-11  1.2174855258758029e-10  3.8619698208474827e-10  7.0627449742952365e-11  7.1542720046976633e-10  1.1702143171843808e-10  2.2074302126420463e-10  2.5201905888400175e-10  6.3208178983644557e-10  1.0808351201640599e-10  3.8143384908486611e-11  5.8013574786945239e-11  1.3834669456948801e-10  1.5188941436850869e-10  4.8351146527599867e-10  8.0444736683254678e-11  1.4492028633170385e-10  2.2745391984144826e-10  1.3056521446359734e-10  2.2307434553091094e-10  3.1963216473630184e-10  3.0749204822741804e-10  9.5697360526178936e-11  1.7114123119560271e-10  1.4090120858134863e-10  2.1492526371419975e-10  4.4846558316647144e-10  3.7095893457530690e-10  1.9954917939415598e-10  1.8226527819211632e-10  1.1318838711442439e-10  1.6201311516994148e-10  3.0361793464539572e-10  3.7197660899515923e-10  3.5460199649290001e-10  1.6500800002794528e-10  2.1228376475937157e-10  1.8594123394345929e-10  1.3933866966649559e-10  3.8277071508168971e-10  2.9286126347249396e-11  9.8759228652942536e-11  1.2318659917159727e-10  2.6519109373609323e-07  3.8430615759248984e-10  1.6796666299484990e-10  5.9852182697574579e-11  2.5170630053190051e-10  1.3244537743218998e-10  5.8411008230070396e-11  9.8452706074531498e-11  1.9935082849332129e-10  1.9522510185534985e-10  1.8206643649507944e-10  1.7670431321618119e-10  2.8235928530738912e-10  5.9229669420661649e-11  7.5665272056542506e-11  1.7744338199222906e-10  1.1826525815021312e-10  3.3679845260277939e-11  3.7125274493156229e-10  5.9301004224600813e-11  5.8574067013186461e-11  1.8559431299633642e-10  8.9965426662699441e-11  2.2734231395111680e-10  2.9174286525569782e-10  3.0445902136003035e-11  7.8555094082152486e-11  1.6842142910612840e-10  9.0623328324642439e-11  3.1008878273502439e-11  8.4970105447110761e-11  5.6628354470118959e-11  7.7896024859077268e-11  2.9973245283301575e-10  4.3713667204375592e-11  6.1627193816576932e-11  8.8992838835682082e-11  8.7232234716531934e-11  8.7770689581317048e-11  2.7534640615157893e-10  8.3558844024818390e-11  1.7494970966899256e-10  2.0787598198898260e-10  1.0246752247273840e-10  1.5549077773243121e-10  3.0642054288675207e-10  1.1363851868160342e-10  6.6177530468513198e-10  1.5790178113219463e-10  1.3903859181224575e-10  1.4172982319086993e-10  2.0432803806212281e-10  4.2359072187967906e-11  3.8107903042589070e-11  7.1764756496430259e-11  4.3026150001169807e-10  2.0809339204620956e-10  6.1976840071152001e-10  4.4534247090763326e-10  1.1436164460770142e-10  5.5536311536603285e-10  3.5888509432070802e-10  1.7788799618432608e-10  6.5635301174842395e-11  8.6838028129995886e-11  1.7051476948221212e-10  1.8748347367265052e-10  3.8637445910728162e-11  4.7497458727799318e-10  2.6630496624987439e-10  3.1486560978097897e-10  5.0722802662141455e-11  3.2388956286124897e-10  2.5279692669437071e-10  7.8928460121011003e-10  7.0390549750193041e-11  5.7177756614108477e-11  2.2947003586638655e-10  6.7743933604563684e-11  3.9244667028694092e-11  1.3402907393656941e-10  2.2883539434465770e-11  6