<?xml version="1.0"?>
<VTKFile type="UnstructuredGrid"  version="0.1"  >
<UnstructuredGrid>
<Piece  NumberOfPoints="4852" NumberOfCells="9430">
<Points>
<DataArray  type="Float64"  NumberOfComponents="3"  format="ascii">-1 0 0  -1 -1 0  0 -1 0  0 0 0  1 0 0  1 1 0  -1 1 0  0 1 0  -0.5 1 0  -1 0.5 0  -1 -0.5 0  -0.5 -1 0  0 -0.1608775713298009 0  1 0.5 0  0.5 1 0  0.1967448868031411 0 0  -0.3403055780558724 -0.1756871383771849 0  -0.3363728803132581 0.2239004043230733 0  0.1738896082444375 0.3456777698860354 0  -0.1846479624466233 0.5545743395053305 0  -0.5034709480150594 -0.5372501939169294 0  0.4904364612065785 0.2566823704603836 0  -0.06421574286453303 0.2007403015515903 0  0 -0.5061325913258391 0  -0.25 -1 0  -0.5609326309959582 0.5769890996976665 0  0.6613545170767441 0.6334584253205925 0  -0.1775541019881043 -0.5374636170981143 0  -0.5384614814550808 0.02526112626530557 0  -1 0.25 0  -0.2058396927793965 0.02370540606617214 0  -0.6541596457261593 0.3090103410557908 0  -1 -0.25 0  0.03923139849744105 0.5912727766767462 0  0.1950452014815208 0.1286056785311651 0  -0.136299720263305 -0.2197031814579621 0  0.3708800575438556 0.613978308076208 0  1 0.25 0  0.5355652144809806 0 0  -0.75 -1 0  -1 -0.75 0  -0.6446944423072838 -0.322879652590011 0  0.25 1 0  -0.9999999999999999 0.75 0  0.02757118475249542 0 0  -0.25 1 0  -0.75 1 0  1 0.75 0  0.75 1 0  0 -0.02898318711980711 0  0.05421822280502755 0.1420307859877288 0  -0.07758129637186416 -0.02777454328026299 0  -0.7008034794320261 -0.1324014549274223 0  -0.321455022941704 -0.3470775660819348 0  -0.3396645336057843 0.4368738712191403 0  -0.09972683941356376 0.7639350848417501 0  -0.3826952526076892 0.7023535779699669 0  -0.05463087726124286 0.3984578858806472 0  -0.0787763099180698 0.07185089050543612 0  0.3588273654741902 0.3690790048269659 0  -0.7158001030042476 -0.7298125164733965 0  0.4118020037709876 0.08973623680382835 0  0.6899454089341926 0.1914137753129372 0  -0.747206383569906 -0.5267876886064577 0  -0.387460158445825 -0.7105341378496642 0  0.7215532945859284 0.4182246340993277 0  -0.7758088809643815 0.09681774935452489 0  0.1966685351297534 0.6982979318357304 0  -0.1983169184295311 0.288088100710559 0  -0.7986781656580079 0.577234969607354 0  -0.7166192504264182 0.7661705576674478 0  -0.05263689552082189 -0.3731145856506178 0  0.5845587736018099 0.8164040525503635 0  0.8203162778011979 0.8058873436049413 0  -0.1067750453458775 -0.6974813865250694 0  -0.5140204422687353 0.1623956828645299 0  -0.2015024676970184 0.1254096396000254 0  -0.3587418310869379 0.07512489978381279 0  -0.3647110781922822 -0.05238513774337889 0  -0.4961827892307545 0.3945842240562515 0  0.375 1 0  1 0.125 0  -0.01183175643103777 0.07113628674642963 0  0.06215966452471014 0.3913901755983246 0  -0.1711540653639981 -0.1223100184271513 0  -0.2425934330019396 0.7734370676581249 0  -0.625 1 0  0.5333050340589848 0.4537774083116852 0  -0.5757722191375185 -0.8300143183974786 0  -0.2578049870964511 -0.7836626808334098 0  -0.3198334113807993 -0.5081903752089841 0  0.8339583944072249 0.5949746878719592 0  -0.5483257528601405 0.7906343437971189 0  0.125 1 0  -0.06735481645876921 -0.09336652068233832 0  -0.4941582880754436 -0.1432248636039105 0  -0.875 -1 0  0.02954600303252413 0.04155801617900149 0  1 0.375 0  -0.8750000000000001 1 0  0.05735460376004133 0.7937214673916695 0  -0.1964850359008546 -0.3732855330072976 0  -0.07260420554883468 0.5706717124800681 0  0.2363552662565467 0.5174504036735603 0  -0.7920225870498429 0.2291688154518327 0  -0.4947914542229529 -0.3888708113132521 0  0.0002004341131672821 0.2707668771075203 0  0.5097258263307567 0.6397776065956278 0  0.3987186937159806 0.8070973338697491 0  -0.8058886399961593 0.4242094482461355 0  -0.06434670944441255 -0.2204006219752702 0  -0.7092966785607512 -0.01427527035380793 0  0.09049188795641437 0.05238662271436857 0  -0.4777801491244089 -0.2511722138577022 0  0.7238566698105506 0.0827787808940159 0  -0.8084239165525573 -0.4108902865843609 0  0.3374731969971638 0.1533199673239072 0  -0.7942592080753925 -0.2507522557279699 0  0.2362621127337618 0.2539450477567968 0  -1 -0.875 0  -1 0.875 0  0.1842878462757071 0.04779861297438424 0  -0.2472586067723495 -0.2289408987969259 0  -1 0.375 0  -0.1708121114213125 -0.04175646484611811 0  -0.6484614963787134 0.4670729232725505 0  0 -0.07736776745332727 0  0.08043128510667415 0.2595483484053038 0  -0.375 1 0  -0.2164978828385737 0.4243470363423519 0  -0.1198363314348982 0.1499427217002045 0  0.133216042697976 0.5537323898031224 0  0.1319090703887625 0.1935013220201691 0  -0.4742804232878739 0.269114269969714 0  -0.04611131480504723 0.01391600112883127 0  0.8514277660306824 0.3699888784845811 0  -1 -0.125 0  0.2854651226323267 0.8367223514575055 0  -0.1105062930470953 0.3126752317587212 0  -0.125 -1 0  0 -0.7575037395175258 0  0.07821397079968176 0 0  -1 -0.375 0  -0.375 -1 0  -0.625 -1 0  0.7474787146812756 0 0  0.625 1 0  0 -0.2918843213980812 0  -0.9999999999999999 0.625 0  -1 0.125 0  -1 -0.625 0  0.3284075310660084 0 0  0.004929205892015135 0 0  -0.125 1 0  0 -0.006571003003944568 0  1 0.625 0  0.9999999999999999 0.875 0  0.875 1 0  -0.5622929543158478 -0.676244545888316 0  -0.004634807602617902 0.1600254338991363 0  0.3623138638536345 0.2626937042914684 0  0.6529545067566569 0.2935896295471243 0  -0.8545131938236387 -0.6465036876688852 0  -0.863535566559299 0.7871926251815969 0  0.4303120812469062 0.5009701738258239 0  -0.3981779207127588 0.8557633850613627 0  -0.7787041065242444 -0.8746808814743476 0  -0.8703543894622932 -0.7843131748404453 0  0.1541722550883645 0.8420491379836572 0  -0.6581998280663693 0.1524575863064803 0  -0.5772354325417474 -0.06423986753899651 0  -0.8544182630902711 -0.06258730217489006 0  -0.2954879076099021 0.5618599207598566 0  -0.4232180121337039 0.569610579716056 0  -0.3755939531214769 0.3307008307463011 0  -0.6179713321873922 -0.216306392798136 0  -0.2725044862539712 -0.09002987606796806 0  -0.6397201712179752 -0.5883613955618437 0  0.8597207984781506 0.2658476307722493 0  -0.03277377627397768 -0.0329153308514412 0  -0.05464683810472531 0.1144387196765703 0  -0.1334212906214178 0.4316695033220688 0  -0.1196007857485274 0.03235256896136344 0  0.5377512986731983 0.06453224176174575 0  0.5791961280874799 0.3590025578010559 0  0.6912447629066318 0.7746552551735939 0  -0.7936574450957893 0.8811556936635719 0  -0.6429696863816134 -0.4289775226621609 0  -0.1179357202710635 -0.3966000034646062 0  0.8722070585286538 0.4885152661323283 0  0.07593790773654818 0.09375275794849673 0  -0.6645634234047446 0.8681781778546526 0  0.4545554262121631 0.3502998452517556 0  -0.0262560469826036 0.0358023882784177 0  -0.4088787910844221 -0.440097415482002 0  -0.3615622679217444 -0.2686776896758852 0  0.3234277955606834 0.4814618760973162 0  -0.195757017404431 0.2012608144890683 0  0.7056026640161629 0.530521655651405 0  0.2617261329442763 0.3557746432862883 0  -0.3766211084532759 -0.8518242374775379 0  0.1091733645396804 0.6817652888044026 0  -0.2851881206192548 -0.6118317972147613 0  -0.441057712485049 -0.6199574572588232 0  0.2960879420488077 0.6921092292038975 0  -0.8747404078348552 -0.1747740011343208 0  -0.1799046355349928 0.8549138626668418 0  0.4546981149993409 0.1632225243838752 0  0.2802574817607679 0.04663203459284734 0  -0.1420443178322475 0.6572324393829228 0  -0.01125787454412968 0.7084170013667044 0  -0.05326779010861114 0.8749895487903228 0  0.005514632854185257 0.4695319943123511 0  -0.3873245224990417 0.1532763582915737 0  0.5491427044203772 0.1330987117676636 0  -0.4755071081090714 0.6822497427080999 0  -0.8513751862895685 0.332687078753264 0  -0.09358439636617809 -0.536087206609325 0  -0.02893927142938661 -0.5521975858782739 0  -0.2136556726301231 -0.287446319600807 0  0.8685100825175632 0.1514805729343392 0  -0.1707700322696831 -0.660983118107762 0  -0.88912039345668 -0.528367404292771 0  -0.2813324654177067 0.3380465432657358 0  -0.6760291712006679 0.573939293012888 0  -0.8973765191866659 0.5313769166254412 0  -0.8983811936554296 0.6609769594412991 0  -0.6440924454601212 0.07219833554127955 0  -0.8590212008727799 0.02849096412495877 0  -0.8880588853088828 0.1677658912731568 0  -0.1299238776595077 0.2287562852139204 0  0.1603317319315477 0.4459379393481223 0  -0.04351176346763021 -0.1257470479483655 0  -0.7533290004767939 0.6699241998804241 0  -0.6022444570351831 0.697780585914769 0  -0.254123850752639 0.07843023267372951 0  -0.2489890310887994 0.6486243820466302 0  -0.02739005288778328 -0.006343471473709531 0  -0.4942487194078125 0.8769878558806679 0  -0.476545771098219 0.4902850711634992 0  -0.2901268134400916 0.143882501344848 0  0.002274073525284535 0.02360493142397037 0  0.7794636514931406 0.68346523274531 0  -0.4697095381459092 -0.8247579085224581 0  0.2718823333938218 0.1948203305311445 0  -0.1490675388952431 -0.8634163728038536 0  -0.06552220759345068 -0.8297891736367581 0  0.4431977387053445 0.7058230952662248 0  -0.1176929979728647 -0.2879606992247233 0  -0.2646302076350375 -0.02620051207055172 0  -0.8938720101063564 -0.8964894095223502 0  -0.5725930095225789 0.2369579267459922 0  -0.475799231505855 0.08740832916357362 0  0.4911219480027567 0.8257517386924785 0  -0.02829806169930755 -0.2602087884532182 0  -0.3099295394426061 0.8754121797828963 0  -0.1428386223705939 0.08044958894965919 0  -0.4689756520814875 -0.03496917047383966 0  -0.3876667073428332 0.01203339949898533 0  -0.2914526381715875 0.02749331155792843 0  -0.3846074371698878 -0.1204459941809666 0  0.8881618928384371 0.6979911858746369 0  0.7927979316529941 0.9108500734591728 0  0.5766242601583776 0.2077772663159423 0  -0.5597100651391582 -0.4692086853629607 0  0.5987378111417934 0.7058218877885376 0  0.6781810586891914 0.8883811401105824 0  -0.05092439001162916 0.3029221843891287 0  -0.9023267292976499 0.9047750430165202 0  -0.1273536722295247 -0.06708306881777677 0  -0.1689039196470217 -0.1824448201350851 0  -0.2521168572153382 -0.1436408581456306 0  0.03708366918959575 0.2014509889480408 0  0.9
[...]
<PointData  Scalars="w"> 
<DataArray  type="Float64"  Name="w"  format="ascii">1.7473334989446171e-10  1.0277296561193698e-11  4.4446599551186005e-10  2.6211199486299202e-09  6.2412383325970819e-10  1.5525862666360558e-12  8.6495314773591634e-12  7.4799480244234330e-11  4.0462245110872050e-11  2.1145901263678010e-11  1.0844385863284954e-10  9.6143638809655896e-11  4.0290823986070839e-10  2.7728808907824364e-10  9.1162676846768578e-12  5.2422446490233718e-10  9.0860931227261254e-11  7.2351747899814729e-11  1.3077356676871286e-10  3.5679949021634511e-10  6.6972475739541864e-11  1.0397544858277994e-10  5.7332544901302135e-10  4.2662752785953542e-09  5.7480595883863501e-10  1.0886943028446670e-10  8.9321963199154509e-11  1.6904996688083232e-10  7.6692917659849968e-11  1.8820138370065974e-11  4.6829416297230703e-10  9.8237754958488760e-11  2.4433619805995663e-10  1.8163344820414031e-10  4.5403979136416555e-10  2.2513311042460639e-10  7.8416742451429262e-11  4.7917909790879117e-10  5.8656280246238470e-10  3.1176115518616313e-11  5.2344655271389806e-11  1.0853448914215289e-10  9.2680702667427520e-11  1.9472205256105268e-11  1.0475554648464604e-09  8.7872731132505115e-11  3.1944476459440308e-11  9.6233183694011315e-11  1.2477252886537232e-12  5.8829330408666551e-10  2.2041318256107659e-10  2.1330974261423788e-10  8.2789410672002604e-11  2.5180084650940231e-10  2.5984287030107660e-10  2.0673071756778369e-10  3.5939868029578416e-10  8.9187106187089799e-11  5.7720781887762098e-10  2.5175766934555432e-10  3.1504859585685570e-11  3.1438995340847503e-10  3.7868274456764087e-10  1.4408386746607944e-10  5.4002095101603837e-11  1.7834532988263730e-10  7.0739572001713380e-11  1.7941190126849749e-10  2.3351534704983124e-10  4.6025137829251859e-11  6.5186160934499041e-11  4.4810882114469103e-10  5.7070515565910158e-11  8.8515473457633847e-11  1.7405021348859524e-10  1.7071845853810496e-10  2.5626291527783452e-10  2.9059645158331532e-10  1.8306655201059295e-10  1.9661365709653600e-10  6.5051914878643555e-11  2.5208730842279965e-10  2.6205314233106705e-10  2.0114528271521047e-10  2.3379828507468559e-10  1.2560497887132096e-10  4.6299103782815928e-11  1.1008150722427023e-10  9.4992042721039952e-11  2.5092774650861088e-10  6.8870040983198587e-11  9.9900552876713138e-11  7.8712179724674817e-11  9.4544190558208483e-11  3.8856384833604166e-10  2.0992461628228201e-10  2.5454329947426609e-11  6.5170838642747619e-10  2.5720012578214129e-10  3.1380598260554676e-11  2.7829453810793864e-10  4.1165008754990908e-10  7.1059446952785987e-11  9.7034305467659688e-11  1.5724675266186411e-10  6.3510455214988590e-11  2.7395612112393387e-10  8.3742552124477175e-11  1.4801516707504863e-10  6.6325961899248045e-11  3.1129373598805159e-10  2.4885175302879250e-10  2.3133430693397359e-10  6.4505572379363269e-10  1.2107964882491695e-09  1.4902915341265081e-10  1.6486368495589826e-10  1.0223207294424313e-10  4.5859175938426252e-10  2.5921923497661620e-11  2.5500192561822685e-11  2.7775730947775620e-10  9.1045829325692234e-11  6.1407885873493174e-11  5.0128808515438518e-10  5.7562870199468603e-11  5.9558141758310278e-10  1.1832328542438880e-10  7.6987132658138069e-11  8.2637905467095978e-11  3.4159514971134720e-10  1.7306037632186485e-10  4.6506389091138135e-10  1.3515908303962383e-10  6.1970204294805457e-10  4.4681623333041833e-10  1.0934795884134200e-10  5.2125374479699334e-11  1.2999575717955681e-10  2.5679737019206100e-10  3.5484396807245265e-10  6.0250430382761819e-10  9.3556045273677600e-11  1.1886525339077692e-10  6.8605774019129417e-11  6.5583018268078418e-10  8.6136368495922782e-11  3.2743548259203702e-10  1.4774487334643473e-10  1.2425265602230678e-10  2.0046452259330459e-11  2.8295507012200680e-10  1.5759127068011903e-09  5.6775872407742461e-11  9.5992622341289585e-10  7.9088119194975558e-11  2.4170412976778938e-11  2.3907402066620155e-11  1.2239074554961924e-10  5.5902955260573437e-10  4.4357216776858103e-10  1.6105513816750540e-10  1.1575927071829855e-10  1.6692411674378835e-10  1.8802641715492262e-10  5.8693754648323835e-11  7.8240601765795756e-11  2.0347059252723369e-11  6.0122884542603113e-11  2.9678725838366795e-10  9.2100183669599946e-11  1.0624966471489183e-10  8.2615779318219853e-11  9.6775858875646483e-11  5.3339002533309377e-11  9.6063367631767039e-11  4.5578784926742649e-10  5.7122825715203979e-11  1.6407457026392523e-10  1.7139627851326757e-10  4.6276890995315929e-10  1.9873227705599812e-10  2.8204988229009839e-10  1.4267745627959501e-10  1.4513288371778084e-10  1.5189779729303271e-10  2.1200341583904360e-11  2.8950889562393366e-10  6.5297094407489624e-10  2.5589243280981029e-11  2.5073468239285958e-10  8.9816457135566563e-11  1.5806303635151210e-10  1.1067444570891411e-09  1.3679113252295838e-10  1.6310721089425635e-10  2.3468769864021277e-10  2.8744004502768252e-10  1.0644450861685129e-10  2.0467397514195955e-10  4.1940396535271530e-10  2.2004310466468122e-10  2.3973398469988836e-10  1.1011443592737307e-10  1.1300403169747618e-10  1.1322336696600459e-10  7.1720965337756656e-11  2.0842295344410757e-10  8.8331200950477884e-10  7.8075350055745402e-11  1.0829924389461256e-10  7.7919274705971377e-11  9.7114225543877163e-11  1.6237283040889691e-10  3.7735496498859265e-10  7.9879988089620476e-11  8.5779333271236926e-11  7.9650214611562494e-10  9.7423359167791966e-10  2.9227645153568873e-10  1.9963396707080222e-10  7.6297622014582414e-11  8.1395110590192985e-11  3.3757689707837314e-10  5.9036102026134729e-11  8.4083419269427871e-11  5.0294911121665440e-11  9.3791020573139708e-11  4.1610893170790237e-10  9.0793068466933676e-11  1.9708837824310339e-10  1.6665447993069218e-10  8.9934632150817457e-10  6.2118936819205914e-11  2.0036577497573566e-10  1.1527619891119749e-10  1.1258792577911257e-10  7.4688306671424519e-10  7.5825903352338233e-11  8.5777002306126763e-11  1.1803101201721241e-10  1.1102274201306845e-09  4.1226017270428107e-11  7.7693602580408638e-11  2.7869090005606079e-10  2.5201918137545292e-10  3.5018203202533660e-10  1.8421378998716966e-10  2.0606904220017470e-10  4.0446746253496603e-10  2.9467568396811627e-11  1.0587647255558964e-10  1.2850495721830155e-10  3.7749111870542722e-11  2.6980983426964544e-10  4.3778913517662070e-11  3.3358102102489435e-10  1.3592399273065881e-10  1.1044087164456354e-10  1.9126428074270206e-10  5.0377498270561996e-10  7.3689053756201222e-11  2.7048676354829636e-11  1.4462463576259981e-10  8.2280471354101926e-11  5.9893170882663203e-11  7.6712966372567181e-11  1.7895233983794751e-10  4.8855063549507441e-11  2.6344881699954033e-10  2.5409782580655674e-10  1.2842949030957782e-10  1.2856882953291319e-10  1.3665022961312602e-11  7.1385595058014695e-11  1.4639189988661746e-10  1.6938946198012668e-10  4.9666561725069414e-10  3.6891931556926558e-11  8.2361244847733952e-11  3.3398336548603674e-11  2.3802745385879137e-10  1.2609654171288281e-10  1.8625531117841425e-10  7.5258221481732419e-11  8.8647867047083807e-11  1.2059704020118829e-10  2.0319223185355563e-10  2.2409309740050162e-10  2.6123588928229376e-10  4.3718232221008301e-10  2.1448497226319648e-10  2.0961593409534181e-10  1.4562623713955264e-10  7.9626946478171097e-11  1.6994748487377972e-10  1.6455307926975139e-10  6.2427504635825062e-10  1.3037573339552200e-10  6.2342695263162445e-11  4.0650921504488349e-10  1.8936356654087496e-10  2.0967481426117960e-10  1.3130438041735576e-10  3.2797717526997569e-11  4.4981984872333867e-11  9.9069007212450007e-11  6.7837033091231552e-10  2.9283824379533741e-10  1.8094201847474394e-10  1.3707109155682905e-10  3.3439802883393638e-10  6.7176697171283120e-11  1.0888487180527053e-10  3.5200120425047295e-10  1.3381173940857311e-09  9.9515312845016246e-11  2.8221263111322983e-10  6.1279301845398198e-10  1.2265927391756705e-09  1.9758524486392181e-10  1.5234360441266808e-09  4.1786256350861729e-10  2.2599052535880313e-10  1.1595573648738050e-10  4.1970779242726601e-11  6.6135284901815525e-11  1.2660256433628683e-10  1.5699391786408165e-10  6.3834317269664284e-11  9.8650299029939700e-11  1.0695349516041522e-10  1.2751745350945143e-10  1.9216205434352797e-10  4.9630962302419897e-10  3.1845015176417149e-10  1.6657550688681375e-10  9.6256449591828184e-11  6.1845138074360302e-11  5.9389972256243840e-11  7.1041289058415788e-11  1.8268555618160720e-10  2.2867562134467903e-10  1.0651081773675460e-10  1.0632513738851716e-10  2.3926500746017113e-10  1.3704855035906182e-10  7.0169423450375879e-11  5.9594229523114838e-11  1.0548628603044556e-10  3.4337707919859805e-11  1.8815341108236406e-10  3.3209540170631509e-11  1.6096632572742597e-10  1.7956970757807408e-10  1.5173202726208090e-10  4.0080169795499185e-10  7.9558645320891220e-11  8.3215377997001579e-11  1.4581877228643285e-10  3.1058246360690563e-10  1.4276288296482569e-10  2.6345055839836561e-10  1.1110095028193931e-10  1.3646631272480976e-10  1.5870866889506246e-10  2.7645685992685156e-10  1.2746010173430365e-10  3.3898976258720431e-11  1.1858495076553660e-10  1.1247740071843514e-10  1.4830093241273861e-10  2.5506645707982478e-10  1.7215973754541348e-10  3.5112389034750289e-11  1.2980789864291143e-10  2.2962896922368420e-10  2.8957825093304707e-11  3.3030305313869871e-10  1.6345156346042082e-10  3.8842504410021844e-10  1.1239743852774178e-10  2.3872399534678657e-10  3.2563362576497054e-10  7.5968153505719780e-11  1.0607374180650413e-10  2.1947770399140383e-10  7.3670861294126235e-11  4.8215518118847393e-10  1.5936247242304957e-10  9.8664191380221395e-11  1.0925824041651515e-10  2.1070798138984563e-10  5.4113045967273153e-10  4.7622177468287672e-10  1.7987905499677403e-10  1.7304550733231687e-10  2.0944576341585792e-10  4.0253417873327031e-10  4.5650635843513472e-11  2.2686165470123429e-10  8.2086646109359753e-11  1.2402818575638578e-09  1.1819416703749622e-10  4.6094248995410656e-11  5.4797971396669847e-10  3.3096492511490860e-10  2.4691515070650351e-10  2.1243639761880125e-10  6.4317704710849896e-11  1.5401082941030379e-10  3.3721859138917922e-11  4.3828462343177256e-10  8.2490798477375082e-11  1.3767484217226364e-10  1.2780448828591823e-10  6.6361377649097264e-11  3.4882127314632933e-10  4.3273379152540320e-11  1.1843490052899129e-10  2.4369016722563948e-10  1.7860809583820001e-10  7.1123219908106832e-10  9.3253622524754254e-11  5.7538201520918169e-10  1.4892783824270759e-10  3.5338617414837463e-10  5.4918268713303475e-10  2.4340307908853162e-10  1.5500828051226001e-10  2.7197207270398121e-10  4.7989069918580788e-10  3.4487591523812653e-10  7.5627982002704893e-11  4.9744925014861418e-11  1.6335557442746309e-10  3.5635512580361154e-10  1.8757507101762525e-10  1.2714372994690804e-10  1.7204676355807535e-10  8.1883476400147467e-11  7.1844053262213877e-11  1.9970889120305967e-10  5.8366644435065856e-11  2.0796633375752304e-10  9.0839249580813907e-11  4.7951208847963390e-10  4.9941978871431939e-10  8.2329634018718552e-11  4.1770693573946604e-11  3.9610243833082792e-10  6.4783802874444614e-10  2.5870065381198518e-10  9.8322326278480516e-10  2.8754194008904628e-10  3.1659344378550233e-10  2.7216908422971908e-10  2.6555977247728829e-10  9.7967981287650264e-11  3.1278576469785700e-11  1.9449276631609929e-10  1.0574444303784977e-10  2.1559236761851118e-10  7.5474848473778739e-11  1.2495227811159745e-10  2.0433214584272478e-09  1.7681155168371384e-10  8.1221084662304346e-11  8.3097020249400294e-11  3.9929608307368634e-10  2.4242242837004608e-10  1.8968495492353029e-10  2.0795704419927057e-10  4.4903411537315471e-11  7.5406769856886231e-10  2.4218884989631866e-10  5.3454919598195398e-10  2.4916929130947987e-10  2.4242704945421238e-10  3.1303749690561971e-10  9.4493229714041328e-11  3.3035459646923138e-11  3.5975612854401222e-11  3.6753876747530131e-10  3.5736552448337027e-11  1.1670361879847414e-10  1.0196065197764226e-09  7.5240959913628891e-11  3.5189159536450301e-10  2.6361731616666582e-10  6.2219286957072042e-11  6.0258825124722752e-11  1.7931141023425134e-10  2.4506691968493269e-10  4.8866435905164666e-11  1.1321579127938698e-10  1.6187563677752010e-10  7.5746970684522219e-11  1.7115203209841442e-10  2.1187241944277789e-09  3.6223265387633329e-10  3.1935740988055756e-10  1.0686846481068398e-10  1.0842563916782345e-10  1.8843438932079337e-10  8.0562067295955260e-11  1.3457903998385083e-10  4.9864008681095914e-10  8.6987161924053283e-11  2.4293145021044747e-10  2.1678246682980114e-10  1.3906645933423765e-10  5.1341893032668472e-11  7.7803763633744310e-11  5.5450820957717941e-11  4.9988983430051364e-10  1.0661511079403194e-10  2.2088235198860417e-11  5.7035933753820373e-10  3.0665637212538156e-11  6.2096395549917107e-10  1.1672205135970518e-11  1.0397488026979315e-09  1.7505595428071870e-10  2.4671537087092803e-10  1.0525794448967333e-10  2.8579434885053415e-11  8.5872844259407947e-11  2.7991630351494616e-11  2.0784355781434125e-10  3.7247802620845425e-10  2.7136109813904785e-10  3.2892922514309623e-10  1.3507692987713223e-10  9.4044559024429998e-11  6.3264483940424863e-11  3.6091175969601271e-10  5.0416545203271501e-10  1.0639455372451136e-10  1.0109658081944620e-10  1.4710938722198825e-10  7.6835115064336525e-11  4.5632302566886965e-11  5.4398395513814060e-11  3.1726341123450856e-11  8.8638690193183958e-12  1.7759960453909618e-11  9.8442806810850713e-11  2.1834194512454170e-12  1.0731229382297710e-11  1.8595664966260648e-10  3.4867634956854341e-09  2.2449917425360743e-10  4.2394830738572720e-11  2.2018078336170693e-10  9.3746368782381489e-11  1.1272810425791553e-10  4.4193901777790861e-11  1.6969653709277500e-11  8.7368643463097741e-11  7.2761117609663976e-10  7.9982261545007073e-11  1.8368812824684576e-10  3.2436681955629245e-10  4.8644428743292728e-10  9.6353086591928579e-11  1.0192632551932926e-10  5.8472125934053160e-11  7.6926844860764973e-11  1.1223565429523415e-10  5.7863428013816982e-11  6.0861207518130628e-10  5.9252459884647958e-11  2.7710917411858853e-10  8.8099155721484387e-11  1.2794447417013274e-10  3.1317014012890262e-10  4.1661914767018475e-11  6.3078118498245640e-11  2.8730765413525780e-10  1.1919843131905420e-11  1.1388466108590720e-10  8.8305883262654555e-11  7.6798267868232291e-11  5.6122284286774656e-10  1.6141880328115092e-09  3.0557591215846310e-10  2.8873592754303100e-10  9.0757734567545255e-11  6.9905001127141263e-11  2.5533166852860795e-10  1.1821531418608602e-10  1.0006327255294030e-10  1.0483060078388686e-10  1.9984140604029530e-10  7.4439405781202065e-11  5.2876185693112087e-11  7.0642432941623050e-11  3.9891465675571218e-11  8.7036821816711140e-11  1.9092766327067256e-10  1.6214455325771014e-10  1.1157154225592263e-10  2.7392522070737969e-10  4.7437657661639300e-11  1.3648225970543704e-10  5.2099986198939559e-10  6.6880341148930498e-11  1.1745046053278132e-10  1.3491891579445084e-09  5.8531193434819755e-11  3.3536944823670579e-10  5.0983386350601321e-10  1.5771459250501572e-10  1.2867477979633542e-10  1.2577148109054119e-10  9.0074879821538980e-11  2.4804393814577827e-10  2.8546051212827984e-10  1.7776979568437177e-10  4.6657468652629791e-10  4.2292831132807159e-10  1.2226724149328004e-10  2.1166605584152099e-10  6.7096107913758881e-11  8.5257859731176825e-11  6.2816300834322690e-11  2.3991131747692184e-10  4.0060965939271554e-10  3.0769645601298529e-10  3.2406512431509998e-10  8.6230127187886242e-11  2.2685418529728755e-10  4.7780529910543020e-10  1.7272903834828471e-10  4.8257836595227272e-10  1.8325613212267932e-10  1.3809040123012540e-10  1.1150073308242232e-10  5.1379546933867580e-11  5.4772532113734216e-11  3.3059906838208892e-10  6.3098294633010037e-11  6.4888367883503601e-11  1.2997066187931603e-10  3.2106933950510008e-10  3.2004764736262248e-10  1.5743825539768622e-10  1.1754830137376290e-10  5.8945609367129030e-10  6.2649001516761702e-10  1.5955884545656838e-09  2.6763590220589729e-10  1.9876577005590314e-10  4.4245514245652738e-10  4.5434970793677088e-10  1.1653124712990043e-09  2.9613760207421043e-10  2.4777292865736757e-10  3.3075385656306536e-11  1.2986046672567033e-10  3.2738619057605223e-10  5.0714759920997718e-10  2.1254487730724020e-10  6.6543769428010895e-10  3.0650251985696360e-10  2.1388838885548265e-11  4.8043986084194935e-10  3.3335938961325666e-10  3.8782354231368242e-11  3.3332699397874594e-10  4.1375398673289035e-10  5.4287655279706650e-10  1.4554445017068134e-10  6.7187268722842906e-10  1.9532964433136906e-10  4.7404685147482040e-11  1.2738648862490621e-10  1.3280756271104198e-10  3.1494795285762002e-10  7.9082549185822368e-11  2.6618230437668863e-10  1.9559435173451237e-10  8.0713361334640166e-12  2.4624591553584424e-10  5.8276608447686263e-11  9.0390102143800288e-11  1.2448344825462361e-10  6.2964479405342080e-10  4.1151227030817662e-10  3.0336572398794554e-10  1.1705028896927461e-10  1.3289636320622908e-10  8.9611750509445902e-10  5.3848479069838086e-10  1.3490756243549894e-10  1.4195809216211378e-10  9.2787463045520951e-11  4.8711806073335642e-10  1.3947819641240750e-10  1.7533231098333960e-10  9.5590356725227502e-11  7.0695245456951360e-11  6.3604008209821657e-11  1.5046063913382061e-10  9.8069509943559391e-11  1.3006872548314648e-10  4.3855962879838718e-10  7.6858893189957072e-11  5.9463162122236710e-10  1.2826038642308699e-10  2.2394349657668572e-10  2.8247531311405623e-10  5.4819052093508879e-10  1.1620107810089494e-10  4.1270741913682306e-11  6.3080601867787666e-11  1.4175856389913898e-10  1.5878247881617933e-10  5.1891115536026952e-10  8.4421031726756451e-11  1.6223208399842831e-10  2.5177172373139304e-10  1.3658990095994531e-10  2.3609411902488952e-10  3.2986927778366433e-10  3.1141211963902960e-10  1.0562062719016153e-10  1.7531748079057530e-10  1.4893907096056514e-10  2.2821110628599293e-10  5.3608293247994320e-10  3.7398702380062596e-10  2.0198895381299059e-10  2.0693157249778890e-10  1.2547797566986600e-10  1.7240594577453742e-10  2.9974172008190737e-10  3.8130298628215919e-10  3.6166861795276584e-10  1.6563678931482570e-10  2.1976798128671502e-10  1.9385667723968282e-10  1.5477982574049803e-10  3.9952905947246698e-10  3.1626888786055718e-11  1.0572246447970140e-10  1.2652344068735112e-10  5.0001138342153079e-08  4.0684336994082679e-10  1.7772018149651995e-10  6.1130384241204408e-11  2.5674590256738980e-10  1.3861099261712355e-10  6.4593953515491326e-11  1.0588457765398961e-10  2.0270367300677761e-10  2.0641802016016865e-10  1.9481007903894281e-10  1.8985777205000370e-10  3.0899932833136684e-10  6.5382033364680269e-11  8.0326750238727110e-11  1.9204916799280868e-10  1.2213308223098474e-10  3.5531973348433329e-11  4.0313089908441070e-10  6.4804873943824763e-11  6.2175106570738458e-11  1.9343266761063457e-10  9.9175483422712374e-11  2.3777842672763588e-10  2.9309475204971089e-10  1.4721724764006962e-10  7.7362556102207296e-11  1.8780459129340803e-10  9.6619281383115270e-11  3.2677421199959773e-11  9.0841793197237082e-11  5.8132023039160083e-11  7.8428163107176668e-11  2.2498093092089874e-10  4.7505945455443226e-11  6.6588295211112975e-11  9.4764409588557847e-11  9.3918627183258194e-11  9.4023145732416916e-11  2.5161865964136337e-10  8.7631408000622141e-11  1.8339442403547513e-10  2.0107185306609976e-10  9.8303710378565962e-11  1.6071555274041178e-10  3.1523372859976053e-10  1.2450231377439937e-10  6.1430078149540772e-10  1.7165491090835001e-10  1.4956324492092363e-10  1.3850072134169560e-10  2.2937500631990079e-10  4.4202825404253236e-11  4.0098618049592075e-11  7.7225047601492103e-11  4.3523498535442506e-10  1.9940775557141106e-10  6.3489768855252243e-10  4.4191682676729044e-10  1.2150976680959624e-10  5.4696001907040267e-10  3.6519578435610822e-10  1.8939038422867834e-10  7.0963083748155805e-11  9.3815048095483891e-11  1.7412756109448246e-10  1.8763554723691624e-10  4.1485486074685823e-11  4.8022375109932580e-10  2.7652399764649711e-10  3.0181240630155006e-10  5.3593022340867067e-11  3.5236434479305831e-10  2.6585474355151210e-10  5.7917180683034085e-10  7.3763218970139054e-11  6.1699372791993232e-11  2.3918388069139283e-10  7.2944644825804263e-11  4.2675193263319635e-11  1.4834018419178214e-10  2.4293833313398523e-11  6