<?xml version="1.0"?>
<VTKFile type="UnstructuredGrid"  version="0.1"  >
<UnstructuredGrid>
<Piece  NumberOfPoints="4852" NumberOfCells="9430">
<Points>
<DataArray  type="Float64"  NumberOfComponents="3"  format="ascii">-1 0 0  -1 -1 0  0 -1 0  0 0 0  1 0 0  1 1 0  -1 1 0  0 0.9999999999999999 0  -0.5 1 0  -1 0.5 0  -1 -0.5 0  -0.5 -1 0  0 -0.1608775713298009 0  0.9999999999999999 0.4999999999999999 0  0.5 1 0  0.1967448868031411 0 0  -0.3408767902859493 -0.1757756742755388 0  -0.3370328589160442 0.2243330141844196 0  0.1738063345568451 0.3464035941437372 0  -0.1852439191609766 0.5550860339083203 0  -0.5038366148839009 -0.5375161378560726 0  0.490520826449617 0.2571695134041904 0  -0.0646183878322583 0.2013087009213023 0  0 -0.5061325913258391 0  -0.25 -1 0  -0.5613767474163731 0.5773708997576595 0  0.661520490333271 0.6338616576485032 0  -0.1764994495651823 -0.537764709780682 0  -0.5390642208785833 0.02544899268164204 0  -1 0.25 0  -0.2064144863700284 0.02386685358131514 0  -0.6545874243831898 0.3093667578711011 0  -1 -0.25 0  0.03895820636510385 0.5918709164344939 0  0.1951235438398938 0.129043312841162 0  -0.1364690653300137 -0.2200001742658307 0  0.3710178807291967 0.6145182041614973 0  1 0.25 0  0.5355652144809806 0 0  -0.75 -1 0  -1 -0.75 0  -0.6451403622520051 -0.3230827920544835 0  0.25 1 0  -1 0.75 0  0.02757118475249542 0 0  -0.25 1 0  -0.75 1 0  1 0.75 0  0.75 1 0  0 -0.02898318711980711 0  0.05412805288373466 0.1425415553620022 0  -0.07786350819508972 -0.02777060430983251 0  -0.7011821254862496 -0.1324218440333117 0  -0.3217654238965481 -0.3473372215902557 0  -0.340355759503109 0.4373943754889823 0  -0.1001185539661564 0.7643190602089917 0  -0.3832503846481358 0.7026423748147784 0  -0.05509211951504088 0.3991399980181256 0  -0.0791411666696424 0.0721408766839783 0  0.3588843244569729 0.3697056915416297 0  -0.7160298687055053 -0.729999693317529 0  0.4118877234531169 0.08996263216706685 0  0.6900002360567209 0.1916290404157677 0  -0.7474151660488755 -0.5270596908920235 0  -0.3874730217374442 -0.710644167924242 0  0.7216086879335568 0.4186359621298391 0  -0.7760733490179097 0.09699351101339591 0  0.1966497134515375 0.6987528587293546 0  -0.1989404203442333 0.2886428370595441 0  -0.7989070556831719 0.5774220990578927 0  -0.7167576448067611 0.7663225553157602 0  -0.05261379786409609 -0.3736558881717196 0  0.5847386086444929 0.8165359562294188 0  0.8203748692363589 0.8059512708143244 0  -0.1061731220530897 -0.6972819292342599 0  -0.514660415074601 0.1627302538749346 0  -0.2020983438993365 0.1257638281561954 0  -0.3594069231073279 0.07537494503260965 0  -0.3653454805737619 -0.05232425271908163 0  -0.4967458440905616 0.3950474722030476 0  0.375 1 0  1 0.125 0  -0.01199848791558994 0.07144422712449194 0  0.06191632441657724 0.3921053538700085 0  -0.1715732198553754 -0.1224273131950919 0  -0.2430192933766886 0.7737036122759747 0  -0.625 1 0  0.5334047410145731 0.4543153674792402 0  -0.5759812493063594 -0.8300780829200285 0  -0.2573861135054058 -0.7836191952766148 0  -0.319799821528204 -0.5084951372150587 0  0.8339867926428943 0.5952729007048548 0  -0.5486885959908172 0.7908038933384314 0  0.125 1 0  -0.06755562585437293 -0.09346863772913697 0  -0.4946970359385068 -0.1432374889979245 0  -0.8749999999999999 -1 0  0.02953653718048339 0.04174870230393367 0  1 0.375 0  -0.875 1 0  0.05719148173745886 0.7940603891908508 0  -0.1962065919193622 -0.373756394877143 0  -0.07305552199789196 0.5712309970307701 0  0.2363307937152508 0.5180946879099325 0  -0.7923285083315503 0.2294322428862834 0  -0.4952367084877615 -0.389108442903185 0  -0.0001175395086769665 0.2714464480688361 0  0.5099266568567944 0.6402133935712276 0  0.3988740951636906 0.8073639691589151 0  -0.8061620042086072 0.4244294628622381 0  -0.06445397222352271 -0.2206042053003792 0  -0.7096798317849161 -0.01415685792433321 0  0.09054571285134526 0.05262323655341938 0  -0.4782889449305387 -0.2512950955535469 0  0.7238724958609095 0.08285459291914385 0  -0.8086059873713127 -0.4110998565383759 0  0.337565998020555 0.1537308023221926 0  -0.7945026065186147 -0.2508437825575344 0  0.2362863061066057 0.2545887038019695 0  -1 -0.875 0  -1 0.8750000000000001 0  0.1843476952414856 0.0480075873590002 0  -0.2476611032021864 -0.2291643397361039 0  -0.9999999999999999 0.375 0  -0.171297235627871 -0.04173722679371996 0  -0.6488831917774788 0.4674572898210064 0  0 -0.07736776745332727 0  0.08026663072171651 0.260227759703957 0  -0.375 1 0  -0.2171109350611581 0.4249271991265403 0  -0.120328418229687 0.150385899414825 0  0.133060276171722 0.5544007986811851 0  0.1318793963548052 0.194094003076339 0  -0.4749206119477652 0.2695619043451272 0  -0.04632963620628899 0.01401158330058442 0  0.8514328453490437 0.370227957092834 0  -1 -0.125 0  0.2855693657682148 0.8369443362890887 0  -0.1110254693344907 0.313311521862557 0  -0.125 -1 0  0 -0.7575037395175259 0  0.07821397079968176 0 0  -1 -0.375 0  -0.375 -1 0  -0.625 -1 0  0.7474787146812756 0 0  0.625 1 0  0 -0.2918843213980812 0  -1 0.625 0  -1 0.125 0  -1 -0.625 0  0.3284075310660084 0 0  0.004929205892015135 0 0  -0.125 1 0  0 -0.006571003003944568 0  1 0.625 0  1 0.875 0  0.875 1 0  -0.5626421136351754 -0.676439197108489 0  -0.004881292392543592 0.1605628582838499 0  0.3623808482763869 0.2632900720096977 0  0.6530191159087964 0.2939803660957253 0  -0.8546940200236169 -0.6466554057641729 0  -0.8634826231166398 0.7871297978292076 0  0.4304464609854349 0.5015404942229641 0  -0.3985604729677687 0.8558369645608886 0  -0.7787713000549382 -0.8748146729334052 0  -0.8704891257191285 -0.7844000137068451 0  0.154116915664265 0.8423136421027683 0  -0.6586534767178228 0.1527401676007324 0  -0.5777948637608384 -0.06415224301940017 0  -0.854623963975659 -0.06255884367759694 0  -0.2961422603340317 0.5623196460960749 0  -0.4238130118498991 0.5700067655635551 0  -0.3762512547123436 0.3311841316820553 0  -0.6184942723592345 -0.2163970340178148 0  -0.273090812334839 -0.09004018606388775 0  -0.6400799133925489 -0.588613735213648 0  0.8597355440694124 0.2660198314400339 0  -0.03288950300326435 -0.03293014157342948 0  -0.05498239968660284 0.1148552979449915 0  -0.1339834864572198 0.4323019495117458 0  -0.1200464348104916 0.03251936533262673 0  0.5377854502295355 0.06464644574488569 0  0.5792636663120316 0.3594820393233159 0  0.6914116143121645 0.7748548350973441 0  -0.7935434612792731 0.8811490790219791 0  -0.6433520536523066 -0.4292609559664263 0  -0.116980988661794 -0.3972312228309935 0  0.8721933845414133 0.4887541347583862 0  0.07593763958657669 0.09413084537257739 0  -0.6646754488632833 0.8681707726089219 0  0.4546383099121104 0.3508694141207485 0  -0.02643156391930684 0.03597791132401353 0  -0.4092034121853676 -0.4403484417890792 0  -0.3620448194607067 -0.2688508287086327 0  0.3234681910688297 0.4820749308147483 0  -0.1963660664262487 0.2017454479260206 0  0.7056847044720524 0.530977020119599 0  0.2617201804347579 0.3564586923226976 0  -0.3765309161656873 -0.8518291145905539 0  0.1090453169205706 0.6822802199724429 0  -0.2848244755401703 -0.6120765619098711 0  -0.4412630765147602 -0.6201732178720994 0  0.2961650174860737 0.6925406085868167 0  -0.8749627596223841 -0.1748051222624983 0  -0.1801803073329041 0.8550157999188498 0  0.4547817487391331 0.1635797399960631 0  0.2803173328540411 0.04677545832886192 0  -0.1425586139840262 0.6577339072069995 0  -0.01156345631047279 0.708906907367312 0  -0.05345166700539767 0.8751120271325236 0  0.005153597133707816 0.4702327377032687 0  -0.3879814274005142 0.1536259749161528 0  0.5491989275996361 0.133331318562134 0  -0.4760071372708845 0.6825570306467134 0  -0.8515686945035849 0.3328879914121137 0  -0.09176278388140936 -0.5362174852278894 0  -0.02807058478308542 -0.5520252207691554 0  -0.2138144251633284 -0.2877880715904831 0  0.8685109049744014 0.1515467309671562 0  -0.1697639720863411 -0.6610360176587426 0  -0.8892896913182621 -0.5285354574763498 0  -0.2820038098385992 0.3385678212806568 0  -0.6764087962627165 0.5742394815531333 0  -0.897489262596323 0.5314836817781876 0  -0.8984113993313106 0.6609990523205017 0  -0.6445901805724492 0.07241692491442359 0  -0.8592115394881371 0.0285755610733529 0  -0.8882279873399846 0.1679247027169077 0  -0.1304574162441605 0.2293130614378054 0  0.1602073044281007 0.4466249055499024 0  -0.04361714703557893 -0.1258512753676059 0  -0.7535421178254241 0.6701490505748487 0  -0.6026011074543124 0.6980915149050516 0  -0.2547597945100255 0.07869215314337588 0  -0.2495692632641924 0.6490417082293155 0  -0.02750542679522312 -0.006328227493957088 0  -0.4944947768942507 0.8770404553455418 0  -0.477083390455668 0.4907006022294574 0  -0.290801212370161 0.1442442418366512 0  0.002223475774248937 0.02372111769267895 0  0.7795650098067404 0.6837509867830688 0  -0.4698351351790772 -0.8247649589660507 0  0.2719591143699676 0.1953408217549853 0  -0.1487406555808724 -0.8632893335991653 0  -0.06570562172149599 -0.8297706036748534 0  0.4434042280870575 0.7061828323127658 0  -0.1175817100366259 -0.2884027041824268 0  -0.2652392679608636 -0.02612330213743806 0  -0.8938758417973665 -0.8965391892382899 0  -0.5731539945277209 0.2373331199681791 0  -0.4764545047718299 0.08767110161169725 0  0.4912800033909116 0.8259345221264877 0  -0.02868643279185809 -0.2601419831170506 0  -0.3101917848195623 0.8754302075583668 0  -0.1433519026252142 0.08074111476524805 0  -0.4695871681789451 -0.03486928560797228 0  -0.3883130948993821 0.0121837185510017 0  -0.2920881513014481 0.02766381727485766 0  -0.3852107146200348 -0.1204514403712104 0  0.8881971500526415 0.6981406323852648 0  0.792761076334537 0.9108230469663964 0  0.5766824467314158 0.2081050262458253 0  -0.5601839783944319 -0.4694736387237017 0  0.5989518529892487 0.7061450536055607 0  0.6782886226265407 0.8884187708443491 0  -0.05134635683947626 0.3035864567612987 0  -0.9022582904814503 0.9047243349276515 0  -0.1277357347755209 -0.06713914714097242 0  -0.1692357146838269 -0.1826643602419645 0  -0.2526432736494685 -0.1437334355487749 0  0.0368897895860725
[...]
<PointData  Scalars="w"> 
<DataArray  type="Float64"  Name="w"  format="ascii">1.7377625398610121e-10  1.0314370922837995e-11  4.4497919826207792e-10  2.7232809072699308e-09  6.2408362099520330e-10  1.5609068823361662e-12  8.6643200712403260e-12  7.4729919730461494e-11  4.0427833630170533e-11  2.1091294815484568e-11  1.0722657315736572e-10  9.6042997041039923e-11  4.0412204934231917e-10  2.7623047759236086e-10  9.1129889348127795e-12  5.2778047820107343e-10  9.0805999876126045e-11  7.2133811403690657e-11  1.3066207131044378e-10  3.5410482024712250e-10  6.7106462726638568e-11  1.0428233577812376e-10  5.7362974584135075e-10  2.8932552519330387e-08  5.7869410513686808e-10  1.0816336714596957e-10  8.8822214516411398e-11  1.7057346428965125e-10  7.6421468571750613e-11  1.8807404599026969e-11  4.6788225444037784e-10  9.7684713869960616e-11  2.4199602807758675e-10  1.8007085410268961e-10  4.5561129952187543e-10  2.2591225163123410e-10  7.7818898496082359e-11  4.7751010818602602e-10  5.8734080589361307e-10  3.1134178171609030e-11  5.2153515979229633e-11  1.0770786661010547e-10  9.2241605632967806e-11  1.9574935133968607e-11  1.0586544394606160e-09  8.8223989020437347e-11  3.2006244693278067e-11  9.5969096674979730e-11  1.2468113548561144e-12  5.9280772705080681e-10  2.2177581462301016e-10  2.1478563855206051e-10  8.2218959019686913e-11  2.5210132475805784e-10  2.5919198025870957e-10  2.0330585544454287e-10  3.5573530874192606e-10  8.8954734248510097e-11  5.8137923807988016e-10  2.5127261822646908e-10  3.1236686869959699e-11  3.1469001946197631e-10  3.7852885444704145e-10  1.4358534424800275e-10  5.4076346536919323e-11  1.7806085998369925e-10  7.0415912749246789e-11  1.7777555791317896e-10  2.3273889871050041e-10  4.5788119514178704e-11  6.4522517190899352e-11  4.1935119086000938e-10  5.6647445658291688e-11  8.8009038100146436e-11  1.7187052480829403e-10  1.6984753584503372e-10  2.5647104871031196e-10  2.8929777473937125e-10  1.8234135254443644e-10  1.9442844164443201e-10  6.4884782735664330e-11  2.5212012847080378e-10  2.6469643936614906e-10  2.0011806979716447e-10  2.3408275381212273e-10  1.2421651837586521e-10  4.6317109866703425e-11  1.0987586232637697e-10  9.4634198714006350e-11  2.5308943160963019e-10  6.9173794252019636e-11  9.9284836147778833e-11  7.8011717383370813e-11  9.4085190883773606e-11  3.9073563133332748e-10  2.0895720916801168e-10  2.5418765098026030e-11  6.5947523480982451e-10  2.5662924143653774e-10  3.1462870662798095e-11  2.7559188063052765e-10  4.1275390623819877e-10  7.1139354575524083e-11  9.6910633110765147e-11  1.5652793069877189e-10  6.3775358658166540e-11  2.7359126446797365e-10  8.3221642589960828e-11  1.4652560223858256e-10  6.5795112487012296e-11  3.1335839057023578e-10  2.4603949199971333e-10  2.3348945260178724e-10  6.4212620782137802e-10  1.2106103813764549e-09  1.4909799410898141e-10  1.6570888899732734e-10  1.0234201125608134e-10  4.5837766882773306e-10  2.5847857522157439e-11  2.5581238681581562e-11  2.7888349158121040e-10  9.1487715222130272e-11  6.1077035239182517e-11  5.0246154284965311e-10  5.7282160762270297e-11  6.0205911838735452e-10  1.1852671254888187e-10  7.6907168101792513e-11  8.2403543482680713e-11  3.4199802912715542e-10  1.7218917748655866e-10  4.6449941996664580e-10  1.3461185953437530e-10  6.2645613831007135e-10  4.4378801821548722e-10  1.0870942088187246e-10  5.1958819322985405e-11  1.2988605612549193e-10  2.5697799398625277e-10  4.3494496843299030e-10  6.0898678787773481e-10  9.2487904629812850e-11  1.1972696958026439e-10  6.8567803106323502e-11  6.5620320141505648e-10  8.5813434265910033e-11  3.4305568652963527e-10  1.4722661928966928e-10  1.2370535951851625e-10  1.9968798559181914e-11  2.8357232055253822e-10  1.6013027302692274e-09  5.6973037293569495e-11  9.7383757937644374e-10  7.8880656903618467e-11  2.4299515752103245e-11  2.4091749317028194e-11  1.2199303372625723e-10  5.6055724892343294e-10  4.4513353935917795e-10  1.6115661818483505e-10  1.1476912020830430e-10  1.6655897853468723e-10  1.8755027204761364e-10  5.8396702783257266e-11  7.7680169835013274e-11  2.0341511979652518e-11  5.9849260677296111e-11  2.9370101870492532e-10  9.2031960835250469e-11  1.0579095588786407e-10  8.2540535543793018e-11  9.6104845143954315e-11  5.3215670198465179e-11  9.5489997475916429e-11  4.5519780758179642e-10  5.6840766692742422e-11  1.6405092136872121e-10  1.7264689327155730e-10  4.6470810068649741e-10  1.9757412128081380e-10  2.8296733568422310e-10  1.4300930770728164e-10  1.4500035504540221e-10  1.5030304920382287e-10  2.1100814101924993e-11  2.8606899617195657e-10  6.4934602584925001e-10  2.5535208654114133e-11  2.5200351228034719e-10  8.9096380458828503e-11  1.5789039158262046e-10  1.1229026371105732e-09  1.3704826860333465e-10  1.6366219483407053e-10  2.3355817671436176e-10  2.8694799793154431e-10  1.0592838689659014e-10  2.0434601220379773e-10  4.2010253810585480e-10  2.1835715509749197e-10  2.3951530848995730e-10  1.1006801575259761e-10  1.1243055092692981e-10  1.1277170109124390e-10  7.0899344946169915e-11  2.0832021960367614e-10  8.8614183170639232e-10  7.7916554797403289e-11  1.0803485407949834e-10  7.7696595824874930e-11  9.6696397778403045e-11  1.6209617024550114e-10  3.7746188406866843e-10  7.9251077282154570e-11  8.4719838936536826e-11  8.0588066858097352e-10  8.7657319734115261e-10  2.9230061015133636e-10  1.9981420064500235e-10  7.6732958794064893e-11  8.0675580329926733e-11  3.3555404518764801e-10  5.8576177264151058e-11  8.3322404214581787e-11  5.0150323309570918e-11  9.3127723991024260e-11  4.1299996238203454e-10  9.0301842707882251e-11  1.9722912988693460e-10  1.6564207916870095e-10  9.0477287352245965e-10  6.1707153758587194e-11  1.9862637091008740e-10  1.1528646009177895e-10  1.1198895198598960e-10  7.5546239239573363e-10  7.4976103856156363e-11  8.5019640047019796e-11  1.1786367049907426e-10  1.1317401473645578e-09  4.1000293923195106e-11  7.7962569082529604e-11  2.7943480099580419e-10  2.5218788042639889e-10  3.4633266286083759e-10  1.8234705512297219e-10  2.0438350802669703e-10  4.0363425103320338e-10  2.9397867035802244e-11  1.0522472514391829e-10  1.2788620958282462e-10  3.7587670292167936e-11  2.6779476365795234e-10  4.3732905742657039e-11  3.3381966970130412e-10  1.3571970599119804e-10  1.1015903096769447e-10  1.9135650749892728e-10  5.0177240037908680e-10  7.3247668699528553e-11  2.6940235139874254e-11  1.4482829926188369e-10  8.2143930862968111e-11  5.9487024062743311e-11  7.6147095273516834e-11  1.7878416205231146e-10  4.9081208714799363e-11  2.6409345792941175e-10  2.5435694941705640e-10  1.2894964011493005e-10  1.2899279892083706e-10  1.3666814510857226e-11  7.1481911125036201e-11  1.4697519765128120e-10  1.6811439116472672e-10  5.0009027684183278e-10  3.6882203524871203e-11  8.2239758959884107e-11  3.3437828180772868e-11  2.3929402137791449e-10  1.2541883599861540e-10  1.8461450118055445e-10  7.5290836152533420e-11  8.7523033593134535e-11  1.2117463021601354e-10  2.0211091253498131e-10  2.2388872906717771e-10  2.6070835821826320e-10  4.3866113985558980e-10  2.1367165183028861e-10  2.1004780124343572e-10  1.4494003105818558e-10  8.0075518550853026e-11  1.7164502399725815e-10  1.6598662043484461e-10  6.3033680321973698e-10  1.2954492934143322e-10  6.2393594296193458e-11  4.0729790180221990e-10  1.9074341076328388e-10  2.0756556700868172e-10  1.2334098007202645e-10  3.2684621198609906e-11  4.4820458600983763e-11  9.8629383327813576e-11  6.8280994688132191e-10  2.9483232807320213e-10  1.8046693660496636e-10  1.3610454734052735e-10  3.3552995684545353e-10  6.7466803634103084e-11  1.0981597278132820e-10  3.5324385482894874e-10  1.5202371871419177e-09  9.8963127693322396e-11  2.8268311499348344e-10  6.1737121149735792e-10  1.2374556132799470e-09  1.9958318668954871e-10  1.5366712497543154e-09  4.1872145398627025e-10  2.2603417552912405e-10  1.1623321521755972e-10  4.1653556977391769e-11  6.5877035761454144e-11  1.2627419638297329e-10  1.5622387859391551e-10  6.3601022946977873e-11  9.8858468248830484e-11  1.0709276852800322e-10  1.2755928737992220e-10  1.9341612018017969e-10  4.9981099516421390e-10  3.1917266156968006e-10  1.6590690218241595e-10  9.5976378157096104e-11  6.1744404897092917e-11  5.9353116356533555e-11  7.0550165522069553e-11  1.8147399417305633e-10  2.2592078577181058e-10  1.0570039641510519e-10  1.0502837924590839e-10  2.3820551317431936e-10  1.3664863918412827e-10  6.9720909870205644e-11  5.9452742550274127e-11  1.0542477005462734e-10  3.4187345980117137e-11  1.8578057922136507e-10  3.2969966689659015e-11  1.6077161795349306e-10  1.7954433969182606e-10  1.5195646056318844e-10  3.9945962040841251e-10  7.9460018038995918e-11  8.3034760287836084e-11  1.4455803027569160e-10  3.0702364300774583e-10  1.4451414142771729e-10  2.6336546476915096e-10  1.1071825599675374e-10  1.3513434395185041e-10  1.5621025400056799e-10  2.8032763594091258e-10  1.2778143824659646e-10  3.3695485293467353e-11  1.1729192597572005e-10  1.1197680566300861e-10  1.4779413796266646e-10  2.5240377456574728e-10  1.7080635931195519e-10  3.4959138188979080e-11  1.2935843794862383e-10  2.3186947556261577e-10  2.9041463216553922e-11  3.2914136432416159e-10  1.6370274354998908e-10  3.9273447570672060e-10  1.1293561570380208e-10  2.3583477566085385e-10  3.2425226249710904e-10  7.5572719343861504e-11  1.0572641869241582e-10  2.1831386779641625e-10  7.3440020914400843e-11  4.8332441333954407e-10  1.5985491554876480e-10  9.8021785652119059e-11  1.0842848470029029e-10  2.0985875378068669e-10  5.4162492264131967e-10  4.7910567507704565e-10  1.8047184229261650e-10  1.7152311266943818e-10  2.0751469071108511e-10  4.0021434924220288e-10  4.5539156086756909e-11  2.2509742453623269e-10  8.1972137251447282e-11  1.2425767867200068e-09  1.1802234866109121e-10  4.5986774243759890e-11  5.5180517823448288e-10  3.3157226413626295e-10  2.4671201835816092e-10  2.0974756113877248e-10  6.3957579261116617e-11  1.5316253611438133e-10  3.3494601176388477e-11  4.3712471665501341e-10  8.2031763384428651e-11  1.3730331347162005e-10  1.2716784342716027e-10  6.6007886144681225e-11  3.4768764725717987e-10  4.3122996867297179e-11  1.1758745796354695e-10  2.4493766007955508e-10  1.7872589598239798e-10  7.1319548555823320e-10  9.2695172527675798e-11  5.7530830470951872e-10  1.4779441314217482e-10  3.5603636378138148e-10  5.5650571550187210e-10  2.4376471630866276e-10  1.5475599489975994e-10  2.7285972614828421e-10  4.8230029737833870e-10  3.4424728209499611e-10  7.5292215103240023e-11  4.9253386201315645e-11  1.6369489584264296e-10  3.5831800437994703e-10  1.8549325692977305e-10  1.2702900081048195e-10  1.7077336599004750e-10  8.1239618322523713e-11  7.1240476747950250e-11  1.9888501756873083e-10  5.7954461857825665e-11  2.0658637883719911e-10  9.0646613201587128e-11  4.8009463998835819e-10  4.9317652297296255e-10  8.1871101550360219e-11  4.1735892364018855e-11  3.9723700205229046e-10  6.4956617595601170e-10  2.5816467053597492e-10  9.9293411856505521e-10  2.8785274325705980e-10  3.1679237261075956e-10  2.7518004364558912e-10  2.6686168262580631e-10  9.7409567992044564e-11  3.1280653276874602e-11  1.9358871259274031e-10  1.0573887120955210e-10  2.1431092853930604e-10  7.5376623467126132e-11  1.2322729851414936e-10  2.0794591611580150e-09  1.7694639648819249e-10  8.1043359658091240e-11  8.2427625678439798e-11  4.0031058287013551e-10  2.4239781323321640e-10  1.8945804755570014e-10  2.0770354892335318e-10  4.4633929074100595e-11  7.5730612220460821e-10  2.4141466393756984e-10  5.3403230244786563e-10  2.4873032374564241e-10  2.4154106488374412e-10  3.1204866357496128e-10  9.4616702309317445e-11  3.3025862421348547e-11  3.6006340862826831e-11  3.7101232162331361e-10  3.5902273907103405e-11  1.1649044304937871e-10  1.0219783879902974e-09  7.5194867093978432e-11  3.5020788516016208e-10  2.6283036380307930e-10  6.2054577983340571e-11  6.0000473483777765e-11  1.8039948701282240e-10  2.4527518272222073e-10  4.8440909604515138e-11  1.1306397484023510e-10  1.6082457521392204e-10  7.6163198802926859e-11  1.6960952074180004e-10  2.1406335562198909e-09  3.4204714269085684e-10  3.1958324137394323e-10  1.0722397304214589e-10  1.0771119027761277e-10  1.8725502011912166e-10  8.0281075805991334e-11  1.3386726372888408e-10  4.9670089905156911e-10  8.6743036875958248e-11  2.4079679532594931e-10  2.1429283302844159e-10  1.3894417839962753e-10  5.1279557310010368e-11  7.7506996603119573e-11  5.5203336392940247e-11  3.6293814509087933e-10  1.0616529958396926e-10  2.2100571241807867e-11  5.7094568244238742e-10  3.0622323888953850e-11  6.2102756052541806e-10  1.1688212300051103e-11  5.6799487048726904e-10  1.7397141363581649e-10  2.4880352068984565e-10  1.0442906741089709e-10  2.8680230831556419e-11  8.5044003126826202e-11  2.7924488860126168e-11  2.0556666929816310e-10  3.7245337128333103e-10  2.7137916923592373e-10  3.3342352351007759e-10  1.3637964697139031e-10  9.3993031913077595e-11  6.3358469735109352e-11  3.6447665876874701e-10  5.0275056908936100e-10  1.0531336357826474e-10  1.0032914393618282e-10  1.4632243312583826e-10  7.6356871953595903e-11  4.5678120627849121e-11  5.4522579364021410e-11  3.1916638437532166e-11  8.8449110849496135e-12  1.7753045842767988e-11  9.8368452176262162e-11  2.2191661232009552e-12  1.0904717306699425e-11  1.8633840266907170e-10  3.4957279935352453e-09  2.2353280041756156e-10  4.2302484367070662e-11  2.2048797848069150e-10  9.2970531032894898e-11  1.1233145871536272e-10  4.3889509947335800e-11  1.7028332337064634e-11  8.7595762984515441e-11  7.4091039220628318e-10  7.9571754654213638e-11  1.8384582778828122e-10  3.2426586278967718e-10  4.8459317190145242e-10  9.6443761234390517e-11  1.0198861261364350e-10  5.8384249959322315e-11  7.6873229477222918e-11  1.1186111244835312e-10  5.7291780180169944e-11  6.0361703355429659e-10  5.9315099052719765e-11  2.7786993064617963e-10  8.7863039427110803e-11  1.2790954761936209e-10  3.0989750813119872e-10  4.1495115551654366e-11  6.2827478363340101e-11  2.8502092347028745e-10  1.1878242645252026e-11  1.1309469425986688e-10  8.8315836595580031e-11  7.6667413911689744e-11  5.6189578059040545e-10  1.6157588061472347e-09  2.9477232518193706e-10  2.8921526362284133e-10  9.0553663836176552e-11  6.9383868244546016e-11  2.5379380799923929e-10  1.1745943359740184e-10  9.9395630569326610e-11  1.0435207831595646e-10  1.9775581799184956e-10  7.3961431412541623e-11  5.2543578005183544e-11  7.0408902499387953e-11  3.9710819778065767e-11  8.6501998985093697e-11  1.9136662008782910e-10  1.6186304685746153e-10  1.1157207865252368e-10  2.7587321568439802e-10  4.7020890958077065e-11  1.3629632552445169e-10  5.2336850630887599e-10  6.6537009517098114e-11  1.1757949086155033e-10  1.3266909280927319e-09  5.8110214911260447e-11  3.3708822145989065e-10  5.1220237057425449e-10  1.5778305429205247e-10  1.2806046420111755e-10  1.2565078591848306e-10  8.9814788244050873e-11  2.5144375110029566e-10  2.8573628132037388e-10  1.7721197896775098e-10  4.6882072968925594e-10  4.2333132269178764e-10  1.2126895997266867e-10  2.0989926970253903e-10  6.6635403997151550e-11  8.4725590914764009e-11  6.2578328758792276e-11  2.3888704966826902e-10  4.0058590255167186e-10  3.0783378622649840e-10  3.2432921618509026e-10  8.5823844474846200e-11  2.2833949094749399e-10  4.8037638444553885e-10  1.7081673391570089e-10  4.7860667064278232e-10  1.8291292350751977e-10  1.3858103785235381e-10  1.1172428602353048e-10  5.1207684566244095e-11  5.4357841488460938e-11  3.3087914555082377e-10  6.2652913282191186e-11  6.4511919398132221e-11  1.2948756835552921e-10  3.2024632708808529e-10  3.1909536565145193e-10  1.5712634480609796e-10  1.1761543620195253e-10  5.9425176373761485e-10  6.2746277633073082e-10  1.6176189001588899e-09  2.7020772988127498e-10  2.0013934471423114e-10  4.4568859902581911e-10  4.5464489080359693e-10  1.1818023603461945e-09  2.9723586553571555e-10  2.4643460557699507e-10  3.2954711980144647e-11  1.2894302066151873e-10  3.2641093930715245e-10  4.9970924132536756e-10  2.1295044703108718e-10  6.6114034158717722e-10  3.0397585841349145e-10  2.1454559760198056e-11  4.8362353636076066e-10  3.3486509152644751e-10  3.8674018260387487e-11  3.3318762921588577e-10  4.1380414250748211e-10  5.4284999134272155e-10  1.4538180717639971e-10  6.6975177831863925e-10  1.9471976322186747e-10  4.7298177518002183e-11  1.2710027551693100e-10  1.3226375812567484e-10  3.1677859950231157e-10  7.8638970035684144e-11  2.6329813124907142e-10  1.9508133421073563e-10  8.1071685994961506e-12  2.4479710362734780e-10  5.7980151858212661e-11  9.0130082671581579e-11  1.2399806600790050e-10  6.3347079120031164e-10  4.1396663701483984e-10  3.0537564287128815e-10  1.1697021625773571e-10  1.3181430169332072e-10  9.0503021708359326e-10  5.4475305679151756e-10  1.3447191782682207e-10  1.4252916399035125e-10  9.3535350197968721e-11  4.8753068024069281e-10  1.3831190312652757e-10  1.7411182578151755e-10  9.4736805231126656e-11  7.0625301959893833e-11  6.3430897425174326e-11  1.4955989814759873e-10  9.7834183010125134e-11  1.2880597858660274e-10  4.2999216824933358e-10  7.6663088371933978e-11  6.0116851532659655e-10  1.2651547323676991e-10  2.2384275995952286e-10  2.7945063746728997e-10  5.5370654444188558e-10  1.1596706593956505e-10  4.0890435285568687e-11  6.2807263700437715e-11  1.4171131783627306e-10  1.5853587629190462e-10  5.1403466434390012e-10  8.4150716354982597e-11  1.6148426987546420e-10  2.5118168047144631e-10  1.3757883221046034e-10  2.3615340767689137e-10  3.3231005289633531e-10  3.1146308775130267e-10  1.0455363712470333e-10  1.7478848980030192e-10  1.4899882160151717e-10  2.2731196261897118e-10  4.8662688262165854e-10  3.7380790186908710e-10  2.0179306075815993e-10  2.0386096800303371e-10  1.2480314719134377e-10  1.7222295769988077e-10  3.0008615618577704e-10  3.8132558364468002e-10  3.6204532810881964e-10  1.6568469013957569e-10  2.1951087243916840e-10  1.9500715058539097e-10  1.5326972716415330e-10  3.9878721146289058e-10  3.1634778872164779e-11  1.0549360304132926e-10  1.2731125176615498e-10  1.0416297662090757e-07  4.0605858324340907e-10  1.7636024168230838e-10  6.0997968867944628e-11  2.5643392770014362e-10  1.3778465548530102e-10  6.4283847215013155e-11  1.0529217478477857e-10  2.0263705159296057e-10  2.0555646855090225e-10  1.9439187149654400e-10  1.8859938409995070e-10  3.0798454569052897e-10  6.4979187378531039e-11  8.0100692021199901e-11  1.9078781882832144e-10  1.2234979278996088e-10  3.5295505149848557e-11  4.0081337135268598e-10  6.4430449315969240e-11  6.1840185966098850e-11  1.9422932983933461e-10  9.8806095128208220e-11  2.3730216837208280e-10  2.9189224940158653e-10  1.1347169279284597e-10  7.8684968208999491e-11  1.8688856673025345e-10  9.6142584526086232e-11  3.2604872700618480e-11  9.0268992036082344e-11  5.8248239337287086e-11  7.8577895494215699e-11  2.2734751165268788e-10  4.7179637703734100e-11  6.6022783084069745e-11  9.4321369018202251e-11  9.3442226924941620e-11  9.3670371771884040e-11  2.5251311255091638e-10  8.7727496725762782e-11  1.8462756632482800e-10  2.0244981582030430e-10  9.9530286804489822e-11  1.6089483318928642e-10  3.1501534511607180e-10  1.2375340363129785e-10  6.1682954161415202e-10  1.7029033053259185e-10  1.4898867851817286e-10  1.3853232305425526e-10  2.2686643741211792e-10  4.4113756281102507e-11  3.9926760564889901e-11  7.6724048034978630e-11  4.3370646578373891e-10  2.0012126909542578e-10  6.3831975641506260e-10  4.4234992760502921e-10  1.2083658693187299e-10  5.4739443566631354e-10  3.6466066343649901e-10  1.8822152969080215e-10  7.0668410166751753e-11  9.3260029613929192e-11  1.7431553114054503e-10  1.8759986345738214e-10  4.1502481821800878e-11  4.8129138079452853e-10  2.7834376817935550e-10  3.0056640710183573e-10  5.3401089921565733e-11  3.5041660330497632e-10  2.6668020166839219e-10  5.8872428179239683e-10  7.3166227406397174e-11  6.1581697554088290e-11  2.3876660801140858e-10  7.2458292226623355e-11  4.2529580739202520e-11  1.4698560506794704e-10  2.4294699168125729e-11  6