<?xml version="1.0"?>
<VTKFile type="UnstructuredGrid"  version="0.1"  >
<UnstructuredGrid>
<Piece  NumberOfPoints="4852" NumberOfCells="9430">
<Points>
<DataArray  type="Float64"  NumberOfComponents="3"  format="ascii">-1 0 0  -1 -1 0  0 -1 0  0 0 0  1 0 0  1 1 0  -1 1 0  0 1 0  -0.5 1 0  -1 0.5 0  -1 -0.5 0  -0.4999999999999999 -0.9999999999999999 0  0 -0.1608775713298009 0  1 0.5 0  0.4999999999999999 0.9999999999999999 0  0.1967448868031411 0 0  -0.3413078818717369 -0.1759184418688307 0  -0.3378737566121671 0.2248669434857842 0  0.173514388569434 0.3470663175479948 0  -0.1857489041093142 0.5557491084130486 0  -0.5036285244355755 -0.5378770326577094 0  0.4905615071152777 0.2575742415045464 0  -0.06531226091170129 0.201818834269874 0  0 -0.5061325913258391 0  -0.25 -1 0  -0.5618424208832334 0.5777389251039483 0  0.6616039497986406 0.6339200577935684 0  -0.1761538752131036 -0.538105328899623 0  -0.5397349299523746 0.02549888101479193 0  -1 0.25 0  -0.2070260553465418 0.02427448321151129 0  -0.6551454858657686 0.3096486485212967 0  -1 -0.25 0  0.03867201758073233 0.592499814275192 0  0.1947180889717367 0.1295936157536362 0  -0.1367893076114689 -0.219937645532457 0  0.3710452609568572 0.6148996491513076 0  0.9999999999999999 0.25 0  0.5355652144809806 0 0  -0.75 -1 0  -1 -0.75 0  -0.6452138211225029 -0.3234497517701357 0  0.25 1 0  -1 0.75 0  0.02757118475249542 0 0  -0.25 1 0  -0.75 1 0  1 0.75 0  0.75 1 0  0 -0.02898318711980711 0  0.05334955848783188 0.142957149483121 0  -0.07813009231937591 -0.0273723292691663 0  -0.7015276760754229 -0.1326419162816008 0  -0.3218489228448858 -0.347679171397926 0  -0.3410269900479168 0.4379908675564317 0  -0.1003415951091437 0.7646883429150664 0  -0.3836542840049956 0.7030254187807242 0  -0.05566429874854523 0.3998720997797013 0  -0.07947921531276703 0.07240894547820168 0  0.3588620098473073 0.3702422618542348 0  -0.7158018294514575 -0.7300527131131109 0  0.4118699215074499 0.09025081229318678 0  0.6900636332589949 0.1917671820917546 0  -0.7473461402824632 -0.527214859606425 0  -0.3872084271295375 -0.711007780555827 0  0.7217245139705699 0.4187442923723078 0  -0.7764714489806173 0.0970010913900979 0  0.1966091919974893 0.6991882522083962 0  -0.1997053524667317 0.2893164548979074 0  -0.7991376460188774 0.577642071602921 0  -0.7169807301378307 0.7664970017948411 0  -0.05015283720945886 -0.3737886903456364 0  0.584765202139916 0.8166188524228326 0  0.820388656242432 0.805879517317372 0  -0.1043381351611856 -0.6974786363051309 0  -0.5154137414025556 0.1630278471126939 0  -0.2028061900046976 0.126251535123157 0  -0.3602147218864433 0.07569508473715622 0  -0.366011154522086 -0.05223014089903952 0  -0.4974214203478775 0.3954994624303645 0  0.375 0.9999999999999999 0  1 0.125 0  -0.01259222735897621 0.07139727283684318 0  0.06148678285100785 0.3928217371038784 0  -0.1720331316952123 -0.1222189921797865 0  -0.2433267491272055 0.7740532236197497 0  -0.625 1 0  0.5335048898721954 0.4546277214762265 0  -0.5757252891378786 -0.8302194431316081 0  -0.2571072429822518 -0.7840135150124897 0  -0.3196760927345644 -0.5089037264200178 0  0.8340755377659427 0.5952238033002553 0  -0.548966499882572 0.7910131318096926 0  0.125 1 0  -0.06791265783273852 -0.0932340420415062 0  -0.4951729023284838 -0.1434307202803547 0  -0.8750000000000001 -1 0  0.02889748726092202 0.04188445125992655 0  1 0.375 0  -0.875 1 0  0.05710016995952287 0.7944168850437415 0  -0.1962841102818355 -0.3739182242708173 0  -0.07348627561798596 0.5719100153801577 0  0.2362463852685583 0.518664909830587 0  -0.792680877269116 0.2295303945780775 0  -0.4952400335532258 -0.3895408924617492 0  -0.0007719928604210143 0.2720811007081956 0  0.5099896703322286 0.6404406383494469 0  0.3989005379355086 0.8075588160214981 0  -0.8064419066462073 0.4246368814251936 0  -0.06455798879973869 -0.22062539876489 0  -0.710120645018306 -0.01425245027616292 0  0.0900492719559932 0.053055613426813 0  -0.4785542188410317 -0.2516484162171236 0  0.7238890129344488 0.08290894195941233 0  -0.8086112554343149 -0.41131373447734 0  0.3374463840991666 0.1542032542467868 0  -0.7946586034480358 -0.2511168865541604 0  0.2360217273331373 0.2552153725291106 0  -1 -0.8750000000000001 0  -0.9999999999999999 0.875 0  0.1840698771828583 0.04838133254751703 0  -0.2479697117965585 -0.2292699393215605 0  -1 0.375 0  -0.1718012962117691 -0.04136363547531854 0  -0.6493307479917834 0.4677798194553816 0  0 -0.07736776745332727 0  0.07970589839386004 0.2608640276759569 0  -0.375 1 0  -0.2177887197292804 0.4256191105485538 0  -0.1209700024334574 0.1508452350831596 0  0.1328912570072576 0.5549993589444204 0  0.1313250940872694 0.1947013215770372 0  -0.4756723551779948 0.269981333830898 0  -0.04635961813556844 0.0142125582092221 0  0.8515234903318881 0.3702425663903454 0  -1 -0.125 0  0.2855782332062723 0.8371617100530144 0  -0.1117261916230317 0.3140094300695582 0  -0.125 -1 0  0 -0.7575037395175259 0  0.07821397079968176 0 0  -1 -0.375 0  -0.375 -1 0  -0.625 -1 0  0.7474787146812756 0 0  0.625 1 0  0 -0.2918843213980812 0  -1 0.625 0  -1 0.125 0  -1 -0.625 0  0.3284075310660084 0 0  0.004929205892015135 0 0  -0.125 1 0  0 -0.006571003003944568 0  1 0.625 0  1 0.875 0  0.875 1 0  -0.5623418424151183 -0.6766608486197689 0  -0.005626047510824688 0.1609289867771887 0  0.3623211191586116 0.2638206200634761 0  0.6531201177638501 0.2941901114613466 0  -0.8545738271269917 -0.64666166145027 0  -0.8636154907397029 0.787241107858449 0  0.4305035299352643 0.5019510809851718 0  -0.3987720547836141 0.8560980120481551 0  -0.7786416128924051 -0.8748000766153724 0  -0.8703774464716777 -0.784359748784632 0  0.1541046430770562 0.8425740493735884 0  -0.6592278862839143 0.1528967104631428 0  -0.578300804892503 -0.06427453850496519 0  -0.8548187550236017 -0.06268559621857563 0  -0.2966719533122742 0.5629074097784338 0  -0.4243597745022462 0.5705145009121948 0  -0.377024561850831 0.3317481631934653 0  -0.618719533606403 -0.2167266241945715 0  -0.2736723813123833 -0.08990862201888304 0  -0.6398367494336926 -0.5888328091656038 0  0.8598031095185769 0.2660240023210025 0  -0.0330456336698181 -0.03275456969665447 0  -0.05555080585244882 0.1151000005665673 0  -0.1346050817424779 0.4330286034204605 0  -0.120401333185336 0.03291660486275905 0  0.5377872340050008 0.06477843847543399 0  0.5793604138488914 0.3597828890708831 0  0.6914360912010649 0.7748598302181233 0  -0.7936485329709303 0.8812633563350027 0  -0.6432845057213973 -0.4295848124635657 0  -0.1165324824929001 -0.3972604249165766 0  0.8722856172365258 0.4887322874839982 0  0.07519689069394016 0.09455606858627139 0  -0.6648506174768239 0.8683347561049274 0  0.4546930808185178 0.3513177744254153 0  -0.02656533008762263 0.03590953455239666 0  -0.409131973988328 -0.4407809012925398 0  -0.3622713659004499 -0.2691616140564963 0  0.3234439787482374 0.4826013111861364 0  -0.1971288909405602 0.202328533569992 0  0.7058023751947269 0.5310392142674801 0  0.2615711464592734 0.3570725874221332 0  -0.3763191807521901 -0.8521075209334265 0  0.1088955298678636 0.6827699073919862 0  -0.2846403262866813 -0.6124886186810589 0  -0.4410140521512654 -0.6205314962491196 0  0.2961813855176214 0.6929100123963688 0  -0.8750521952999206 -0.1749830451869687 0  -0.1803723929682494 0.8553411818659925 0  0.4547793969854217 0.1639544689724257 0  0.2802163490564318 0.04702623247987735 0  -0.1429264174966009 0.6582446994102121 0  -0.01179687465786263 0.7093575439379328 0  -0.05353905068024024 0.8754006878685839 0  0.004725284051140095 0.4709416269222723 0  -0.3888222416066323 0.1540422050140931 0  0.5492218787325254 0.1335649390365917 0  -0.4764229884572625 0.6829074854546006 0  -0.8518249660226842 0.3330238647293072 0  -0.08981166431609645 -0.5366156357313606 0  -0.02535960641790438 -0.5523017752551428 0  -0.2140351857071406 -0.287909153411791 0  0.8685350100560822 0.1515547437650822 0  -0.1691485106449027 -0.6614332185816613 0  -0.8891869544358947 -0.5285998242704951 0  -0.282772032943096 0.339222789250073 0  -0.676740545720104 0.5745292674827066 0  -0.8976511093273983 0.5316253036786012 0  -0.8985516308695605 0.6611312445387602 0  -0.6451534345867121 0.0724711868642053 0  -0.8594383227644112 0.02851497645760073 0  -0.8884294147050759 0.1679267985060994 0  -0.1311867161880182 0.2299126067222012 0  0.1599869543281644 0.4472895886786957 0  -0.04386344276744557 -0.1257456995304684 0  -0.7537746882994857 0.6703573853216682 0  -0.602920948478338 0.6983353774248038 0  -0.255493035237692 0.07911186829793111 0  -0.24998705329631 0.6495325425544205 0  -0.02753511385533879 -0.006204894600510589 0  -0.4946902685627214 0.8772488143112905 0  -0.4777025650926203 0.4911925030477253 0  -0.2916149725915909 0.1447294778428558 0  0.001877000357102048 0.02353613890981568 0  0.7796318755195307 0.6836899597673373 0  -0.4695837855377064 -0.8249996328266599 0  0.2717322719119077 0.1959092982610489 0  -0.1482037239085005 -0.8635018879687767 0  -0.06476707338689723 -0.8296822114595428 0  0.4434388537685769 0.7064329792092749 0  -0.1176610799667257 -0.2883900772984494 0  -0.2658945369766907 -0.02585701617416088 0  -0.8938081995165563 -0.8965057608176087 0  -0.5738358629995585 0.2376376920391971 0  -0.4772288313598087 0.08789533545107517 0  0.4913092454054115 0.8260677478189474 0  -0.02836934534941014 -0.2605072797254995 0  -0.3103912232676867 0.8757016926592527 0  -0.1438701498359399 0.08116222005025017 0  -0.4702468190885816 -0.03485194592702726 0  -0.3890620408283712 0.01236159424740121 0  -0.2928167506893959 0.0279752995659971 0  -0.3857574048438718 -0.1205158065621276 0  0.8882416814524881 0.6980766000458856 0  0.7927517021499523 0.9107920874511304 0  0.5767383689016595 0.2083754910618548 0  -0.5600140352072943 -0.4698424424240243 0  0.599004703717855 0.7062457841197189 0  0.6783001153776275 0.8884293288757898 0  -0.05201167961823559 0.3042693055605281 0  -0.9023057666833669 0.9047648423333308 0  -0.1281740831432173 -0.06676900039518713 0  -0.1696218645465273 -0.1825751820831935 0  -0.2531190389542896 -0.143
[...]
<PointData  Scalars="w"> 
<DataArray  type="Float64"  Name="w"  format="ascii">1.7265213014673170e-10  1.0330192850005136e-11  4.4372209499883680e-10  2.3345160750218085e-09  6.2403434617032158e-10  1.5614385724623428e-12  8.6603784436781553e-12  7.4104803590000939e-11  4.0007994450458578e-11  2.0951521807819541e-11  1.0753549819203823e-10  9.5588567905755801e-11  4.0568255743611675e-10  2.7557619418250929e-10  9.0960206578368624e-12  5.3684951984332795e-10  9.0604104442343162e-11  7.1881316424768022e-11  1.3098669867147614e-10  3.5106035064522666e-10  6.6683104514117764e-11  1.0411383353978442e-10  5.7454765403853390e-10  2.9564756890229919e-09  5.7513254808201419e-10  1.0705144864080632e-10  8.8674041868839628e-11  1.7251141957404660e-10  7.6065444765922830e-11  1.8687421940710053e-11  4.6853188339296876e-10  9.6731554102118190e-11  2.4168438675192416e-10  1.7901398314062413e-10  4.5947513069222007e-10  2.2678943660638895e-10  7.7374971306351633e-11  4.7688135771247924e-10  5.8847034444796532e-10  3.1140082836718565e-11  5.2453538354333922e-11  1.0771498543132235e-10  9.1772097452202644e-11  1.9440227742884237e-11  1.0532470204637297e-09  8.7191442265899163e-11  3.1829206033530460e-11  9.6001433266118270e-11  1.2455500041874808e-12  5.9557958710354432e-10  2.2299113963103442e-10  2.1704734068822516e-10  8.2111622518070837e-11  2.5173910240498619e-10  2.5688722957720255e-10  2.0240547743369149e-10  3.5270384003406224e-10  8.8404429772692640e-11  5.8921898504912934e-10  2.5091701423385005e-10  3.1395719731342504e-11  3.1550744948846106e-10  3.7813295038553526e-10  1.4314024092267238e-10  5.3916933538690187e-11  1.7769589343245265e-10  6.9760211689122849e-11  1.7720215103003881e-10  2.3193462687093499e-10  4.5632160511878047e-11  6.4388584386207571e-11  4.3138033650360286e-10  5.6474865962712486e-11  8.8033683683771979e-11  1.7766713987680168e-10  1.6869103025430420e-10  2.5652076822937862e-10  2.8740327802202886e-10  1.8236458455240754e-10  1.9322761163233182e-10  6.4614974597068762e-11  2.5202524136964690e-10  2.6998741230563134e-10  1.9879277895629131e-10  2.3451340566360830e-10  1.2373442865284118e-10  4.5873776922447451e-11  1.0953535216426181e-10  9.4471399339833039e-11  2.5264690256785456e-10  6.9004758310366736e-11  9.9038610641999663e-11  7.7604977157835773e-11  9.3306419967283042e-11  3.9297857057953066e-10  2.0810225090943096e-10  2.5481119268925069e-11  6.7128628624965345e-10  2.5586667299437605e-10  3.1344605639288637e-11  2.7331260761156112e-10  4.1416769174585208e-10  7.0772620371981175e-11  9.6523656639133880e-11  1.5506528235541569e-10  6.3507882342635336e-11  2.7368128185804018e-10  8.2739759373388359e-11  1.4579381353472790e-10  6.5505763375247543e-11  3.1430257312864773e-10  2.4471488503657748e-10  2.3705956898397411e-10  6.4008717105878810e-10  1.2107797584409664e-09  1.4805194112088665e-10  1.6658245599557684e-10  1.0151963094265010e-10  4.6098167269966362e-10  2.5950742833072930e-11  2.5511819759991925e-11  2.8336907394138939e-10  9.1733232217608737e-11  6.0523745930422975e-11  5.0384968457592406e-10  5.6730838763747246e-11  6.0825524353464245e-10  1.1847132818110788e-10  7.6181305054047722e-11  8.2034099062229089e-11  3.4307864136881885e-10  1.7077947453043727e-10  4.6690853053247308e-10  1.3358185648367717e-10  6.3617551419988158e-10  4.4229768235034057e-10  1.0817184068663021e-10  5.1712965151489115e-11  1.2959328187484347e-10  2.5741109635618811e-10  3.8928510143677110e-10  6.1562745391381612e-10  9.2423032432597115e-11  1.1922100445884860e-10  6.8647196095841902e-11  6.5651463411538235e-10  8.5662620693290940e-11  3.3796690213789944e-10  1.4591702658782156e-10  1.2271516136633437e-10  2.0017232827907540e-11  2.8455481577619114e-10  1.5561892239224051e-09  5.6313060679224651e-11  9.7950521876948536e-10  7.8782901585906451e-11  2.4352879479327871e-11  2.4136766893227011e-11  1.2147057946143043e-10  5.6599598009668138e-10  4.4571764805393541e-10  1.6119324273587723e-10  1.1483797687683657e-10  1.6551385222555905e-10  1.8727724925881704e-10  5.8052583150960934e-11  7.7931217949415593e-11  2.0379665564312794e-11  5.9449545388449574e-11  2.9136977033006482e-10  9.1734295668384185e-11  1.0497357487052862e-10  8.2114751142984835e-11  9.5308526986333504e-11  5.2950885114523662e-11  9.5412639966437814e-11  4.5544775063093627e-10  5.6951137797857233e-11  1.6390942184485374e-10  1.7353893169438296e-10  4.6662046990320530e-10  1.9642267402331143e-10  2.8446460930990253e-10  1.4347498076201726e-10  1.4473859971952441e-10  1.5001873161435235e-10  2.1018784431443473e-11  2.8661454990479157e-10  6.6968802110553884e-10  2.5473749917387989e-11  2.5553211678791058e-10  8.8575688497385420e-11  1.5787209359336434e-10  1.1472034652892714e-09  1.3659387420135692e-10  1.6408062062718833e-10  2.3309090813453219e-10  2.8622048037827072e-10  1.0580065931496148e-10  2.0458654124189108e-10  4.1837956317067150e-10  2.1754147995345256e-10  2.3905640838732209e-10  1.0946173613969655e-10  1.1208396566174888e-10  1.1181406425535357e-10  7.0631196184603770e-11  2.0879999547708065e-10  8.9258441622752089e-10  7.7069704680394113e-11  1.0694696331350618e-10  7.7566723961008611e-11  9.6318545295255648e-11  1.6147150760253752e-10  3.7818686079430978e-10  7.8835935229154797e-11  8.4133829773356918e-11  8.5617899962990929e-10  6.6401955279013471e-10  2.9203051538414505e-10  1.9980155305454619e-10  7.8440680826617465e-11  8.0738884764136705e-11  3.3323280602452526e-10  5.8193724522728942e-11  8.2762770637536613e-11  4.9954566374951664e-11  9.2737662710053843e-11  4.0877552085150480e-10  8.9684921873232922e-11  1.9670071945518075e-10  1.6509684101414045e-10  9.1244660585691854e-10  6.1458625006387942e-11  1.9678159569609822e-10  1.1537733066742971e-10  1.1078969910801167e-10  7.5488512214632508e-10  7.4618262546610993e-11  8.4564623623818288e-11  1.1750719513424361e-10  1.1601300029328135e-09  4.0956112310696494e-11  7.7668231676426540e-11  2.8126373362508516e-10  2.5485546877981303e-10  3.4723227401326478e-10  1.8143074036776533e-10  2.0321259444883521e-10  4.0346278700838105e-10  2.9471692222452988e-11  1.0475741008402771e-10  1.2713398953900914e-10  3.7469674636103869e-11  2.7779698363462572e-10  4.3419448740385431e-11  3.3638952436632875e-10  1.3530645061624628e-10  1.0996623717132100e-10  1.9176923228162850e-10  5.0081699078693493e-10  7.3138311205895536e-11  2.6959541101164741e-11  1.4493860666560133e-10  8.1874743670312532e-11  5.9363822044338482e-11  7.6026323257898396e-11  1.7865899055297441e-10  4.8857704027846692e-11  2.6553624610436823e-10  2.5483601010400600e-10  1.2937105260014311e-10  1.3026861659319873e-10  1.3698717647765953e-11  7.1495387297883628e-11  1.4876354772049101e-10  1.6657002441900856e-10  5.0712352484021320e-10  3.6682664511179649e-11  8.2082031654369741e-11  3.3472429229868628e-11  2.4161602831618818e-10  1.2469020572579427e-10  1.8335621552236618e-10  7.5291739323009979e-11  8.6904185149528661e-11  1.2084507037066386e-10  2.0084474059053729e-10  2.2501951371596795e-10  2.6079985067492352e-10  4.4218947735423123e-10  2.1271672427122494e-10  2.1161740017098057e-10  1.4406457232374835e-10  7.9823553256032579e-11  1.7106664241333858e-10  1.6582219259590815e-10  6.3646353560312688e-10  1.2969031481725926e-10  6.2197763024020598e-11  4.0856226256095130e-10  1.9304659424136355e-10  2.0635508725996910e-10  1.1765809230090310e-10  3.2703607971214221e-11  4.4706400166863322e-11  9.7870370041523795e-11  6.8971414630637239e-10  2.9748328140194429e-10  1.7969342077569975e-10  1.3482848929568413e-10  3.3645003081217741e-10  6.7253216232355779e-11  1.0971962750121348e-10  3.5603283954023259e-10  1.2423192674496171e-09  9.8818167181985017e-11  2.8591404416909643e-10  6.2488997621298498e-10  1.2444106974218268e-09  2.0182815581140831e-10  1.5512965366761795e-09  4.2140733391312631e-10  2.2627770690887835e-10  1.1701869918337737e-10  4.1432457749214519e-11  6.5235467751930273e-11  1.2631062804199301e-10  1.5593328823386767e-10  6.3123072005987857e-11  9.9492044864950947e-11  1.0708731945103181e-10  1.2671588605413785e-10  1.9519476498941835e-10  5.0641226581618683e-10  3.1996152598342673e-10  1.6557145658159988e-10  9.5349829681154138e-11  6.1508883235968273e-11  5.9278813191490225e-11  7.0504782533874113e-11  1.8039456498856666e-10  2.2636238870419123e-10  1.0483078524985621e-10  1.0412238562977759e-10  2.3629844464121077e-10  1.3626545077349513e-10  6.9519942315036003e-11  5.8937800161794333e-11  1.0513395465993681e-10  3.4020383341826272e-11  1.8455219110243849e-10  3.2902205402810266e-11  1.6088409699387896e-10  1.8019965185629106e-10  1.5191296728428206e-10  3.9955130831497666e-10  7.9040112094248512e-11  8.2340627580948981e-11  1.4376413583217902e-10  3.0742753155321611e-10  1.4403652384998509e-10  2.6318496720118205e-10  1.1021139702556346e-10  1.3438329232069611e-10  1.5537507506375558e-10  2.8267408829818812e-10  1.2854817977023574e-10  3.3583591172934127e-11  1.1672605715155633e-10  1.1162912257320306e-10  1.4603816971640951e-10  2.5108818122346844e-10  1.7029170042945029e-10  3.4763569810858255e-11  1.2822095889630972e-10  2.3506624892823044e-10  2.9105834138486128e-11  3.2883625649969467e-10  1.6501327082527383e-10  3.9823466583924486e-10  1.1243940925469827e-10  2.3587240964390166e-10  3.2279364181989853e-10  7.4953299762604840e-11  1.0552069038286901e-10  2.1759709192300743e-10  7.3425976888359772e-11  4.8508053027454313e-10  1.6047065814825317e-10  9.7178940078199383e-11  1.0788481205745848e-10  2.0906817274402713e-10  5.4417304504461834e-10  4.8520844183830055e-10  1.8007704535598856e-10  1.7075867730042002e-10  2.0600451288529768e-10  3.9635232743410778e-10  4.5344527910389254e-11  2.2430330367573174e-10  8.1488896542818023e-11  1.2616867022172913e-09  1.1757201823798715e-10  4.5691778691981475e-11  5.6149923305816444e-10  3.3379827756960617e-10  2.4642042570317150e-10  2.0876441637958137e-10  6.3614517420897404e-11  1.5203821117216160e-10  3.3183246712655875e-11  4.3624885633743223e-10  8.1484554789493984e-11  1.3548824907241272e-10  1.2623326889888429e-10  6.5467049088301366e-11  3.4624211361159487e-10  4.2811026144082251e-11  1.1664703468963359e-10  2.4431092885742159e-10  1.7837821304762937e-10  7.2016279096422349e-10  9.2453468987049861e-11  5.7684899680762838e-10  1.4762435868288769e-10  3.5792046768194769e-10  5.3919478864716049e-10  2.4470580184367638e-10  1.5411608519598671e-10  2.7521536886123602e-10  4.8730179053461497e-10  3.4528863949423359e-10  7.4954383009057525e-11  4.9362447212913720e-11  1.6431506122397478e-10  3.6200648977945850e-10  1.8427884520598659e-10  1.2673894073156608e-10  1.6931676568512793e-10  8.1369311252451357e-11  7.0871924588869977e-11  1.9831777039528396e-10  5.7543816410465304e-11  2.0536837272327755e-10  9.0160314423772243e-11  4.8122726840431032e-10  4.9011221384329288e-10  8.1557700423199991e-11  4.1512747049419715e-11  3.9729407743774256e-10  6.5168379319475092e-10  2.5779958907036429e-10  1.0072727556841143e-09  2.8835459319963627e-10  3.1640167608646072e-10  2.7879254978406663e-10  2.6979890145427725e-10  9.6956956842926546e-11  3.1355359410261252e-11  1.9233317950804407e-10  1.0387516921016766e-10  2.1271349366617712e-10  7.5470651969023056e-11  1.2265442047332105e-10  2.0581848663213330e-09  1.7681528710919049e-10  8.0874469025968368e-11  8.2398824409177389e-11  4.0768955186236543e-10  2.4236259748572019e-10  1.8900463575809848e-10  2.0746057272698954e-10  4.4458336919968955e-11  7.6920300562022141e-10  2.4072575608358568e-10  5.3301284409167251e-10  2.4947129737189718e-10  2.3939648221987251e-10  3.1096490332585258e-10  9.4695888272274303e-11  3.3078614103113057e-11  3.6108136236062317e-11  3.7348854156123375e-10  3.5602385079122435e-11  1.1530594859148641e-10  1.0255190488257879e-09  7.5005735158846163e-11  3.4940523598622863e-10  2.6219777777781007e-10  6.1922581551515502e-11  5.9832735535797153e-11  1.8147528287010248e-10  2.4532581500425009e-10  4.8436307857093916e-11  1.1262971197538873e-10  1.5996012371668873e-10  7.5982291478545714e-11  1.6909947195587498e-10  2.1556108909085253e-09  3.4920056385395080e-10  3.1985513561680347e-10  1.0755033716461860e-10  1.0759223255740858e-10  1.8607012372255799e-10  8.0144742137908448e-11  1.3372269779898167e-10  4.9425466208980926e-10  8.6095879025858620e-11  2.3860979203880335e-10  2.1339242481830432e-10  1.3985200151001951e-10  5.1340196867970760e-11  7.7178352301588840e-11  5.4998258371442927e-11  4.2464997005958725e-10  1.0517126510959219e-10  2.2090551607050593e-11  5.7146849731917922e-10  3.0602879822171754e-11  6.2108105183963563e-10  1.1700582879188416e-11  1.5073903330712527e-09  1.7565474326235055e-10  2.4898066360960893e-10  1.0379268000368587e-10  2.8614838132072474e-11  8.4563135730085400e-11  2.7714765762551652e-11  2.0654538806606446e-10  3.7236929115292973e-10  2.7115835833332796e-10  3.1987452351949285e-10  1.3279755502501897e-10  9.2815205621801296e-11  6.2946314902104905e-11  3.6714476426750816e-10  5.0187157688225179e-10  1.0557646038346616e-10  1.0007559725193479e-10  1.4549581109924620e-10  7.6504404403554644e-11  4.5171073722838612e-11  5.4047647211744157e-11  3.1731393179789606e-11  8.8640975773382231e-12  1.7799408890050863e-11  9.8476757673816274e-11  2.2227349589960320e-12  1.0922314799866567e-11  1.8798772080300948e-10  3.4791672681040021e-09  2.2041243291995745e-10  4.2415052647164793e-11  2.1917922077109340e-10  9.2264443642072170e-11  1.1221976787495428e-10  4.3948318874556283e-11  1.6945652610709331e-11  8.7044350676243707e-11  7.6024584503581747e-10  7.9830268957509377e-11  1.8428835989436759e-10  3.2466022172198701e-10  4.8443607198925037e-10  9.6426623637406218e-11  1.0209139603759042e-10  5.8172478285582330e-11  7.6591173996536178e-11  1.1104573400075863e-10  5.6998498646686038e-11  6.2204313562407785e-10  5.9299561465086775e-11  2.8052732196014799e-10  8.7493722154422577e-11  1.2777609056466081e-10  3.0769968573231310e-10  4.1415984793895097e-11  6.2229836412732271e-11  2.8123620516995388e-10  1.1834138162777374e-11  1.1276249957762602e-10  8.7941398883053821e-11  7.6421266186939872e-11  5.6312401420652546e-10  1.6175929189469254e-09  3.0382160613487821e-10  2.9131853398227360e-10  9.0277404792971458e-11  6.9187488389357914e-11  2.5158105570295563e-10  1.1754798211380592e-10  9.9147870431388260e-11  1.0389693103519888e-10  1.9647939867654777e-10  7.3438905027532476e-11  5.2727273498671362e-11  7.0582737213956224e-11  3.9765228198271678e-11  8.6626167370173825e-11  1.9237648838149368e-10  1.6217664741007821e-10  1.1186222350791129e-10  2.8221321184199167e-10  4.6833095549676714e-11  1.3595307094146852e-10  5.2736084985280237e-10  6.6156733928108669e-11  1.1680144123583064e-10  1.4129942797822649e-09  5.7811386552487170e-11  3.3994065581746795e-10  5.1597911039060821e-10  1.5766874001021220e-10  1.2809928918503032e-10  1.2538699021967588e-10  9.0029093861461638e-11  2.5511873597849153e-10  2.8741716674925984e-10  1.7730152315198687e-10  4.7163801825112244e-10  4.2544906886687232e-10  1.2031332831978387e-10  2.0840507401809214e-10  6.6544031757300114e-11  8.4240460584145894e-11  6.2398140211761918e-11  2.3720665810100953e-10  4.0108341655732677e-10  3.0814543636953249e-10  3.2369518610390622e-10  8.5290179802705621e-11  2.3030376039826096e-10  4.8216351504911391e-10  1.7120708133343259e-10  4.7300409106258002e-10  1.8146590321237228e-10  1.3832780409768447e-10  1.1131730548885570e-10  5.1030223287374381e-11  5.4247051401262301e-11  3.3161479315032206e-10  6.2305157942658262e-11  6.4658019200582445e-11  1.2938775353818332e-10  3.1878025088072472e-10  3.1819132741244131e-10  1.5703368367252347e-10  1.1756714859073855e-10  6.0642338317751198e-10  6.3299291693626310e-10  1.6508669503009748e-09  2.7301534247933185e-10  2.0174474345844536e-10  4.4910182704264223e-10  4.5314898094263609e-10  1.1983119302556024e-09  2.9953495346971364e-10  2.4571140108859694e-10  3.2811459744017900e-11  1.2766890440241166e-10  3.4213638176088288e-10  5.2457582550179886e-10  2.1519188060308545e-10  6.6427347851237586e-10  3.0163411152078679e-10  2.1361297302136630e-11  4.8259064642750029e-10  3.3564241160850872e-10  3.8607497899387753e-11  3.3376538428866261e-10  4.1359163140532774e-10  5.4266164125888093e-10  1.4491505854235436e-10  6.6743087825302384e-10  1.9343764227057582e-10  4.6930296671272211e-11  1.2655421021653580e-10  1.3142847723664888e-10  3.1645183495855963e-10  7.8160198297172212e-11  2.6187386095351521e-10  1.9391590397820069e-10  8.0708289298634573e-12  2.2965302566596759e-10  5.7930640549851163e-11  8.9779447605842561e-11  1.2368031844150173e-10  6.4124451010922753e-10  4.1654280867458493e-10  3.0818152933782383e-10  1.1660637641678578e-10  1.3137173663601020e-10  9.3213616502769031e-10  5.5812791529188994e-10  1.3404129988744252e-10  1.4215246160541056e-10  9.3283121469574289e-11  4.8604371072667330e-10  1.3681443659150591e-10  1.7253622332136908e-10  9.4200665033059072e-11  7.0454451840395822e-11  6.3333853984350031e-11  1.4886323060578358e-10  9.7112092142110437e-11  1.2868295115509592e-10  4.2783671910935438e-10  7.5713541149147371e-11  6.0472267676264256e-10  1.2605344800525241e-10  2.2337530370259852e-10  2.7805296232846161e-10  5.6262198798686205e-10  1.1530032274986941e-10  4.0726666049533888e-11  6.2345585397944186e-11  1.4136292419128321e-10  1.5813668418895365e-10  5.1128033888040037e-10  8.3933024165269525e-11  1.5892354271529223e-10  2.4901632975414127e-10  1.3709872172181135e-10  2.3527031424293976e-10  3.3343514847724998e-10  3.1251007252145391e-10  1.0346321225431509e-10  1.7425349759135425e-10  1.4842142791144118e-10  2.2663596085519781e-10  4.5431444317417380e-10  3.7576234397236308e-10  2.0238465953187844e-10  2.0253314485151663e-10  1.2337642974173445e-10  1.7185834314754562e-10  3.0315903746015065e-10  3.8233241218943634e-10  3.6362796485661832e-10  1.6533764778496022e-10  2.1933403167407182e-10  1.9393087718555618e-10  1.5225540445302103e-10  3.9814847726098369e-10  3.1427314335641047e-11  1.0511975814138755e-10  1.2699106412085247e-10  3.6447677659195632e-08  4.0499053739196942e-10  1.7594817580160335e-10  6.0769164606343095e-11  2.5786107195979372e-10  1.3740055909159012e-10  6.3734126050097806e-11  1.0468290478984541e-10  2.0335579129374555e-10  2.0424704050170659e-10  1.9192728713746537e-10  1.8743936401452531e-10  3.0571364927665899e-10  6.4265215641660246e-11  7.9708640696656558e-11  1.8960191704873599e-10  1.2219620764980604e-10  3.5434870419558913e-11  3.9822145861518849e-10  6.4065420359323081e-11  6.1719468598415980e-11  1.9346849855132938e-10  9.7941994673031603e-11  2.3701713655393522e-10  2.9191304851714704e-10  1.3903603292705616e-10  8.0067044435979527e-11  1.8515859092235998e-10  9.5797815735477800e-11  3.2650097209586283e-11  9.0538956059034597e-11  5.8074482231085999e-11  7.8927146420986451e-11  2.2863412534895812e-10  4.6959984524330793e-11  6.6208780177615494e-11  9.4362654153218049e-11  9.2851580346958028e-11  9.3214842695090387e-11  2.5998901854929775e-10  8.7466606654409209e-11  1.8338192501301014e-10  2.0251538688728410e-10  9.9602865555139485e-11  1.6111501092475971e-10  3.1516135429138483e-10  1.2315009796354044e-10  6.2718823597864925e-10  1.6945201181957352e-10  1.4807239262454336e-10  1.3927038573845028e-10  2.2534765305020181e-10  4.4076548903395964e-11  3.9907491127086905e-11  7.6353887816478525e-11  4.3393643016144500e-10  2.0155284640816860e-10  6.4127849592534741e-10  4.4435646284598712e-10  1.2032701961883693e-10  5.5028258696729763e-10  3.6439064765042068e-10  1.8716598282222793e-10  6.9941744874176095e-11  9.2821648063533898e-11  1.7426216257240502e-10  1.8796756032113650e-10  4.1312328034451721e-11  4.8226485836489511e-10  2.7680312517928652e-10  3.1074785317493103e-10  5.3470846348488964e-11  3.4883664695474106e-10  2.6531093270907725e-10  5.9403691293747669e-10  7.2998659673922050e-11  6.1070857224625405e-11  2.3930726761996296e-10  7.2137204462140481e-11  4.2207715955152764e-11  1.4613896928953448e-10  2.4169060537076196e-11  6