<?xml version="1.0"?>
<VTKFile type="UnstructuredGrid"  version="0.1"  >
<UnstructuredGrid>
<Piece  NumberOfPoints="4852" NumberOfCells="9430">
<Points>
<DataArray  type="Float64"  NumberOfComponents="3"  format="ascii">-1 0 0  -1 -1 0  0 -1 0  0 0 0  1 0 0  1 1 0  -1 1 0  0 1 0  -0.5 1 0  -1 0.5 0  -1 -0.5 0  -0.4999999999999999 -0.9999999999999999 0  0 -0.1608775713298009 0  1 0.5 0  0.5 1 0  0.1967448868031411 0 0  -0.4065546925392492 -0.2134745996909501 0  -0.4029817761542638 0.2685361285210687 0  0.2112083404516483 0.4090247691305617 0  -0.2223275718870568 0.6123231228731364 0  -0.5575749930954998 -0.5786016152574441 0  0.5337124260077815 0.2915511421491045 0  -0.08626026120526316 0.2586638555591229 0  0 -0.5061325913258391 0  -0.25 -1 0  -0.6077700763656448 0.6183210038847199 0  0.6910452624241719 0.673600759649818 0  -0.2076338320360344 -0.5767959455743262 0  -0.607001846228197 0.03599054488728512 0  -1 0.25 0  -0.2699364331004225 0.0230879300331887 0  -0.7007360244487411 0.3498453261402397 0  -1 -0.25 0  0.04007979486447304 0.6526110636233585 0  0.2408359319468641 0.1483980080221682 0  -0.1552817202160627 -0.2718345766932839 0  0.4064870376745764 0.6661128187710734 0  1 0.25 0  0.5355652144809806 0 0  -0.75 -1 0  -1 -0.75 0  -0.6974075478168992 -0.3546242768457247 0  0.25 1 0  -1 0.75 0  0.02757118475249542 0 0  -0.25 1 0  -0.75 0.9999999999999999 0  1 0.75 0  0.75 1 0  0 -0.02898318711980711 0  0.07942274340609534 0.1841324290274862 0  -0.1044148301705829 -0.04838567062869552 0  -0.7497317367107742 -0.1408645639672488 0  -0.3767331887738765 -0.3961833612618257 0  -0.3963809655840587 0.4921710070452214 0  -0.1172136761963288 0.8009771894811399 0  -0.4259053508821031 0.7388412297528851 0  -0.07172536211441963 0.4683466767452066 0  -0.1139971479615389 0.09553148834957005 0  0.4072160214236183 0.4219992649474287 0  -0.746720433492937 -0.7562279763168437 0  0.4447474582549392 0.09476332494287333 0  0.714670973260186 0.2068795038373498 0  -0.7808046754439715 -0.56061653056046 0  -0.4291617805281004 -0.7380010844552516 0  0.7464197084086595 0.4567808341546499 0  -0.8117834003779675 0.1142900496525582 0  0.2181071617501083 0.7452738083960222 0  -0.2486019067863439 0.3471150695754969 0  -0.8236764933475687 0.6063574216919004 0  -0.7436879309468049 0.7884149975705352 0  -0.04538648573137481 -0.4080765841994909 0  0.6082146744964697 0.8420370233825315 0  0.8350900395711832 0.8251530717723549 0  -0.1154194061532234 -0.7138872737762496 0  -0.5804200698394973 0.1972013740591662 0  -0.262216242641939 0.1575091760543026 0  -0.4331768515977088 0.09300695845720169 0  -0.4395566900461973 -0.06349845736506478 0  -0.5532451645089874 0.443586321944318 0  0.375 1 0  1 0.125 0  -0.01426560554322232 0.1017306924217583 0  0.07491510314399573 0.4617406468640457 0  -0.212386299730029 -0.1662190611963067 0  -0.2733821448166047 0.8047907580463812 0  -0.625 1 0  0.5733963047594657 0.5032222645840235 0  -0.60543952726255 -0.8469364358880366 0  -0.2807956444465247 -0.8012715235090404 0  -0.3698251875742162 -0.5520626675645689 0  0.8483018154850229 0.6229275253203752 0  -0.5824762453687871 0.814048537337848 0  0.125 1 0  -0.07684723400304064 -0.1241972206013973 0  -0.5638020438721817 -0.1616375518376306 0  -0.875 -1 0  0.0443836486877305 0.05456916499152151 0  1 0.375 0  -0.875 1 0  0.05922372527115805 0.8291046475385179 0  -0.2296625853420393 -0.4256785298837799 0  -0.09332306168016456 0.6316494419008107 0  0.2696880887800835 0.5796418561754386 0  -0.8236888702989505 0.2566808342999199 0  -0.5551913510894053 -0.4313146216690166 0  0.0005338154874551374 0.337097916651686 0  0.5455430410313085 0.6851073231186255 0  0.4227520763496006 0.8373655445191074 0  -0.8320106051565779 0.4550508236375935 0  -0.06140338646543191 -0.2550725209650457 0  -0.7561353411991194 -0.008078626867957609 0  0.1185024068590573 0.05718493589229505 0  -0.5437978740476984 -0.2861502896404475 0  0.7358399087508599 0.08551945412791376 0  -0.8363483281379471 -0.4365999714607026 0  0.3843483740692177 0.1741895710575793 0  -0.8276135212722893 -0.2678383726162386 0  0.286766126196063 0.3004133428881916 0  -1 -0.875 0  -1 0.875 0  0.211839143122894 0.04639447508606398 0  -0.2973683558782307 -0.2803588011079471 0  -1 0.375 0  -0.2229378593462849 -0.06716196689926518 0  -0.6918674524035618 0.5087706505188033 0  0 -0.07736776745332727 0  0.1053487028464943 0.3208203602971073 0  -0.375 1 0  -0.2644198119624182 0.4860004050997143 0  -0.1619710365822225 0.1939757566949412 0  0.1526038968215038 0.6165712080108074 0  0.1726802929459299 0.2375443179243878 0  -0.5379609718644297 0.3141656156224714 0  -0.07012429789982401 0.01459153215391576 0  0.8628131515999418 0.393333330093966 0  -1 -0.125 0  0.3028672055914414 0.8632602036158518 0  -0.142890210554627 0.3788226885231656 0  -0.125 -1 0  0 -0.7575037395175259 0  0.07821397079968176 0 0  -1 -0.375 0  -0.375 -1 0  -0.625 -1 0  0.7474787146812756 0 0  0.625 1 0  0 -0.2918843213980812 0  -1 0.625 0  -1 0.125 0  -0.9999999999999999 -0.625 0  0.3284075310660084 0 0  0.004929205892015135 0 0  -0.125 1 0  0 -0.006571003003944568 0  1 0.625 0  1 0.875 0  0.875 1 0  -0.6069752433217703 -0.7083761519570639 0  -0.002732858786771722 0.2122784672251996 0  0.413212636247472 0.3032286375836911 0  0.6841001847367917 0.3248218156136676 0  -0.8730877571887752 -0.6701114844322564 0  -0.8770242785869716 0.8009003029871262 0  0.4724643423571814 0.5557042136126629 0  -0.4237541078177217 0.8742440342539869 0  -0.7953384736557749 -0.8871604465913681 0  -0.8844506049771043 -0.8004387439643934 0  0.1645244945072802 0.8687524998631694 0  -0.7087584259268831 0.1820436046039991 0  -0.6420441597512295 -0.06756115914656723 0  -0.8800409824944723 -0.06123955327325906 0  -0.3446732024424179 0.6137630404320665 0  -0.4749674775774169 0.6162723556618526 0  -0.4376899460366088 0.3831967710727224 0  -0.676182150846227 -0.2385159129701102 0  -0.3381291377285877 -0.119311566094441 0  -0.6839435533464242 -0.625416512144092 0  0.8713849570978746 0.2771884584820852 0  -0.04159613356590031 -0.04448607318027646 0  -0.07641694151367077 0.1554316583129937 0  -0.1679443822630129 0.4980450088563457 0  -0.1675324544518622 0.03549818159252485 0  0.5570584686254945 0.0668669435108712 0  0.6167546342038731 0.4019739717794925 0  0.7149364346071192 0.8020362786867918 0  -0.8081467875267113 0.8912048957406878 0  -0.6923128300941986 -0.4663823145704244 0  -0.1320998057615871 -0.4454984240614141 0  0.880833006079915 0.5133098541872826 0  0.1078217150158715 0.1163947231363899 0  -0.6855613886904172 0.8820884227311022 0  0.5005777766310257 0.3970085998136256 0  -0.04117597367269046 0.05188959793032098 0  -0.4667920856879216 -0.4856569097165015 0  -0.4240244952377673 -0.3136360742268213 0  0.3646861151901281 0.5408163950631804 0  -0.2509037583394395 0.2497062991191018 0  0.7327119473805603 0.5712786613812521 0  0.3076750261756244 0.4140055965229142 0  -0.4028898288962287 -0.863946649598605 0  0.1193395729483224 0.7318658312815716 0  -0.3263167111869936 -0.6477047849262214 0  -0.4911195833371992 -0.6564078211163165 0  0.3245851129653493 0.7374894542550756 0  -0.8965679857161504 -0.1813212328247225 0  -0.1978616830093365 0.8767228209110061 0  0.4957099790949201 0.1842498027608436 0  0.3020501236043769 0.04460648461772215 0  -0.1704245929781348 0.7064171130902851 0  -0.01985921097956619 0.7546948942682364 0  -0.05966449408084431 0.8959662877025291 0  0.001883553835515139 0.5390039418801384 0  -0.4582537414476409 0.1871424661017954 0  0.5799785682847552 0.1452421576961676 0  -0.5200188942707943 0.7188413390472522 0  -0.8731448487453628 0.3584144517878939 0  -0.1068941793626259 -0.5692219899812043 0  -0.02505042739444935 -0.5739424802700245 0  -0.2516861015627573 -0.342398437411945 0  0.8761818114883063 0.1550644640952026 0  -0.1937831158580646 -0.6876104954003316 0  -0.9039298821379069 -0.5493716185363736 0  -0.3389362564828771 0.3948940837545913 0  -0.7139009925556632 0.610928736253897 0  -0.910801701440779 0.5501781531488364 0  -0.9106680517363662 0.6772604184896238 0  -0.6991852328573056 0.09091155308525209 0  -0.8835100400954178 0.03692245967422166 0  -0.9079845084085375 0.1809272518566181 0  -0.1695619385769761 0.2862255006998321 0  0.1887893155337289 0.5127719124250848 0  -0.04271666920164308 -0.149315107588189 0  -0.7813761792521026 0.6979057132857539 0  -0.6410421183114698 0.7297757608966474 0  -0.3231692232038608 0.09647541675022077 0  -0.2894754064515608 0.6943040199367235 0  -0.03976806535129295 -0.01242397102933305 0  -0.5192006902026367 0.8914576406036758 0  -0.5306536745702489 0.5387341909297302 0  -0.3593540284497412 0.1772921996049076 0  0.004423214336023716 0.03569227658786764 0  0.799391692398247 0.713573704929564 0  -0.5006339074412663 -0.8409999463240454 0  0.3235751281425517 0.2267584513054382 0  -0.1538743198087477 -0.8710648743571544 0  -0.06557534683228619 -0.8345898001456288 0  0.4752465778453004 0.7467981612375645 0  -0.1279538606648433 -0.3387930130251861 0  -0.334065066649687 -0.03940875452848561 0  -0.9017879693517297 -0.904073548942481 0  -0.6302600074380798 0.2771189393508998 0  -0.5473540225892002 0.1094836335379873 0  0.5149587316537831 0.8522571959660736 0  -0.02260588913670483 -0.2776546012274742 0  -0.3317487671180128 0.8920781525239305 0  -0.1957962603206972 0.1018843992670896 0  -0.5417585359713241 -0.03628531529948334 0  -0.4637239066567508 0.01623302531166636 0  -0.3641075218704676 0.03139286645828416 0  -0.4567539062333318 -0.1438976758722325 0  0.8978499830317181 0.7166931345027526 0  0.8042048364281367 0.9209721762290749 0  0.611103284110338 0.2313536975619999 0  -0.6145198595853233 -0.5106691903640459 0  0.6295198117703987 0.7430344600231011 0  0.6937765741062416 0.9032643602256919 0  -0.06768863518688213 0.3708655717142248 0  -0.9089309015029299 0.910571471014512 0  -0.1631972162540453 -0.1016732430779037 0  -0.2020687397952736 -0.2343703876326854 0  -0.3097323426843726 -0.1850204539577078 0  0.05247769162099029 0.2583432912956334 0  0.908119208788
[...]
<PointData  Scalars="w"> 
<DataArray  type="Float64"  Name="w"  format="ascii">7.4407103814730852e-11  8.7016848533084507e-12  4.3294829127439971e-10  1.4223365583933734e-08  6.0268297088474848e-10  1.4748724768346080e-12  7.9379113719027135e-12  4.4409364548750649e-11  2.1937293219213895e-11  1.3966789304512354e-11  4.7436666348192846e-11  5.7747338560766064e-11  5.1112726355961099e-09  1.2779618516095469e-10  6.6498999082343371e-12  2.3678574669704517e-09  1.0519548192586589e-10  6.4044776367595649e-11  1.3337822184795524e-10  1.9386060581974146e-10  4.1295430042376980e-11  1.0481161503760240e-10  8.2101162311244647e-10  4.6620025073187632e-09  3.9545047140592791e-10  5.4728374818373924e-11  5.3805175844435755e-11  1.3325730481163629e-10  5.1683218818190361e-11  1.3669246595532704e-11  6.5245688412979557e-10  5.1512472809912717e-11  1.0700113652478489e-10  1.0321777440523617e-10  8.3946105973242173e-10  2.8066545118381382e-10  4.5508169534162611e-11  3.0225751605480696e-10  5.6698872476288250e-10  1.9608817265769650e-11  2.2360334176883013e-11  5.8921491672257636e-11  4.6556428522771618e-11  1.0902607991723333e-11  3.0458036901297777e-09  5.9648206550048619e-11  2.1317879168816978e-11  4.9211830411698325e-11  2.1953017711553921e-12  1.3490605257008423e-09  5.1241998604433766e-10  4.6490880625374137e-10  4.8819975033096631e-11  2.1975961297337438e-10  1.6586488654710424e-10  9.0428762057678413e-11  1.6982382402378741e-10  8.6046328834368634e-11  1.2642546947135941e-09  1.9795260919945090e-10  1.5694723324733207e-11  3.7214015858655891e-10  2.6313274284061733e-10  6.5664584481776671e-11  3.2082747737402865e-11  1.1211554335583530e-10  3.5253361707292876e-11  1.0917489248414624e-10  2.4014993444505555e-10  2.5110311300457818e-11  3.7328378079743600e-11  7.6378270377990154e-10  2.9309398369685700e-11  5.2485642880538359e-11  1.5204304710228753e-10  1.1784191238038244e-10  3.6187091090071566e-10  2.1795987517342945e-10  1.5170141162203230e-10  1.0588748088952661e-10  3.9734010229715794e-11  2.0737822157988552e-10  7.5706520232341600e-10  1.7280978707429448e-10  3.2319516642567489e-10  7.1374817844948947e-11  2.0383423934767801e-11  7.4651316820838030e-11  5.0406945890800053e-11  1.5947025736907471e-10  5.0570172395915791e-11  5.1898485131993541e-11  3.9838836983917731e-11  4.5413012111385694e-11  6.5758574360013844e-10  1.3669136899022785e-10  1.6399210005191540e-11  1.7228538390419038e-09  1.5885404332584571e-10  1.9344435708339796e-11  1.3220593693938123e-10  4.2461422082884906e-10  7.3239111046060733e-11  7.0199458528621853e-11  8.1765139384883350e-11  4.3308442533310537e-11  3.7838160503455630e-10  4.3537788446673422e-11  6.7237779963081226e-11  3.3923586380128983e-11  6.0696713678379801e-10  1.2000465808231560e-10  5.3806424438265421e-10  4.3579741840195940e-10  1.2459151419529917e-09  6.5966644654755105e-11  2.7841941349776301e-10  5.3626659919133076e-11  4.6934900100550703e-10  1.7039475868839594e-11  1.8449356362704050e-11  3.0875033885806761e-10  1.0187654220484647e-10  2.7202846620226891e-11  8.8470804754323516e-10  3.0538138438177193e-11  1.5702597770946135e-09  1.7571116229604778e-10  4.7078094083893975e-11  6.6842668211905696e-11  5.1941264104153779e-10  9.2252937106528805e-11  5.6943341455970311e-10  8.3920847001484076e-11  1.7308913885194429e-09  2.0353754859670440e-10  5.1970862347529881e-11  2.9569990448432700e-11  1.7477104699581338e-10  2.2872252708307207e-10  1.7653042209785315e-10  2.0591014287028162e-09  3.5715409931333741e-11  6.8734066186378022e-11  3.1616802212011327e-11  6.3704045657713375e-10  3.9498312397776320e-11  2.7117882895186797e-10  7.8901225759380143e-11  6.5317840714295191e-11  1.1044172309569035e-11  2.9197043154187079e-10  6.0468929732367269e-09  3.3674871425587908e-11  3.9808744483507672e-09  3.9360658983665690e-11  1.1412035753093767e-11  1.4901239512999201e-11  6.6580852591538432e-11  9.4924763214368942e-10  5.5062680070033206e-10  1.2782425400040694e-10  4.6799088026256321e-11  8.8019934265210297e-11  1.5084647784237688e-10  3.2686579216597911e-11  3.8073690740027172e-11  1.1653138338878913e-11  2.7710719401753011e-11  1.3450021555841578e-10  6.8216485707645251e-11  5.2255427999904803e-11  6.6970095398168751e-11  5.0690158607156297e-11  4.3089263465982199e-11  6.0780987293485443e-11  4.6787575645657547e-10  3.1967184043812167e-11  1.2614338343186778e-10  3.5127594561272099e-10  1.0152629170193562e-09  1.5467572243588135e-10  5.6841005081602372e-10  1.5280382037062483e-10  1.0506629811045088e-10  7.2825635868891908e-11  1.4305422979652502e-11  1.2380285553854103e-10  7.6952390521324155e-10  1.3535389461668583e-11  4.4124067586196079e-10  4.5069738395214046e-11  1.0960889140416723e-10  3.0885917412108562e-09  1.0066853455357449e-10  1.6032683488064171e-10  1.7447208019729956e-10  3.1395127176065022e-10  5.4781943331312299e-11  1.7936162405467713e-10  2.0656370530476076e-10  1.4158147793494713e-10  1.4146690474557361e-10  6.3385500442485044e-11  7.8470038943517644e-11  5.2063395076295147e-11  4.2203108260822336e-11  1.9347948263615055e-10  1.2964754592070383e-09  4.5095580079674049e-11  6.1634680780126080e-11  6.7075794356358589e-11  8.8599446765579774e-11  1.6604980951488483e-10  2.8472679855010032e-10  5.1336593404665019e-11  3.5392347656620085e-11  7.9624286766819553e-10  7.6121311591224872e-10  3.3789454108699920e-10  1.8289359170449103e-10  9.0444262553996698e-11  3.3301047288854721e-11  2.4688642481246943e-10  2.8724436960603589e-11  3.9123558550063167e-11  3.1399476160405841e-11  5.7748068938227875e-11  1.6032249155905464e-10  5.4020020008169620e-11  2.7660554197848055e-10  1.3849009443591593e-10  1.5214256299934392e-09  3.4137535057051787e-11  9.4171961772538920e-11  1.4616081295955939e-10  5.8414605530707498e-11  2.2961585584172704e-09  3.6365843145968948e-11  4.9715039187017138e-11  1.5242472623733867e-10  3.7911060900032102e-09  2.0914601039723377e-11  4.6786750245291543e-11  3.9672345336109970e-10  2.0904704696516978e-10  3.1342639796072513e-10  9.2963167904343620e-11  2.7749320003902992e-10  4.2871453323740995e-10  1.7658244558078895e-11  6.9744466829920173e-11  9.2577897915679283e-11  2.1073061007806453e-11  3.2814930716585400e-10  2.3356553996810539e-11  5.4053429266513341e-10  1.1895764141645881e-10  9.8693860186562848e-11  2.2515492445374069e-10  4.2205699242619686e-10  4.5554098328497876e-11  1.5816054716252985e-11  1.1496649751873263e-10  4.8808971887113840e-11  3.1049883387420576e-11  3.2897483418070457e-11  2.0868787407993070e-10  2.8524760223579659e-11  4.7879554070476908e-10  3.2265053325410134e-10  1.8990030183163464e-10  2.4247503976923073e-10  7.8544656058711115e-12  6.4390658413927371e-11  2.1123059331834434e-10  8.1407271282869598e-11  1.0642148513974105e-09  2.1061788728190856e-11  5.0928539915911885e-11  2.1830272492792132e-11  4.9030723008991081e-10  8.6462100514160866e-11  1.0001991960731016e-10  5.5779843135340261e-11  3.7167371473976701e-11  8.9058367940707385e-11  1.3235340817220547e-10  2.4234227682368966e-10  2.2536982010291899e-10  6.6385515261393801e-10  2.1635253075719227e-10  2.4760099672881497e-10  8.3533042561897075e-11  6.5606838120635817e-11  1.0238934558196720e-10  1.2115505911725401e-10  1.6629988533110588e-09  6.7922595120247726e-11  3.9445359562048023e-11  5.7152702069115226e-10  3.9441256507412204e-10  8.3657354395160318e-11  1.2834745093637656e-10  1.8679036726883037e-11  3.4631348229252748e-11  4.6920060493161501e-11  1.0824769884048999e-09  5.0227053045170218e-10  1.5533897625619764e-10  8.1760422231777593e-11  2.2438671046118854e-10  4.7220215999851406e-11  9.1073887428351503e-11  5.4412816344318276e-10  1.2488980162551273e-09  4.6005063523756506e-11  3.4959973881971004e-10  8.1145368086609230e-10  3.5134339976541120e-09  4.2350497865973212e-10  3.0157030440349574e-09  7.2531159303359618e-10  1.7937145568261727e-10  1.7168727124586283e-10  2.0138425415061896e-11  3.5481980971637918e-11  1.0979936057616795e-10  8.0343872248035215e-11  3.3196462708062739e-11  1.2783100160496820e-10  8.5569072182167404e-11  7.0817705110537497e-11  4.1236620234052008e-10  1.1182773015057824e-09  3.4803010881875802e-10  1.3480170830222441e-10  6.0808486176560163e-11  4.2681331422707375e-11  4.8915566458951285e-11  4.0850179536588031e-11  1.3000194324786638e-10  9.4837558089278513e-11  4.6188790980995988e-11  4.3610424774223616e-11  1.2975444503005927e-10  8.4408044446498670e-11  3.6085406704022343e-11  3.4302504206769922e-11  1.2785839635117347e-10  1.8832704695830527e-11  8.7370166894137339e-11  1.9534924220575425e-11  1.7186238906264209e-10  1.7676602929403216e-10  1.4617732120301458e-10  1.8980167485768117e-10  6.3662501112372556e-11  4.6628101585485295e-11  6.8327431635518297e-11  1.3054030179713522e-10  1.3308156820199778e-10  1.9422462925013950e-10  6.6646188076011223e-11  8.1670210859324831e-11  6.1176375387364762e-11  2.3214011864927889e-10  1.3048498623309499e-10  2.0444572124338835e-11  6.3924261661653275e-11  8.5311097080873365e-11  7.8033489165463696e-11  9.8270511023039582e-11  8.8015956649925619e-11  1.9398424323038583e-11  9.2937921955228895e-11  1.9757265502169523e-10  1.3780110727061059e-11  3.0688941374799798e-10  2.3127730196350909e-10  1.1469934849011839e-09  9.6273896517136666e-11  1.0170733992829845e-10  2.3782733181178646e-10  4.2353871301352779e-11  6.3065235319911007e-11  1.3363732235405047e-10  3.3311076125169306e-11  5.7826600125132913e-10  2.3565430943908673e-10  5.4704540048809627e-11  7.2369195925624410e-11  1.2103392691275322e-10  9.1363506188823990e-10  8.7289148835393104e-10  8.7372971635373927e-11  9.5102104608396174e-11  8.5455416184986560e-11  2.0266286724353656e-10  2.6274643593211118e-11  9.4106403786778122e-11  3.5008506245922128e-11  8.9347395985020450e-10  7.1186624534574419e-11  2.9451306841650777e-11  1.2962793832927261e-09  3.8114862841442460e-10  1.8561384032676259e-10  1.2200239210577399e-10  3.9267421715095999e-11  9.8978267704109028e-11  1.7947497281358974e-11  3.5605322382449872e-10  4.1780240094093597e-11  5.8188499439851560e-11  9.7091540667055243e-11  3.0768094550234998e-11  2.9918954247505457e-10  2.3024388185775338e-11  4.7276774976480861e-11  3.0179057534523916e-10  1.9428260400307955e-10  1.2468831033677251e-09  4.9556454562091886e-11  8.0947045417360403e-10  7.0965786478079089e-11  9.6078740682388390e-10  2.4539048103264337e-09  2.9388317872253806e-10  1.6012906253040463e-10  1.8423342628428643e-10  9.9843430139174788e-10  2.5944158375043694e-10  3.4225740952970257e-11  3.0025717712144309e-11  2.7134019679915889e-10  7.4886200988622079e-10  8.8774126378887958e-11  6.0035300185104430e-11  6.2706518723166375e-11  3.7487226381926885e-11  3.8292360215460965e-11  1.6625438742311516e-10  3.4293888497405992e-11  1.4751815146057592e-10  7.7626358883571323e-11  8.7043155674077726e-10  2.2893497404874766e-10  5.9906202038742498e-11  3.0814479435769987e-11  3.7494368135829344e-10  1.2072982761744985e-09  2.5283708384003756e-10  2.4093777201160551e-09  4.4284239464774670e-10  5.2863237054573776e-10  7.9696594530936422e-10  3.7997851282858784e-10  6.5481953592574147e-11  1.8586619475347414e-11  1.4941831082449856e-10  5.0498390638518882e-11  1.1890726578197377e-10  6.2015356554114893e-11  5.8314945921390004e-11  8.2845677618591062e-09  1.4088678025440709e-10  5.3002095552048488e-11  3.9312740982693537e-11  6.0219305061137447e-10  3.0654446528810049e-10  2.3090140548619094e-10  2.1964732849180754e-10  2.7437283913958767e-11  1.2557661609279754e-09  2.6730543494920084e-10  5.0981002132002600e-10  2.3017065286557416e-10  1.1140095029584129e-10  1.8642100030334548e-10  7.4511391311820794e-11  2.5238128020589747e-11  2.5461027130094243e-11  1.0573879353211791e-09  2.1997822849361601e-11  5.3176751858534308e-11  1.7356334863992166e-09  4.9946019427390382e-11  1.6516360918785999e-10  1.5147279812811799e-10  4.8472334777813270e-11  2.8663040971304066e-11  2.9346308026699147e-10  4.0297252587867693e-10  2.4313618567767346e-11  1.0641185094747576e-10  8.0214901012349812e-11  5.6040184116617775e-11  1.0508276998197997e-10  5.1766812210908382e-09  3.0425302431825536e-10  2.7500050347633389e-10  1.3885547645370241e-10  5.7324910026823321e-11  7.2572723538583827e-11  3.7340543699708287e-11  9.1942784849243225e-11  3.3512742915495548e-10  6.8735506160926699e-11  1.0671536960945163e-10  1.1428537698179413e-10  1.5922000426429302e-10  2.1445745643918900e-11  2.6577902636197299e-11  1.6873828625835567e-11  1.5130129550471100e-09  6.0732775341557841e-11  2.0217864851629319e-11  6.6114418135808112e-10  1.7500636674565227e-11  5.7303638064069308e-10  1.0031739760150215e-11  3.9456346267826325e-11  7.1297929601033513e-09  1.8338317216261449e-10  4.2486173194551750e-11  2.1090264343211136e-11  3.8721862290482656e-11  1.6602964513341365e-11  8.0038772745451708e-11  3.3507725746187181e-10  2.0813753007471723e-10  1.1573180455188165e-09  9.6276634301081372e-11  4.6682521072008853e-11  3.5285323852732761e-11  1.0590987647334507e-09  3.2775505099427703e-10  4.5242163783653314e-11  4.4695362144590495e-11  7.4780793916570931e-11  4.6431065159537138e-11  2.6396209017753570e-11  2.6350016925301760e-11  2.0617328857233714e-11  6.9773294437059765e-12  1.2257137523686923e-11  5.2083034085779356e-11  1.6795295609942578e-12  7.8064489656962161e-12  1.0381394241471542e-10  6.2120179488377153e-10  9.0122362369472009e-11  1.6340635330431051e-11  1.4372968301577109e-10  5.2140447964932590e-11  6.3063309838624608e-11  2.4101355575533775e-11  1.0285979001966552e-11  4.7872679514488790e-11  2.5875970545130969e-09  4.4822150682568413e-11  1.7164264347440509e-10  2.3172869895860567e-10  4.7473864130328395e-10  7.6222587980658001e-11  7.5774033442342169e-11  4.0883859564720253e-11  7.8475055045482647e-11  5.3379806116205801e-11  2.7694029961824901e-11  4.8388434706768229e-10  4.0059125220920859e-11  4.5534987533669844e-10  4.7813605400429541e-11  9.0966087690849182e-11  1.4999200195647088e-10  3.4847562359048753e-11  2.9246093501524080e-11  1.0349085344636989e-10  6.3916293346200252e-12  6.2429350468850402e-11  7.4010573145131940e-11  6.3257808029246300e-11  4.8144231400770547e-10  2.3811039828682301e-09  3.4082326543548654e-10  3.6035613090371065e-10  7.9084802390024350e-11  3.5956024980600848e-11  1.4893436060070661e-10  6.1515487899872195e-11  4.1321318161957832e-11  4.9452247389543209e-11  9.6960952280329921e-11  4.3767611252404120e-11  2.5834675737069370e-11  3.9113589711121426e-11  2.3578405367502085e-11  5.0003210457286071e-11  2.9080490850899446e-10  1.7398180190599511e-10  1.1508373782842316e-10  2.2437358944561677e-10  2.4287037971737691e-11  9.8160091342414033e-11  6.8139221216802475e-10  3.6114684045432360e-11  7.2564549238434645e-11  1.3908253219298658e-09  3.9700450004300225e-11  4.0539447404094298e-10  1.1445637147538705e-09  2.2691856103504683e-10  6.9143055849123251e-11  1.1874410962050034e-10  4.9584935450941308e-11  5.9713528056534055e-10  4.0857239297174118e-10  1.7494671594071234e-10  7.7607131964645481e-10  5.0748633229964778e-10  6.1111631649874165e-11  9.4080413066038429e-11  3.5361565335612901e-11  4.8622989637095376e-11  4.9585209530151726e-11  1.5342485425525829e-10  3.2851521051839722e-10  2.6486590790596769e-10  3.2297965422536301e-10  4.8180449752405200e-11  5.3516159898486827e-10  1.0988929129015621e-09  8.3121792775601940e-11  2.2769768638649659e-10  1.0494877836897132e-10  9.1397029696348130e-11  6.9602594643082658e-11  3.5769349400024889e-11  2.7262641710121458e-11  2.5197228068141328e-10  3.4600159812506425e-11  4.4318445864639056e-11  7.6293779085711246e-11  3.2313637028976110e-10  2.5507933627668906e-10  1.2047334223414301e-10  8.8356096011329286e-11  1.4102810867165970e-09  9.8243047208846531e-10  4.4429614018378627e-09  6.7868814744716356e-10  3.2718938345837071e-10  9.9488661399990925e-10  3.1944984170064211e-10  3.4317406531336213e-09  4.7322989940212140e-10  1.2128196425929896e-10  2.0247789443008937e-11  6.2114568790489316e-11  3.0783611105536354e-10  3.6034724977697738e-10  2.4927957408969664e-10  7.5645629540765728e-10  1.3470979518178029e-10  1.4092711753062197e-11  2.4817395743451613e-10  5.7547472036819889e-10  2.4640458519458976e-11  3.9160204478326905e-10  3.4032726448194104e-10  6.2448784149805146e-10  1.7121376812752093e-10  6.8660761046358683e-10  1.5781256623897376e-10  3.3781412824502324e-11  1.2026915262667776e-10  1.0191119536864453e-10  4.3008520691632855e-10  3.3715036116162671e-11  1.3154247548462781e-10  8.1038739898151612e-11  4.9543653861291087e-12  1.6604354822715327e-10  3.4778470969521430e-11  6.1796479033694387e-11  8.7955928816265500e-11  1.1875144109972276e-09  8.1859839122061285e-10  3.7559914895643686e-10  9.5733451490962710e-11  5.7288096412555054e-11  1.9881016497076168e-09  1.4402199126741753e-09  9.2484122798191927e-11  1.0297086177755648e-10  7.4423286813955336e-11  3.9142100469844449e-10  6.7285697710322841e-11  9.3422663596013014e-11  4.7114361779837767e-11  5.0503655839638996e-11  4.4613429556720938e-11  8.1747137985288804e-11  7.1705295641756338e-11  8.0710692987120957e-11  1.4777826595902969e-10  3.9029848061206760e-11  1.8147227151367384e-09  5.9114900255573375e-11  2.8836178545486705e-10  9.8159044561009702e-11  1.2970103307376223e-09  8.6051600253759181e-11  2.2099107481467844e-11  3.4714776853137133e-11  1.4252088550221703e-10  1.3033609191674503e-10  3.1620932310040390e-10  4.5453659055315856e-11  6.4559317037228796e-11  1.0977686064524709e-10  9.4223576017771234e-11  1.3640255886383038e-10  2.2391757375722106e-10  3.9183645543632184e-10  4.8935259106674851e-11  1.4026909023908865e-10  9.3886885950057805e-11  2.2081062358649764e-10  4.2662897897525248e-10  3.7328539447343018e-10  1.9275044355186627e-10  7.5472445668981010e-11  6.7492515273259802e-11  9.7985098608241857e-11  4.0122921270198151e-10  3.0489432474581174e-10  2.9839764626914055e-10  2.2791565769576495e-10  2.3737269775490093e-10  1.3519443187201143e-10  6.8946754285389091e-11  2.5292367987580829e-10  1.8000580464689655e-11  5.1454880097489775e-11  9.7273553158843693e-11  2.7915874801791994e-08  2.8528988688029921e-10  8.9185544618108636e-11  6.4217991462221465e-11  3.1099138023004454e-10  8.8523813579040109e-11  3.2995468360050760e-11  6.2193917159115028e-11  1.8994236970080270e-10  1.6096957537361185e-10  1.2779991590403991e-10  1.1204171416817489e-10  2.1876247087939475e-10  2.6834139115215594e-11  6.4276296449049281e-11  1.3390333904196155e-10  1.0320978089501117e-10  2.0569443880095183e-11  2.8305200497982719e-10  3.9185756956922149e-11  3.3810712135584378e-11  1.3037292855357707e-10  5.0737703038480238e-11  1.5164145579244750e-10  2.9396957989952367e-10  5.6233622186898079e-11  6.8023442195883088e-11  8.4054707395180917e-11  6.1678042788675337e-11  1.9507139800550252e-11  4.2892049954914786e-11  4.7667000351258850e-11  9.6435070635871356e-11  7.1597991551032802e-10  2.5289162257956583e-11  2.7461113607173728e-11  4.9841152792472940e-11  5.1841885153997573e-11  7.9321708207021330e-11  2.4785696024174360e-10  6.1181324882895651e-11  1.2139578811733150e-10  3.1781428893719130e-10  1.4715620746484392e-10  1.2252945783812869e-10  2.4928435759416062e-10  6.2858619362432715e-11  1.0380708532810840e-09  9.9243677648931858e-11  1.0167081622193131e-10  1.8879921009436131e-10  9.3205333942882470e-11  2.7855644157939673e-11  2.2663284935555443e-11  4.7167651118966277e-11  4.1244057877687421e-10  3.0743335101320906e-10  4.7417570086308241e-10  6.7612041659830126e-10  9.3151697233161031e-11  8.6645870442772941e-10  2.8989942860119084e-10  1.3057449622313727e-10  4.4386397488526804e-11  5.6037652082127916e-11  1.9619479996962851e-10  2.3826859649974937e-10  2.5382578337357208e-11  4.0226299833340492e-10  1.9684194839556514e-10  2.9105414064496842e-10  2.9831750497098394e-11  2.8462685897514447e-10  1.7355674428594657e-10  2.2012044926615220e-09  5.0012517558092183e-11  3.6446773743082813e-11  2.5619942136140901e-10  4.3906497546703972e-11  2.3797252991514137e-11  6.9055500599421696e-11  1.5647339685206829e-11  2