<?xml version="1.0"?>
<VTKFile type="UnstructuredGrid"  version="0.1"  >
<UnstructuredGrid>
<Piece  NumberOfPoints="4852" NumberOfCells="9430">
<Points>
<DataArray  type="Float64"  NumberOfComponents="3"  format="ascii">-1 0 0  -1 -1 0  0 -1 0  0 0 0  1 0 0  1 1 0  -1 1 0  0 1 0  -0.5 1 0  -1 0.5 0  -0.9999999999999999 -0.4999999999999999 0  -0.5 -1 0  0 -0.1608775713298009 0  0.9999999999999999 0.4999999999999999 0  0.5 1 0  0.1967448868031411 0 0  -0.3678427810339113 -0.1908013271576066 0  -0.3657091397678506 0.2431307165008226 0  0.1885526021159336 0.3688498156618649 0  -0.2004058480782301 0.5782685467227729 0  -0.5216694253092163 -0.5542462307313708 0  0.5064586567921886 0.2674090071448049 0  -0.07596402894758039 0.2269143254832277 0  0 -0.5061325913258391 0  -0.25 -1 0  -0.5795761051404078 0.5936303160378003 0  0.6726832409108879 0.6460893283995147 0  -0.1876336069743001 -0.5537123498944139 0  -0.567228971017914 0.02929231945730452 0  -1 0.25 0  -0.2355347929162084 0.0255293503365814 0  -0.6734800835062148 0.3254337451226763 0  -1 -0.25 0  0.03958130171270188 0.6150279318475986 0  0.2123316208383688 0.1320873944934078 0  -0.1483910772645677 -0.237933032645356 0  0.3853348458783024 0.6313511734657039 0  1 0.25 0  0.5355652144809806 0 0  -0.7499999999999999 -1 0  -0.9999999999999999 -0.75 0  -0.6637986125361051 -0.3365488985323467 0  0.25 1 0  -1 0.75 0  0.02757118475249542 0 0  -0.25 1 0  -0.75 1 0  1 0.75 0  0.75 1 0  0 -0.02898318711980711 0  0.06278071002412786 0.1597736228387146 0  -0.09211136125485302 -0.03232972000137878 0  -0.7199549342936633 -0.1367115601956821 0  -0.3427284652422539 -0.3672542485114523 0  -0.363602662189645 0.4599489484124305 0  -0.1067797479352165 0.7786348014097015 0  -0.4001135813599788 0.7169350570300139 0  -0.06261460022652446 0.427559971313715 0  -0.09659922363409533 0.08471994328898218 0  0.377670304723217 0.3864515231705261 0  -0.7254369286677607 -0.7397579456396026 0  0.4224752905538859 0.09079225971678449 0  0.6990530582009966 0.1956427529076673 0  -0.7579951207686392 -0.5401907578715779 0  -0.40090018624254 -0.7221843694531082 0  0.7315089238357603 0.430061823788251 0  -0.7905303402485429 0.1034473825512711 0  0.2056779985446758 0.7150169135126652 0  -0.2210088362642531 0.3139254030319951 0  -0.808312842634286 0.5887891100819603 0  -0.7267880300754999 0.7747691360387772 0  -0.0546454307071236 -0.3853749205821809 0  0.5935266862489736 0.8240956323205899 0  0.8254422637889772 0.8115989110049709 0  -0.1079164254552382 -0.7042858674140069 0  -0.5423986949515379 0.1766622039962215 0  -0.2297787633137596 0.1407468353976033 0  -0.3914444301553142 0.08304460071008522 0  -0.3967454556919223 -0.05655810223467077 0  -0.5198419423551466 0.4147104340409685 0  0.375 1 0  1 0.125 0  -0.01567514547484098 0.08610092685757786 0  0.06681437273339148 0.4192111383161269 0  -0.1914881550643287 -0.1373700999730231 0  -0.2550110276110519 0.7859328409169563 0  -0.625 0.9999999999999999 0  0.5489804818208639 0.4695344523752312 0  -0.5852245744960903 -0.8365655730235926 0  -0.2645218557246663 -0.7915654551805454 0  -0.3372676466447768 -0.5266527209310016 0  0.8393981739879977 0.6037490790939936 0  -0.5617189833147773 0.7997198600718171 0  0.125 1 0  -0.07587743970049811 -0.1025026860568617 0  -0.5220490688135297 -0.1511771951449038 0  -0.8750000000000001 -1 0  0.03366534421983638 0.04822734175524018 0  1 0.375 0  -0.8750000000000001 1 0  0.05835823189741787 0.8070781455185084 0  -0.2102491848427505 -0.3939211824662773 0  -0.08121811485182692 0.5952144653581609 0  0.2499455121129653 0.5394032533024498 0  -0.8050795251295245 0.2400228213366528 0  -0.5164406194172496 -0.4067378612197506 0  -0.001272622334406526 0.2988959644226063 0  0.5237386033140875 0.6542375657847195 0  0.408405177922628 0.8167789032265698 0  -0.8163272233020574 0.4365435102274933 0  -0.06887014141663558 -0.2317628670980159 0  -0.7284202912754797 -0.01231121118939801 0  0.1007930380372011 0.05277022428067953 0  -0.5030880878266075 -0.266007393557533 0  0.7279315260158347 0.08319388998168313 0  -0.8178638703708032 -0.4216667501791225 0  0.3539761691241062 0.1584009063917743 0  -0.8065928555516241 -0.2584839991563346 0  0.2556085952100049 0.269179610841575 0  -1 -0.8749999999999999 0  -1 0.875 0  0.1947659956649597 0.03992724794428617 0  -0.2688976124354708 -0.2487046989319189 0  -1 0.375 0  -0.1956954665015537 -0.04930377334779371 0  -0.6659086185147892 0.4839174294931384 0  0 -0.07736776745332727 0  0.08956175852244069 0.2839476971298255 0  -0.375 1 0  -0.2370823238650991 0.4503698744471415 0  -0.1404878218929889 0.1708037478076119 0  0.141153150554713 0.5771785740232837 0  0.1474623394839246 0.2093120384273044 0  -0.5013958303822659 0.2878398720816961 0  -0.0584309655523566 0.01726979924855913 0  0.8563744056677718 0.3768856885357065 0  -0.9999999999999999 -0.125 0  0.2928130589283031 0.8456055147613014 0  -0.1256219033187795 0.3413733236924681 0  -0.125 -1 0  0 -0.757503739517526 0  0.07821397079968176 0 0  -1 -0.375 0  -0.375 -1 0  -0.625 -1 0  0.7474787146812756 0 0  0.625 1 0  0 -0.2918843213980812 0  -1 0.625 0  -1 0.125 0  -1 -0.625 0  0.3284075310660084 0 0  0.004929205892015135 0 0  -0.125 1 0  0 -0.006571003003944568 0  1 0.625 0  1 0.875 0  0.8749999999999999 1 0  -0.576784938305632 -0.6890011166036852 0  -0.006316440580792701 0.1835619694109199 0  0.3812620207065811 0.275239736607855 0  0.6650127957115369 0.3029949100565558 0  -0.8601744890876291 -0.6552405686657712 0  -0.8682828205007596 0.792184281630644 0  0.4470406338159732 0.5188503420375534 0  -0.4085567660281856 0.8629324950512656 0  -0.7837914152685508 -0.8792377115487415 0  -0.8746269155971449 -0.7900132504126395 0  0.1585550580872259 0.8516915772586799 0  -0.6794318335412889 0.1641949503541983 0  -0.6035914026443132 -0.06616688208839175 0  -0.8645780236281553 -0.0625815217621052 0  -0.3158364303613013 0.5831745195302079 0  -0.4442391377940971 0.588597097171483 0  -0.4022159956804858 0.3528083192547578 0  -0.6402903144285105 -0.2262211515130777 0  -0.3015496321682269 -0.1007606789221885 0  -0.6540127811210517 -0.6030210725951179 0  0.8644791732070018 0.2687460638718135 0  -0.03850013641463454 -0.03544729901464039 0  -0.06683804581245566 0.1342199258594925 0  -0.1485466295493093 0.4595163852562533 0  -0.1427938240246504 0.03671660440907797 0  0.5438987937287284 0.06540097864082232 0  0.5938035610584743 0.3724138592929954 0  0.6999704748853561 0.783045189506571 0  -0.7986417076007344 0.8848846846294671 0  -0.6598747192763491 -0.4445344480253681 0  -0.1252581035676642 -0.414984801783722 0  0.8758697955962549 0.4961264147282906 0  0.08747069084810646 0.1025858219904621 0  -0.6724735447742232 0.8733432585308275 0  0.4722714484070683 0.3651915070275747 0  -0.03477091381267351 0.04495642579858068 0  -0.4294971437731033 -0.4591675643568603 0  -0.3862148518578884 -0.2871229180609703 0  0.3399275909778972 0.5015355972590355 0  -0.221295970853305 0.2232032939407784 0  0.7160800672031592 0.5433049352668994 0  0.2797381498693285 0.3757837877648951 0  -0.3848167080200807 -0.857368626031584 0  0.1134981806759626 0.7004613631036205 0  -0.2987159259412062 -0.6271425885469554 0  -0.4576063487118474 -0.6350617348180484 0  0.3078738836427881 0.7075094706242665 0  -0.8831652774798925 -0.1781053930599464 0  -0.1870601471662193 0.8634440341914992 0  0.4690170262742662 0.1694271023794932 0  0.2871566070349458 0.04239799069334138 0  -0.1536988108950182 0.6771609543919028 0  -0.01457187276064287 0.7264712754185239 0  -0.05565044168663476 0.8830260852717526 0  0.00362505201165173 0.4973994854563418 0  -0.4183497738043865 0.1677529975680384 0  0.5596133290032923 0.1367731631547193 0  -0.4932390514016365 0.6968562397894309 0  -0.8600923369816548 0.3428786688545082 0  -0.09825173519569955 -0.5492540156787231 0  -0.03003446875422343 -0.5601318245191981 0  -0.2305263338854936 -0.3084930929345446 0  0.8714964223826158 0.1518830672535378 0  -0.1772444804941758 -0.6723072501006229 0  -0.893860623063319 -0.5365879797504777 0  -0.3064342617491307 0.3623466151126554 0  -0.6909525879149668 0.5886785839636 0  -0.9025222435933523 0.5388937083065084 0  -0.9028311432891418 0.6672425228349256 0  -0.6671197551478396 0.07941025886519677 0  -0.8689117274070933 0.0314406852036045 0  -0.8961025638741666 0.1728904046897866 0  -0.1488419509015027 0.2546194219656199 0  0.1717258673659543 0.4705252306145854 0  -0.04758669500010248 -0.1330056042190504 0  -0.7640159135144825 0.6809329573239497 0  -0.6173498015384075 0.710463117731163 0  -0.2856021327798465 0.0873851145441826 0  -0.2655302505654473 0.6671632824013306 0  -0.0341824400167315 -0.006698162811335459 0  -0.5040077841758772 0.8825017795630224 0  -0.4986018730158245 0.5100617627005738 0  -0.3212703659671779 0.1588905575587308 0  0.00130618643490606 0.0299361771516841 0  0.7868199481843593 0.6929000033687572 0  -0.4796014213038545 -0.8314655031799955 0  0.2910311132520961 0.203733352226744 0  -0.1493027844544726 -0.8668008552533106 0  -0.06468995231853851 -0.8317577531399934 0  0.4559652591883464 0.7189656936275159 0  -0.126152889564429 -0.3058557484111654 0  -0.2957345321036867 -0.0302668228553924 0  -0.8961683855426469 -0.8990924286635747 0  -0.5969675471251821 0.2533131185932941 0  -0.5064513453828217 0.09643878901968847 0  0.5003466888954914 0.8338772754056383 0  -0.0301216890902195 -0.2659208796287543 0  -0.3186997264250891 0.8817527120443992 0  -0.1682257592363414 0.0920367359137563 0  -0.4993927050591329 -0.0356998960783474 0  -0.4204165345573866 0.01400605123458379 0  -0.3239066828709031 0.03017148784558736 0  -0.4146513834559502 -0.1298926244709727 0  0.8916706751192864 0.7038668118842775 0  0.7964673493085808 0.9136110776260298 0  0.5891488458924227 0.2148746214546325 0  -0.5784681907245061 -0.4863322863598217 0  0.6105039951502802 0.7174440397767252 0  0.6838853489350862 0.8926442801343073 0  -0.05953141866731574 0.3320689829873254 0  -0.9045324296518035 0.9067526985849433 0  -0.146091826647421 -0.07748620609073716 0  -0.1859122117084091 -0.200
[...]
<PointData  Scalars="w"> 
<DataArray  type="Float64"  Name="w"  format="ascii">1.2540154986747032e-10  9.8631541341013645e-12  4.3843715273011091e-10  2.2596636528775558e-08  6.1501912635961479e-10  1.5483222893471463e-12  8.4265265613346783e-12  6.1438012531386447e-11  3.1239019594036406e-11  1.8305626155815738e-11  7.9868425501532368e-11  7.6373645286041803e-11  4.9407385070180807e-10  2.1197931011279792e-10  7.9586768954930123e-12  1.4700300899123803e-08  8.8781851939085462e-11  6.5775477510155408e-11  1.3219011209478189e-10  2.6760331570169651e-10  5.4319284146617117e-11  1.0528492987397074e-10  6.0747959889556968e-10  9.9505810332920493e-08  4.9200943511142816e-10  8.1269036143051459e-11  7.4135966100070436e-11  1.5271980228915051e-10  6.3732199063963323e-11  1.6631772519234952e-11  4.8804127554228110e-10  7.3810782967643869e-11  1.7880713339876185e-10  1.4363524888883341e-10  6.2896484686156929e-10  2.4267948294160077e-10  6.4504577817780076e-11  4.0967053178966318e-10  5.8642012620966889e-10  2.6816977396663784e-11  4.0726157296813616e-11  8.4395797056417089e-11  7.2554010700517249e-11  1.5133429297368961e-11  1.6343833651864048e-09  7.6101462196890743e-11  2.7767369413343023e-11  7.8184937629280968e-11  1.4871174086891213e-12  8.8973845869413311e-10  3.1560043044073163e-10  2.9745593180742540e-10  6.6808209988895915e-11  2.2591308446494891e-10  2.0705903367048534e-10  1.4563643371920227e-10  2.6247176277686140e-10  8.2557551839008764e-11  7.5669497965120974e-10  2.2948701734843735e-10  2.4795638200090205e-11  3.4783613080400993e-10  3.3538678070765373e-10  1.0868495689985990e-10  4.3539579069355962e-11  1.4979116027778194e-10  5.1971870580065060e-11  1.4463013102813797e-10  2.2326037153963767e-10  3.6176473665709953e-11  5.1974053267005717e-11  5.3608563406279025e-10  4.4322107739612491e-11  7.3438998847696124e-11  1.6335788099032887e-10  1.3850195779434578e-10  2.7217887142368239e-10  2.3801453781949581e-10  1.5889134284182289e-10  1.4809114843753395e-10  5.3023284417690728e-11  2.3595939856700750e-10  4.0830958449698508e-10  1.7574949045026312e-10  2.4873263849951226e-10  9.7278728176266464e-11  3.3862482828325933e-11  9.5082006280306569e-11  7.5140941589208239e-11  2.1221572762489270e-10  5.8666128627420039e-11  8.0479556736560228e-11  5.9369695153300823e-11  7.2134093354122074e-11  4.8621489733074651e-10  1.6923603138415438e-10  2.1909030898097832e-11  1.0020025343363161e-09  2.1384629041887481e-10  2.6513879680942280e-11  2.1064823889777714e-10  4.0064697105347066e-10  7.1433535486241887e-11  8.4843275283701597e-11  1.1820855313000114e-10  5.3909641853966431e-11  2.9205895408401154e-10  6.5771719089431420e-11  1.1143996954370236e-10  5.0333878961687533e-11  4.0906089832296928e-10  1.8076865473689478e-10  3.2397119271398196e-10  5.2464762023231325e-10  1.2183467927260868e-09  1.1186771109192135e-10  2.0445940108506789e-10  8.0357467479741076e-11  4.6332226012396971e-10  2.2419037733763660e-11  2.2915305456778841e-11  3.0232399009391621e-10  9.1762750262140579e-11  4.5159883610294211e-11  5.8424326965236290e-10  4.3547209297631868e-11  9.9488937220192910e-10  1.3745422549700282e-10  6.2764039390617365e-11  7.3451721083674147e-11  3.7562850976313311e-10  1.3386759999661658e-10  4.9768603972523346e-10  1.0745136921275850e-10  9.8135887473994648e-10  3.4484078845615375e-10  8.2400403429062850e-11  4.1950856694601084e-11  1.4021492162815275e-10  2.4470140823050766e-10  3.3087160986543752e-10  6.6686544000600517e-10  6.4770095121932377e-11  9.6044657952574788e-11  5.2870009812068403e-11  6.4686631758876469e-10  6.7158979972284393e-11  3.6177069113342795e-10  1.1332333972937450e-10  9.4604582631859175e-11  1.6254286124048090e-11  2.8020090825672063e-10  3.3514218799303300e-09  4.6804035662866747e-11  2.1678838197122071e-09  6.2176764443922701e-11  1.9539931755792935e-11  2.1250268839040166e-11  9.5668866545455920e-11  6.4046763057864794e-10  4.9195635300054225e-10  1.4849730089913653e-10  8.4506634713296011e-11  1.3151876914098361e-10  1.7284115644131930e-10  4.5955773040596071e-11  6.1272900762902054e-11  1.7064367758506709e-11  4.5749276103601818e-11  2.0876681868878038e-10  8.0206879231658653e-11  8.0079535894289510e-11  7.4429717344811137e-11  7.2776714023005879e-11  4.7596834930520303e-11  7.7867080026191659e-11  4.2982632305570367e-10  4.6017550241204950e-11  1.4867248685320378e-10  2.4346875929736637e-10  6.0212885648471665e-10  1.6929181511652833e-10  3.4420078549464443e-10  1.3942431703833026e-10  1.2821986619759818e-10  1.1750050329002725e-10  1.8102141078106671e-11  2.0794191340234010e-10  6.3997256217761525e-10  2.0205906782498965e-11  3.1046291840172034e-10  6.8839659580644325e-11  1.3784422496293752e-10  1.7351577025223273e-09  1.1609497103092876e-10  1.5800397206076612e-10  2.0866971273731998e-10  2.7557508936474353e-10  8.3114747411731235e-11  1.9364143443567601e-10  3.2067651772519281e-10  1.8457987738819255e-10  1.9281751703692497e-10  8.6694198974600011e-11  9.9692292542391115e-11  8.3281875554898978e-11  5.6620298355450584e-11  2.0443313054294951e-10  1.1881449404398639e-09  6.1754078841419992e-11  8.5850456414483556e-11  7.3430376173054710e-11  8.9129423919598688e-11  1.5735362072606882e-10  3.4174339847752636e-10  6.5763020912959500e-11  5.8734594818692514e-11  7.3538115011947575e-10  8.8525445992765110e-10  2.8627348416885735e-10  1.9260379247948750e-10  8.2172594126446147e-11  5.9650060365137663e-11  2.7835819978875452e-10  4.4029088622128994e-11  6.1570683194217394e-11  4.1902774256228143e-11  7.4956406045245382e-11  2.8229535497915136e-10  6.9898817734173117e-11  2.1318039950609760e-10  1.5262023456370415e-10  1.1429485492851104e-09  4.8865563377206521e-11  1.4667648961327040e-10  1.1979783993084802e-10  8.4678653051257103e-11  1.3006986421566195e-09  5.5601851845805440e-11  6.7273272545212920e-11  1.2319642847014429e-10  2.2282005696596607e-09  3.2390425894543175e-11  6.4014697546157500e-11  3.3637871639189774e-10  2.3363402815352195e-10  3.2776044223030031e-10  1.4460064185622515e-10  2.1382530288652833e-10  3.8023336958311809e-10  2.4944169070694942e-11  8.7300160166235425e-11  1.0634598661737479e-10  3.0892623509478025e-11  2.9850669630603019e-10  3.4523647889447389e-11  3.7674100213591744e-10  1.2336953055895490e-10  9.9590031091748871e-11  1.9551655031938635e-10  4.3738513667879554e-10  6.0938046047192420e-11  2.2649520004520434e-11  1.3255938398925711e-10  6.5965940670793447e-11  4.7441565416013789e-11  5.8686203556398223e-11  1.8424158092746849e-10  4.0624114841160367e-11  3.1988264180424553e-10  2.6486904213548618e-10  1.4182191310682187e-10  1.7296244510829053e-10  1.1627983156948038e-11  6.8578535799845251e-11  1.6693236661122846e-10  1.2267371111435098e-10  6.7697785652771815e-10  3.0115583435623326e-11  6.8433912487921169e-11  2.8905132592990347e-11  3.0842259700364122e-10  1.0446256666995880e-10  1.4137279720150629e-10  6.7586828386930250e-11  6.1654830166292614e-11  1.0638971781001769e-10  1.6368548062887875e-10  2.3450867759197633e-10  2.3660346190095643e-10  5.1654335274714725e-10  2.0048928778305436e-10  2.2224734230391232e-10  1.1877782479425253e-10  7.0111114855530536e-11  1.4087074784059901e-10  1.4291906807823998e-10  1.0265533746550688e-09  1.0323882521902787e-10  5.2675830336415792e-11  4.5100224654087036e-10  2.7860020239363349e-10  1.4618386267055655e-10  1.2250612182292438e-10  2.7115140560502877e-11  3.9625029407054464e-11  7.4858843101586127e-11  8.4532250878779612e-10  3.9261222356287376e-10  1.6164325699269127e-10  1.0370291073958805e-10  2.8620651530933869e-10  5.7126520963708332e-11  9.9714780240586855e-11  4.3226452727693329e-10  2.3344845139878580e-09  7.5444711221477647e-11  3.0893727946319820e-10  6.7970075542094104e-10  1.8725707700577573e-09  3.1508738916998841e-10  1.8808561172850858e-09  4.9206136759232462e-10  2.0991830674860836e-10  1.3561852496330362e-10  3.1101068040349364e-11  5.0812723533335969e-11  1.1516952445517899e-10  1.1845955088018710e-10  4.8848086574303426e-11  1.1018162181339520e-10  9.5109501868251692e-11  9.9185221094338704e-11  2.6427657889474888e-10  6.7052918960843407e-10  3.2894142102039307e-10  1.5174618221500750e-10  8.1161461282564837e-11  5.3563656310203532e-11  5.4978668521712435e-11  5.7035188082997401e-11  1.5292195389545337e-10  1.6582841414456864e-10  7.8671116549053109e-11  7.6171263830019282e-11  1.8989632036252013e-10  1.1386066824670043e-10  5.6423861772632849e-11  4.6816237590964563e-11  1.0953138802074027e-10  2.7185129586669462e-11  1.3587936444065495e-10  2.7579555888873531e-11  1.6421892185517056e-10  1.7736850764026057e-10  1.4252049578739322e-10  3.0691529936778685e-10  6.9941637204258657e-11  6.5182372117978535e-11  1.0698319388847956e-10  2.2235300251206381e-10  1.3490774526712631e-10  2.3750495514486177e-10  9.1017910035393994e-11  1.0688608146302171e-10  1.0809365638681149e-10  2.5685247744262574e-10  1.2993575083640922e-10  2.7483406227403592e-11  9.1629023247727057e-11  9.7812905501995647e-11  1.1258269106877758e-10  1.8462443867533705e-10  1.3518377797546013e-10  2.8423970783631031e-11  1.0779368324102843e-10  2.1713716420119439e-10  2.3120086316269397e-11  3.0260237728834693e-10  1.8027920338055342e-10  6.3927839238477065e-10  1.0287011187765623e-10  1.7086778336264874e-10  2.6786027453508234e-10  5.8779416655740711e-11  8.6719245692337955e-11  1.8178842837568806e-10  5.6972874138260153e-11  5.0598033194426173e-10  1.7633331954882881e-10  7.6002557390676413e-11  9.0653510614997284e-11  1.7320107366399682e-10  6.1785950626948168e-10  6.2613223482092503e-10  1.3715958267977860e-10  1.3321413263760400e-10  1.4567958369321942e-10  2.9195925834250707e-10  3.6487209051284267e-11  1.6313241791926810e-10  6.0625745906953789e-11  1.1764001919526622e-09  9.5585781792340014e-11  3.7127646535505287e-11  7.5693469567768211e-10  3.4584032213858438e-10  2.1171959239722368e-10  1.6309549357481534e-10  5.1238836249628603e-11  1.2306981275558422e-10  2.5632800851365755e-11  3.8131338536506338e-10  6.2675415649091838e-11  9.8873124187900872e-11  1.0982649378185691e-10  4.8825818046087755e-11  3.2893914649841433e-10  3.4581432906455339e-11  8.5932005069794794e-11  2.4850743446601573e-10  1.7131564677037395e-10  8.5724528535363884e-10  7.3771394391744916e-11  6.3599789472223369e-10  1.1556435150910774e-10  5.1770011419032375e-10  1.2434420958083576e-09  2.5352652347504971e-10  1.4782222685556293e-10  1.5923551256306490e-10  6.5669244914090313e-10  3.0624984707152969e-10  5.6339758588149260e-11  3.9879191463258108e-11  1.8728337361456966e-10  5.1450040890624296e-10  1.3930373223755511e-10  9.5059522883212769e-11  1.2098475621797350e-10  6.2126301494560186e-11  5.5199566311285812e-11  1.7772882324462739e-10  4.6172014932147558e-11  1.7024987793312788e-10  8.3560357275277138e-11  5.7370453974772351e-10  3.6520197624218509e-10  7.0306659083765315e-11  3.5466834238166032e-11  3.6912446304079765e-10  7.2843895511148308e-10  2.3868897100583161e-10  1.4035835126560581e-09  3.2248164425442168e-10  3.6922884627404989e-10  4.2211407340345499e-10  3.0621891925526484e-10  8.0815227558752092e-11  2.5924390579935294e-11  1.6235459353197510e-10  7.7311054403970147e-11  1.6635909209865998e-10  6.9792247669408561e-11  9.2079541248428905e-11  4.3310975535136429e-09  1.6140360749649443e-10  6.8536823472736394e-11  6.2847575708231521e-11  4.8833274818434223e-10  2.4782934914147970e-10  1.9559985774655756e-10  2.0489493594594678e-10  3.6890348605461928e-11  8.3394926375486936e-10  2.3522676809646898e-10  5.2296108731633091e-10  2.4041221338792652e-10  1.8250304943748940e-10  2.5967064481515442e-10  8.6108026722609071e-11  3.0264476615565025e-11  3.2641930391223723e-11  5.7134793204703852e-10  2.9655682728717769e-11  8.6795723042119345e-11  1.2288391920010942e-09  6.3333594471660320e-11  2.7094588604114804e-10  2.1629905525163346e-10  5.5451395287261032e-11  4.6401817087251688e-11  2.2132200403307501e-10  2.8679079468446681e-10  3.8712194869393993e-11  1.0199773735696784e-10  1.2555036629020400e-10  6.6987832176945263e-11  1.3801012173885425e-10  3.4777572908428614e-09  3.3890462478304569e-10  3.0400595274614205e-10  1.2051082730343916e-10  8.6307394068859030e-11  1.3768132271268342e-10  6.1019973010193130e-11  1.1287780742073699e-10  3.9640832138765492e-10  7.5274613525436844e-11  1.7800156153933026e-10  1.7065664789139308e-10  1.4783262167979670e-10  3.7460187041047788e-11  5.3953212064521346e-11  3.7390196828522361e-11  4.6404092380941947e-10  8.2704112677176945e-11  2.1445433372925517e-11  5.9675319987111856e-10  2.5447341463468648e-11  6.0109625262088431e-10  1.1390180119468316e-11  7.2192874052059509e-10  1.9825543159264547e-10  2.2188054034142339e-10  7.4506957417258598e-11  2.5791909080074042e-11  6.2720083228895707e-11  2.2407162833530032e-11  1.5246145763967016e-10  3.5714395802679584e-10  2.4702157146494556e-10  7.7923362946087330e-10  1.5151936159727318e-10  7.2830847393079562e-11  5.1277054450614828e-11  6.2845709678355505e-10  4.3385628998738933e-10  7.9657615603830886e-11  7.4545577858768588e-11  1.1179028039612745e-10  6.4514467464043624e-11  3.7204252564328887e-11  4.1011124493580699e-11  2.6644161546683960e-11  8.0658361071114701e-12  1.5387866454506204e-11  8.1093386452481629e-11  2.0999257385133074e-12  1.0147918394272860e-11  1.9506152829545583e-10  7.2201368388905844e-10  1.5824818101776838e-10  3.1146164437704818e-11  1.8071298999704257e-10  7.3260121810372212e-11  9.0005270858467017e-11  3.5946508250940816e-11  1.4121970320183317e-11  7.0044399041638758e-11  1.4441195104781948e-09  6.6456166044904927e-11  1.7834069820692355e-10  2.8672943539021658e-10  4.8778491598668091e-10  8.8548479247393257e-11  9.0781574355881262e-11  5.1385617091264168e-11  7.4225340767472373e-11  8.4495262913854960e-11  4.3244324693436079e-11  5.5706710806543431e-10  5.1246195915878994e-11  3.1811901851147692e-10  6.9890815352422241e-11  1.1270416674682150e-10  2.3426374542334836e-10  3.7978769614662844e-11  4.5865447189047251e-11  1.9083768672229722e-10  9.4493434036881683e-12  9.0026537613737211e-11  8.2300625823454624e-11  6.9608458840056643e-11  5.3753375010747771e-10  1.9268272092942543e-09  2.9263627289233960e-10  3.2209072875531023e-10  8.5353532338218285e-11  5.5087157029397412e-11  1.9489053548088894e-10  9.2602567337019009e-11  7.6073004028101423e-11  7.9538451688874252e-11  1.4451853087178320e-10  5.8945295477918558e-11  4.2085934877118371e-11  5.7778400210438315e-11  3.3200434023288861e-11  7.1260806178341931e-11  2.1221806051149053e-10  1.5830324790544604e-10  1.0736479995290711e-10  2.4634768322776937e-10  3.6374892177703282e-11  1.1998470893975786e-10  5.4099190363803256e-10  5.1809857520688794e-11  9.4906858010034548e-11  1.2870306052589164e-09  4.9786185109730399e-11  3.6540603705896907e-10  6.7460477434234199e-10  1.7401349143211903e-10  1.0233787700825339e-10  1.2426318670590607e-10  7.4139450401738069e-11  4.5635997296766734e-10  3.1601967589160776e-10  1.7578481025218096e-10  5.7324211087496701e-10  4.5138094604315129e-10  9.0052857004608045e-11  1.5109687111885883e-10  5.3366362325494039e-11  6.7715568888548807e-11  5.6079151035869081e-11  1.8881838813754121e-10  3.7585299027515406e-10  2.9402893290940489e-10  3.0383642978779491e-10  6.7882257970527180e-11  3.0908726465986068e-10  6.4577920857228586e-10  1.2620678562944182e-10  3.4405812045158333e-10  1.4712431663042246e-10  1.1863326770361582e-10  9.0259283040808968e-11  4.5588460947983055e-11  4.3239496310636038e-11  2.9386817644018305e-10  4.7805986778135682e-11  5.5796720845152278e-11  1.0565174950126711e-10  3.0695413492535685e-10  2.9310280082676187e-10  1.3776296762341476e-10  1.0663124229104609e-10  8.3983920984678988e-10  6.9437762983903461e-10  2.4619943247723134e-09  4.2247028299924828e-10  2.6657876534920728e-10  6.4442430004632817e-10  3.7917386274388287e-10  1.8616105084354966e-09  3.5319662246268803e-10  1.9015827358720510e-10  2.7124779290387178e-11  9.5234661279294974e-11  3.1408195318918939e-10  4.1215515996571853e-10  2.5109273838722400e-10  6.5404653119360744e-10  2.2757242529318610e-10  1.8412523915232864e-11  3.7891046629853236e-10  4.1493832718230491e-10  3.2336711467936024e-11  3.3430013538998201e-10  3.8738500918973352e-10  5.2198282833354682e-10  1.4512779614900768e-10  6.2654600250312178e-10  1.6632237366392423e-10  3.9850242847301207e-11  1.1760301598742719e-10  1.1203476157262865e-10  3.5398924741459964e-10  5.9232289162135396e-11  1.9387596639025866e-10  1.4223315621006866e-10  6.7800873181963580e-12  2.6064538826847623e-10  4.8884009718468553e-11  7.7994751824865544e-11  1.1051518233651231e-10  7.8113551320095561e-10  5.6127500638634584e-10  1.9586275851393035e-10  1.0890086297200541e-10  9.7448408914278668e-11  1.1580784355895152e-09  8.1138807826055690e-10  1.1717415511837050e-10  1.2362925901536305e-10  8.2641919708292891e-11  4.2303233044093697e-10  1.0203876170385511e-10  1.3082500809574571e-10  7.0919457763649073e-11  6.1886400743477866e-11  5.5432501846025531e-11  1.2153320502713388e-10  8.7564087592954657e-11  1.0519293295632946e-10  2.8203901667750268e-10  5.8969931491415513e-11  1.0635296343463299e-09  9.3440256686454735e-11  2.3238319388986111e-10  1.9003665224545848e-10  7.7291748600225258e-10  9.7950199377959773e-11  3.1943471944755446e-11  4.9244222346698960e-11  1.3815057353538104e-10  1.4382827370884350e-10  4.1605053962014274e-10  6.9752099274221289e-11  1.1251917020577856e-10  1.8411234875482856e-10  1.1428018467109923e-10  1.8800469852139956e-10  2.8006321265642797e-10  3.1572072656270263e-10  7.6164095980405446e-11  1.5994795742702253e-10  1.2037089801283147e-10  2.0844978081461071e-10  4.8125634350458153e-10  3.7717957367303945e-10  1.9895766383257766e-10  1.3668591570480423e-10  9.3212865520461240e-11  1.4003802352731918e-10  3.3325627662590709e-10  3.5069968254023626e-10  3.3659233207098699e-10  1.7745490250201645e-10  2.1175151036576706e-10  1.6655060776150845e-10  1.1121220624390704e-10  3.4117060870888723e-10  2.5760623904543382e-11  8.0136385551988927e-11  1.1254451328171321e-10  3.0127799630483376e-07  3.3880706136524420e-10  1.3832184726974200e-10  5.8187011784339347e-11  2.6344439678121869e-10  1.1596998173735885e-10  4.8528947577741965e-11  8.4500470717837383e-11  2.0160649517338483e-10  1.7889690574565960e-10  1.5948290429665824e-10  1.5152927459200332e-10  2.5235531646339574e-10  4.7230781957288000e-11  6.8874878613106388e-11  1.5497647979664256e-10  1.0902412017792769e-10  2.9009337160910346e-11  3.2873630352638097e-10  5.1159581397171344e-11  4.9222579792184780e-11  1.6393262701243699e-10  7.5185594057759260e-11  2.0035691775275089e-10  2.9507411771218530e-10  1.1557969898953188e-10  7.3168871503130080e-11  1.3600830726018782e-10  7.9945854567283388e-11  2.7721650741637876e-11  7.1444153923969430e-11  5.3979146985685784e-11  8.6764492425957911e-11  3.8448482058244131e-10  3.6854758745398378e-11  4.9721755648296229e-11  7.5884573466021599e-11  7.4523715356771849e-11  8.2461532008064647e-11  2.6404573316835754e-10  7.6198738060364269e-11  1.5508561305789905e-10  2.2105758976229575e-10  1.0753158615062271e-10  1.4632995262535149e-10  2.9208480605979584e-10  9.4202049147761388e-11  7.6753711254708904e-10  1.3288328154508900e-10  1.2278379035514745e-10  1.5246331613705818e-10  1.5937020142705220e-10  3.7920307457505312e-11  3.2858593979860627e-11  6.2054443993435897e-11  4.3197814389573849e-10  2.3013560261539836e-10  5.5519467128690448e-10  4.9164639316588397e-10  1.0411719272624538e-10  6.0654899191229763e-10  3.3929351801716343e-10  1.5710185714262650e-10  5.6968437842130281e-11  7.4897827765091234e-11  1.7026337520819726e-10  1.9613501071667345e-10  3.4464691022461589e-11  4.4748624150535898e-10  2.3981532798996971e-10  2.9947776673609944e-10  4.4430228027312442e-11  2.9457673732485621e-10  2.2207404371125247e-10  1.3897778924168018e-09  6.2349793959648340e-11  4.9691326902829499e-11  2.2933242279479777e-10  5.8383206902181672e-11  3.3554393143547747e-11  1.0858969934965793e-10  2.0689574949910800e-11  4