<?xml version="1.0"?>
<VTKFile type="UnstructuredGrid"  version="0.1"  >
<UnstructuredGrid>
<Piece  NumberOfPoints="4852" NumberOfCells="9430">
<Points>
<DataArray  type="Float64"  NumberOfComponents="3"  format="ascii">-1 0 0  -1 -1 0  0 -1 0  0 0 0  1 0 0  1 1 0  -1 1 0  0 1 0  -0.5 1 0  -1 0.5 0  -1 -0.5 0  -0.5 -1 0  0 -0.1608775713298009 0  0.9999999999999999 0.4999999999999999 0  0.5 1 0  0.1967448868031411 0 0  -0.3405910328194486 -0.1756278842698172 0  -0.3365444548961404 0.2239428246364105 0  0.1737651809535315 0.3458841041635221 0  -0.1847811086551365 0.5546700419399256 0  -0.503705026769879 -0.5371535455405555 0  0.4904174621372027 0.2567428097440329 0  -0.06439907977920213 0.2009089791883122 0  0 -0.5061325913258391 0  -0.25 -1 0  -0.5608152484944566 0.576982499191083 0  0.6612765685206217 0.6333118533957439 0  -0.1773267164830691 -0.5373905965679434 0  -0.5386502637920391 0.02529291010307881 0  -0.9999999999999999 0.25 0  -0.206057931716277 0.02372953077241056 0  -0.6542148826410743 0.308892262060863 0  -1 -0.25 0  0.0390928060860528 0.591412261809962 0  0.1950239480459598 0.128747987221131 0  -0.1365903540968259 -0.219703055391567 0  0.370803630345851 0.6140523610140342 0  1 0.25 0  0.5355652144809806 0 0  -0.75 -1 0  -1 -0.75 0  -0.6448811353324549 -0.3228208684118155 0  0.25 1 0  -1 0.75 0  0.02757118475249542 0 0  -0.25 1 0  -0.7500000000000001 0.9999999999999999 0  1 0.75 0  0.75 1 0  0 -0.02898318711980711 0  0.05412250444515319 0.1422195478667614 0  -0.07770394728223684 -0.02780253293515281 0  -0.700925993577145 -0.1323600665388387 0  -0.3218259843250711 -0.3469707616151482 0  -0.3397982415364857 0.4369464567719528 0  -0.09983873094315486 0.7640304079562489 0  -0.3827229461400438 0.70232212481766 0  -0.05482811437122438 0.3986374910634246 0  -0.07895151051899243 0.0719343761136803 0  0.3587529633873029 0.3691726373827223 0  -0.7156766216569571 -0.729642615865287 0  0.4118032294207297 0.08977813644483632 0  0.6899550124269126 0.1913549130105207 0  -0.7472318960972388 -0.5266382625061655 0  -0.3876331031949612 -0.7104385002413093 0  0.7215681921783742 0.4180841316990018 0  -0.7758349162455545 0.09677556530819026 0  0.1965217291569112 0.6983655985091753 0  -0.1985158878992155 0.2881998087974357 0  -0.79862401821346 0.57704064591214 0  -0.7163217745079302 0.7660536621050726 0  -0.05337489719110814 -0.3732744569857698 0  0.5844334755600613 0.8161767971069764 0  0.8201403265661582 0.8055104729825406 0  -0.1069167937771813 -0.697213167094942 0  -0.5142144828755907 0.162344892417672 0  -0.201720623390947 0.1254753007460065 0  -0.3589559463757027 0.07515373669389711 0  -0.3649345530127898 -0.05238006468813295 0  -0.4962251777920962 0.3945817832433294 0  0.375 1 0  1 0.125 0  -0.01194932619791783 0.07124742871311675 0  0.06200857537390144 0.391584887390904 0  -0.1713547413654871 -0.1223285973820629 0  -0.2425743194494859 0.7734746930771768 0  -0.625 1 0  0.5332209574585725 0.453744655712301 0  -0.5757231738275489 -0.8299342608694328 0  -0.2578634394796844 -0.783579265803423 0  -0.3201216928008025 -0.508100878735482 0  0.833924240276287 0.5948119523483488 0  -0.5482352131791802 0.7905532113176209 0  0.125 1 0  -0.06744136653927467 -0.09342148155313082 0  -0.4943313085549422 -0.1431811076708366 0  -0.8750000000000001 -1 0  0.02951329593653367 0.04164141602995272 0  1 0.3750000000000001 0  -0.875 0.9999999999999999 0  0.05725060715487675 0.7937764476031813 0  -0.1967625592585997 -0.3732621930641901 0  -0.072745346737631 0.5708009630081982 0  0.2362298923624256 0.5175905457470785 0  -0.7921044793858216 0.2290805902008485 0  -0.4950645025586181 -0.3887838554919565 0  2.348681763902756e-05 0.2709786310244514 0  0.5096203638455984 0.6397297707622176 0  0.3986145491742557 0.8070764938526797 0  -0.8059460762002122 0.4240278905603721 0  -0.06459008065668886 -0.2203987568612547 0  -0.7094038091275954 -0.01424946497160082 0  0.09048350527849339 0.05248709940028226 0  -0.47801385367272 -0.2510881353559849 0  0.7238496487885218 0.08274871485531954 0  -0.8084593792032685 -0.4108103441567586 0  0.3374566134516137 0.1534028778692185 0  -0.7943606503897359 -0.2506654230203259 0  0.236188450463665 0.2541439946843355 0  -1 -0.8749999999999999 0  -1 0.875 0  0.1842812967912258 0.047864410854482 0  -0.2475821958957033 -0.2288949956528843 0  -1 0.3750000000000001 0  -0.1710032285735656 -0.04176299709664771 0  -0.6484269385949424 0.4670099725021489 0  0 -0.07736776745332727 0  0.08028736796618427 0.2597616708347896 0  -0.375 1 0  -0.2166023371826846 0.4244695946873042 0  -0.1200436954106121 0.1500598578595657 0  0.1330472839153525 0.5539069188549459 0  0.1318229227899851 0.1936982727663656 0  -0.4744156675802438 0.2691261480315916 0  -0.04622427393236078 0.01392449395428279 0  0.8514809299864319 0.3698469669614545 0  -1 -0.125 0  0.2854146618006732 0.836698798990191 0  -0.1106914430917671 0.3128412649538089 0  -0.125 -1 0  0 -0.757503739517526 0  0.07821397079968176 0 0  -1 -0.375 0  -0.3750000000000001 -1 0  -0.625 -1 0  0.7474787146812756 0 0  0.625 1 0  0 -0.2918843213980812 0  -1 0.625 0  -1 0.125 0  -1 -0.625 0  0.3284075310660084 0 0  0.004929205892015135 0 0  -0.125 0.9999999999999999 0  0 -0.006571003003944568 0  1 0.625 0  1 0.875 0  0.8749999999999999 1 0  -0.5623845420896437 -0.6761291246911377 0  -0.004794198790247088 0.1602081554655125 0  0.362257889626488 0.2628510833278019 0  0.6529482503343608 0.2935614770549765 0  -0.8545333522496108 -0.6462722407843053 0  -0.8632188282468259 0.7868351287903936 0  0.4302579127862245 0.5010020860016298 0  -0.3982457827784548 0.8557139262582828 0  -0.7784782518103044 -0.8746567582797007 0  -0.8703084977513533 -0.7841028995787156 0  0.1540224174330335 0.8420994660875812 0  -0.6583108579971912 0.1523954002070795 0  -0.5774108965710439 -0.06416637876256011 0  -0.8544635078344953 -0.06259524006226112 0  -0.2955569438192837 0.5619339058342238 0  -0.4232466290901883 0.5696355724921918 0  -0.375721449205821 0.3307171736050899 0  -0.61816984517419 -0.2162496078512176 0  -0.2727513255615041 -0.09000692133055557 0  -0.639791344930849 -0.5882113335771006 0  0.859747003028382 0.2658203095275994 0  -0.03282198636710096 -0.03294022355133491 0  -0.05482480826155686 0.1145715453890849 0  -0.1335863002479371 0.4318226128758026 0  -0.1198004197691212 0.03237524467780957 0  0.5377418925338533 0.06453279865493651 0  0.5791390117052724 0.3589380673579759 0  0.6911010776544536 0.7744213018545824 0  -0.7931563702300009 0.8810185262445509 0  -0.6431063298008447 -0.4289084376767957 0  -0.1178632750634241 -0.3967677314210989 0  0.8722465663105554 0.4883405679216147 0  0.075885060295752 0.09389985543971097 0  -0.6643441120032245 0.8679915720903899 0  0.45450610155707 0.3503498906258598 0  -0.02636499175979101 0.0358551817065122 0  -0.409219562686687 -0.4399716309414859 0  -0.3618733828544066 -0.2685854570727696 0  0.3233151733056793 0.4815419679285393 0  -0.1959711014662936 0.2013765661282881 0  0.7055545296024383 0.530407766374531 0  0.2616238879777601 0.3559279852844793 0  -0.3766332966561119 -0.8517999284153309 0  0.1090490037351019 0.6818929800144847 0  -0.2853767414508545 -0.611758516213552 0  -0.4412655955742586 -0.6198661049468733 0  0.2959685432566266 0.6921386228392822 0  -0.8748411123279114 -0.1747327291207645 0  -0.1799060672533572 0.8548926213723916 0  0.4546860671192324 0.163254148000984 0  0.2802592124251572 0.04666790033636865 0  -0.1421540281423752 0.6573574108346801 0  -0.01136001710521638 0.7085485892411009 0  -0.05332206756294886 0.8749738465912703 0  0.005344606880645662 0.469726712342922 0  -0.3875032589184175 0.1532933901454384 0  0.5491235714429155 0.1330969131772856 0  -0.4754653822701191 0.6822157208076317 0  -0.8514111790674352 0.3325509903081654 0  -0.09326290074082143 -0.5359568038308499 0  -0.03090040669556825 -0.5519135261434777 0  -0.2140325932548212 -0.287386891800833 0  0.8685209911327005 0.1514256566386537 0  -0.1705724199090558 -0.6608435667824921 0  -0.889163643195352 -0.5282443721997466 0  -0.2815034479875622 0.3381168649601045 0  -0.675945812151138 0.5738180810814861 0  -0.8973890862725882 0.5312249400760362 0  -0.8982589540905842 0.6607281472414144 0  -0.6442349994578617 0.07219023640099191 0  -0.8590448193019838 0.02845864585160204 0  -0.8880826204547644 0.1677721685414314 0  -0.1301346905979502 0.2289017862234517 0  0.1601697860205387 0.4460951141463875 0  -0.04356692976898459 -0.1257945474902836 0  -0.7531502132938216 0.6698182409162207 0  -0.602058923909076 0.697761206267301 0  -0.2543497006888976 0.07846773982984211 0  -0.249029198648222 0.6486817494972485 0  -0.02744999860048121 -0.006361964211559209 0  -0.4941261618199167 0.876958174983908 0  -0.4765308518651357 0.4902697372983397 0  -0.2903565998098885 0.1439340282085723 0  0.002228157065649311 0.0236528804063236 0  0.7793803845542401 0.6832281676954781 0  -0.4697624978434441 -0.8246714882606011 0  0.2718478383717335 0.1949549571951947 0  -0.1490370229993841 -0.8632910845053814 0  -0.06596026635839596 -0.8297585364036544 0  0.4431156567160083 0.7057673109901518 0  -0.1180525569506895 -0.28800249749012 0  -0.2648568960333665 -0.02619372761322398 0  -0.8936890633501882 -0.8963998326173622 0  -0.5727348891396865 0.2368844834376605 0  -0.4760150161936587 0.08741375579901386 0  0.4909781433512625 0.8256352958046764 0  -0.02868380051116895 -0.2600763934735882 0  -0.3098564851223485 0.8753423074363135 0  -0.143057153279173 0.08051646571491439 0  -0.4691843558195653 -0.03495541040117252 0  -0.387873114142103 0.01204643592131158 0  -0.2916647509332357 0.02751059893546091 0  -0.3848424095890828 -0.1204049312573703 0  0.8881093856469825 0.6977823751488097 0  0.7924798035914263 0.9105540658837974 0  0.5765937526184267 0.2077627897984516 0  -0.5599719559539996 -0.4690997649214639 0  0.598627379547107 0.7056731208705516 0  0.6780524609046772 0.8881486058529132 0  -0.05110543378910773 0.3031056317167702 0  -0.9020800181850592 0.9045796573463376 0  -0.1275119943269775 -0.06712606737588017 0  -0.169158589940841 -0.1824477
[...]
<PointData  Scalars="w"> 
<DataArray  type="Float64"  Name="w"  format="ascii">1.7498375870545004e-10  1.0392664738352258e-11  4.4808289316330758e-10  2.6567362569823653e-09  6.2391151806477303e-10  1.5710406896680276e-12  8.6919390948611171e-12  7.4961825101690721e-11  4.0636643686207047e-11  2.1112490616899667e-11  1.0814854694766858e-10  9.5918666201165564e-11  4.0451683952947780e-10  2.7846574911229609e-10  9.1765839539094154e-12  5.2530898637207472e-10  9.0609215451309061e-11  7.2236947594965581e-11  1.3061410414883623e-10  3.5551655755613573e-10  6.6942011697961515e-11  1.0428735646091134e-10  5.7232106427360104e-10  2.1189872648787910e-04  5.7576149719051067e-10  1.0854594402449029e-10  8.9253738963105284e-11  1.7050578409024710e-10  7.6455624615113677e-11  1.8814130523805189e-11  4.6695779082207162e-10  9.7916188008679560e-11  2.4330886913676040e-10  1.8085446046520717e-10  4.5373895317531063e-10  2.2424545766528328e-10  7.8148996232925865e-11  4.7867772817003688e-10  5.8635764588489692e-10  3.1373962457577500e-11  5.2965791280281949e-11  1.0798574548033146e-10  9.2817716651493236e-11  1.9884477019982525e-11  1.0514397400205055e-09  8.7882874821896417e-11  3.2151107070609494e-11  9.6993339172826711e-11  1.2361441028464246e-12  5.9025766344963515e-10  2.2081780205797366e-10  2.1375653882796979e-10  8.2522314075548675e-11  2.5198472865993264e-10  2.6027291996502965e-10  2.0493417061752256e-10  3.5727852131908213e-10  8.9095166912887144e-11  5.7819148490942056e-10  2.5136444384380664e-10  3.1327736462696202e-11  3.1410976879016473e-10  3.7887222379094659e-10  1.4390249043703945e-10  5.3948138580976568e-11  1.7837498932703573e-10  7.0777310784767597e-11  1.7824785400933780e-10  2.3273334930859185e-10  4.6261074258015149e-11  6.4904654311627411e-11  3.3045649470580191e-10  5.7057170389583964e-11  8.8619523716727317e-11  1.7451968297707755e-10  1.7027013361356648e-10  2.5609568130642617e-10  2.9000180204506906e-10  1.8239298080409358e-10  1.9533837656300364e-10  6.5356889160058623e-11  2.5232728296786477e-10  2.6298194371221739e-10  2.0059797760728995e-10  2.3369400552743388e-10  1.2505564055354440e-10  4.6924975565126053e-11  1.1013553894280011e-10  9.4462711213501724e-11  2.5054936029564797e-10  6.9583360173872300e-11  9.9802975422121006e-11  7.8591319441951954e-11  9.4610773322224715e-11  3.8982778817910908e-10  2.0915806667322153e-10  2.5655405308877337e-11  6.5472721163496865e-10  2.5700450991155632e-10  3.1799713416116314e-11  2.7712059873282626e-10  4.1502053790119722e-10  7.0993959831792348e-11  9.7200618156951840e-11  1.5722777294516709e-10  6.3538205747497670e-11  2.7310246013090828e-10  8.3509004371425134e-11  1.4708176082256552e-10  6.6330664227055056e-11  3.1346954549670179e-10  2.4709778500626875e-10  2.3218714641991053e-10  6.4170131713497884e-10  1.2084805473151669e-09  1.4950201591694489e-10  1.6501681903380061e-10  1.0257431958942058e-10  4.5796266060545681e-10  2.6088649740265908e-11  2.5809127856927752e-11  2.7824209890734524e-10  9.0886284166910297e-11  6.1421625184524201e-11  5.0105931516731100e-10  5.7683275452552761e-11  5.9898555890069039e-10  1.1846495175251672e-10  7.7116339985758336e-11  8.2642310007777075e-11  3.4123229322051644e-10  1.7304300314379895e-10  4.6382698391600871e-10  1.3542849794131083e-10  6.2126463663010917e-10  4.4640476843388073e-10  1.0936566100239216e-10  5.2286875605461719e-11  1.2971706363374901e-10  2.5822428637842326e-10  6.1355984523950377e-10  6.0480022322275167e-10  9.3364878227019124e-11  1.1873626227033891e-10  6.9112948831389000e-11  6.5562845777439312e-10  8.6901282041767162e-11  2.5717663550033610e-10  1.4836219542401627e-10  1.2436064642893448e-10  2.0169783673605579e-11  2.8304626141801598e-10  1.5868717904950761e-09  5.6990635287588927e-11  9.6730820557052840e-10  7.9672222155311120e-11  2.4835601957366820e-11  2.4530254152363027e-11  1.2160438204224603e-10  5.5899433992418564e-10  4.4426185089556611e-10  1.6106106320172284e-10  1.1559074499168421e-10  1.6801426581429799e-10  1.8783076748531170e-10  5.8875957550463385e-11  7.8201415494060861e-11  2.0535961674836758e-11  6.0271272321900205e-11  2.9515434428699407e-10  9.2219484558532672e-11  1.0599908390602092e-10  8.2938933752181153e-11  9.6604344789700627e-11  5.3433772588971062e-11  9.5932828029004522e-11  4.5447084663316382e-10  5.7070247345925533e-11  1.6407709574523348e-10  1.7191308796187365e-10  4.6256318487950499e-10  1.9791653254326784e-10  2.8197958880404307e-10  1.4277986140634156e-10  1.4496479197406118e-10  1.5105764863934690e-10  2.1162961996677621e-11  2.8696435530814760e-10  6.5928715220995448e-10  2.5740268585309689e-11  2.5123093991069378e-10  8.9610314409568737e-11  1.5788369366765731e-10  1.1120129996719853e-09  1.3693428956597352e-10  1.6299764426555754e-10  2.3376792299396032e-10  2.8667637772046502e-10  1.0648690302417062e-10  2.0437327573213885e-10  4.1819512438814444e-10  2.1877050135940841e-10  2.3829283742469998e-10  1.0954402431234465e-10  1.1287423113152336e-10  1.1299881829812640e-10  7.1506342365818754e-11  2.0812298028700318e-10  8.8349109246205068e-10  7.8043713533950320e-11  1.0854482352376875e-10  7.7793463798775592e-11  9.6852712494861947e-11  1.6225894222698155e-10  3.7724868514776615e-10  7.9422138393077522e-11  8.5587312395448256e-11  8.6578923325574096e-10  9.1499482774016268e-09  2.9024392368492648e-10  1.9970581348011944e-10  7.5324906059111444e-11  8.1228268014377752e-11  3.3574289060863709e-10  5.9039577548561798e-11  8.3867172137808315e-11  5.0461027933917399e-11  9.3448926528717212e-11  4.1479900602506793e-10  9.0798408075825241e-11  1.9705827572566997e-10  1.6604462786359573e-10  9.0040488794908361e-10  6.2189710820450188e-11  1.9951939249145360e-10  1.1509863836867179e-10  1.1243055665418227e-10  7.4903355502395356e-10  7.5605166311128710e-11  8.5482068315904480e-11  1.1799279523998755e-10  1.1182932384923624e-09  4.1358262796266429e-11  7.7806113921422630e-11  2.7878480534912936e-10  2.5214107150138211e-10  3.5033704668612602e-10  1.8309579519037017e-10  2.0290442068857770e-10  4.0310384826353833e-10  2.9660378808306867e-11  1.0567947521105914e-10  1.2809723180375099e-10  3.7808883707083369e-11  2.6758944848846545e-10  4.4166785267232814e-11  3.3236726018165419e-10  1.3582968989232611e-10  1.1025727007870368e-10  1.9119847084248385e-10  5.0148354994063542e-10  7.3516219065330198e-11  2.7181673816698431e-11  1.4488613192482972e-10  8.1925171991302558e-11  5.9826222513973461e-11  7.6901808237937790e-11  1.7872962657715156e-10  4.9748704684736916e-11  2.6309066493758279e-10  2.5333314641384873e-10  1.2827280634626503e-10  1.2865009352315649e-10  1.3846754679359530e-11  7.1467493432857650e-11  1.4654477143547361e-10  1.6897067034834765e-10  4.9732099388019492e-10  3.6932760342298768e-11  8.2492784720092953e-11  3.3617261809513060e-11  2.3839534728517947e-10  1.2604109747287423e-10  1.8548119621894241e-10  7.5268856178088290e-11  8.8292583299327607e-11  1.2023119547147370e-10  2.0280279176925946e-10  2.2379471309022556e-10  2.6122946420583406e-10  4.3641813739471801e-10  2.1361277342405162e-10  2.0980537912018241e-10  1.4527269206201299e-10  7.9447523657081187e-11  1.7001861827836855e-10  1.6484289057180829e-10  6.2690900618263488e-10  1.2936261412644906e-10  6.2642955243121691e-11  4.0638816407117691e-10  1.9006497214896785e-10  2.0919951341333143e-10  1.7263566268280061e-10  3.3001502015547244e-11  4.5004703222072074e-11  9.9275021060774711e-11  6.7722662854072211e-10  2.9361767123443505e-10  1.8085062786652485e-10  1.3653009079253946e-10  3.4051174697185777e-10  6.7237943896529768e-11  1.0994020054439289e-10  3.5332936949157762e-10  9.5699851715225134e-07  9.9160487461658521e-11  2.8239199924897533e-10  6.1463153290558457e-10  1.2296640676570777e-09  1.9849364491742877e-10  1.5275461034546185e-09  4.1728787589765682e-10  2.2598355698917457e-10  1.1472586019725523e-10  4.2101362822249310e-11  6.6208701974195969e-11  1.2619065855584181e-10  1.5693293777961398e-10  6.4051727096299368e-11  9.8889974124608767e-11  1.0695772628728465e-10  1.2758487255964596e-10  1.9265203946447993e-10  4.9697706322286297e-10  3.1858601844311595e-10  1.6612074059956670e-10  9.6254325032903344e-11  6.1913610555267009e-11  5.9373600163953293e-11  7.0720506444201324e-11  1.8205921328101690e-10  2.2755623081197935e-10  1.0626551378541478e-10  1.0588967441683176e-10  2.3912820783897888e-10  1.3704660613877079e-10  7.0189269463507687e-11  5.9611164242434477e-11  1.0547388254995657e-10  3.4434467173056121e-11  1.8711145374698384e-10  3.3117314081904023e-11  1.6074779220770775e-10  1.7943280425619511e-10  1.5226613773265325e-10  3.9852207371609562e-10  7.9562878127369324e-11  8.3461990338306596e-11  1.4505408647550227e-10  3.0755182208175240e-10  1.4255842306939350e-10  2.6346253842396997e-10  1.1106167199060474e-10  1.3574546179530082e-10  1.5773803931344575e-10  2.7305341275782962e-10  1.2758026464951047e-10  3.3896808410555936e-11  1.1789458510750734e-10  1.1224329314200133e-10  1.4812154172426676e-10  2.5419018331669327e-10  1.7161765986086144e-10  3.5167282233472162e-11  1.2954034181966256e-10  2.4245124394152081e-10  2.9418223055368706e-11  3.2937421992694811e-10  1.6339688906091017e-10  3.9035544095197243e-10  1.1207397165904294e-10  2.3727286004876408e-10  3.2489513888957423e-10  7.5948646842642389e-11  1.0606570141938126e-10  2.1867970769920221e-10  7.4364334752526771e-11  4.8275520822905569e-10  1.5962748942776776e-10  9.8469798437468733e-11  1.0876059618620437e-10  2.1037843396328847e-10  5.3950459914512100e-10  4.7728615341499368e-10  1.7949321366681571e-10  1.7201780021314388e-10  2.0822779920648743e-10  4.0157094082470201e-10  4.5667544721136988e-11  2.2564308935671787e-10  8.2097776718680858e-11  1.2408475809642704e-09  1.1811114959043007e-10  4.6046851514147652e-11  5.4876331338017828e-10  3.2751871011823277e-10  2.4657626349898333e-10  2.1069689810751286e-10  6.4419432082380627e-11  1.5380622351855966e-10  3.3603865237286698e-11  4.3676756466339730e-10  8.2625321109641055e-11  1.3819938204128713e-10  1.2729542421119194e-10  6.6120261192664739e-11  3.4820292628596140e-10  4.3490028866231169e-11  1.1843208355748105e-10  2.4258864929122912e-10  1.7812317671430603e-10  7.1070590472497297e-10  9.3077236206398582e-11  5.7412131689182280e-10  1.4884518056515127e-10  3.5406407156509934e-10  5.5170804721599290e-10  2.4295070447502958e-10  1.5501911205541407e-10  2.7226234071524770e-10  4.7979842340274314e-10  3.4498368822243124e-10  7.5860947573155897e-11  4.9480962493239042e-11  1.6320782412712777e-10  3.5663849733247959e-10  1.8654854780186673e-10  1.2695235901112158e-10  1.7203980334147981e-10  8.1582228348358182e-11  7.1661869182842692e-11  1.9921096846101130e-10  5.8213285859857479e-11  2.0720882646184222e-10  9.0640076338709796e-11  4.7840553355474597e-10  4.9549937714117335e-10  8.2148021417082492e-11  4.1970912590058803e-11  4.0024129561930499e-10  6.4772765643862817e-10  2.5825256186141280e-10  9.8615932829000007e-10  2.8731014317992248e-10  3.1608718589097124e-10  2.7339202193874522e-10  2.6601215248752665e-10  9.7718592483742138e-11  3.1482807229996919e-11  1.9374450030278399e-10  1.0604719177605527e-10  2.1523043155760634e-10  7.5333017614911142e-11  1.2381458353199074e-10  2.0576409900739127e-09  1.7681745198246575e-10  8.1362347430992282e-11  8.2473267117564343e-11  3.9920203269545775e-10  2.4227975566719671e-10  1.8943169994643743e-10  2.0772179898624455e-10  4.4834621202058420e-11  7.5427825966816503e-10  2.4129370701592359e-10  5.4033040401853736e-10  2.5018079258232357e-10  2.4268655538544101e-10  3.1265511290360394e-10  9.4622469831526014e-11  3.3227825468976920e-11  3.6346492708269386e-11  3.6852422426404147e-10  3.6333719796714607e-11  1.1748470075351727e-10  1.0195128305683137e-09  7.5277995773313367e-11  3.5276748000448265e-10  2.6348325519252166e-10  6.2147106310083422e-11  6.0182368155597290e-11  1.7990635709614559e-10  2.4465260994427783e-10  4.8814013378215663e-11  1.1320642579879972e-10  1.6139291812312205e-10  7.5667033070383294e-11  1.7024601985441969e-10  2.1299501314338684e-09  6.0310596245213504e-10  3.1941068008887261e-10  1.0694994014047567e-10  1.0831050149962511e-10  1.8889078794267604e-10  8.1168155626675939e-11  1.3428343123297505e-10  4.9796797804127393e-10  8.6976950780265012e-11  2.4233412646010386e-10  2.1534426193979929e-10  1.3896420077548001e-10  5.1518945415667944e-11  7.8565316508669810e-11  5.6130816290221162e-11  2.0897054408431468e-08  1.0652487877162831e-10  2.2150181673087915e-11  5.7017638926454238e-10  3.0981972368931090e-11  6.2046954271036134e-10  1.1761099795754867e-11  1.2281512724456912e-08  1.7472173565679595e-10  2.4801729597597720e-10  1.0517641031888975e-10  2.8919592067910002e-11  8.5649996973125200e-11  2.8081905203492973e-11  2.0751584445965990e-10  3.7226776766561684e-10  2.7170312340494712e-10  3.3115046504617249e-10  1.3585641491297718e-10  9.4331090975085180e-11  6.3915079005612246e-11  3.6256702065173646e-10  5.0361677426919376e-10  1.0586473683953337e-10  1.0092293982026163e-10  1.4706033863905000e-10  7.6793312024556084e-11  4.5710334857005652e-11  5.5266184709049270e-11  3.2396276048516154e-11  8.8946164671590236e-12  1.7923376047856665e-11  9.9652195123214763e-11  2.2676328367248850e-12  1.1152711331313868e-11  1.8628434642284797e-10  3.4867628500514297e-09  2.2493226485124082e-10  4.2767827701182824e-11  2.1987143898070978e-10  9.3244253727749392e-11  1.1215556128459864e-10  4.4061916605751415e-11  1.7226350160834786e-11  8.8656241421766304e-11  7.3300464886540194e-10  8.0032962808762012e-11  1.8355827920924638e-10  3.2411220328468071e-10  4.8336560558242937e-10  9.6507494586496502e-11  1.0200815398859715e-10  5.8591843108540985e-11  7.7011307940595255e-11  1.1293534908680545e-10  5.7709138947301849e-11  6.9137915491063203e-10  5.8987202865815500e-11  2.7706915665212263e-10  8.8186244175624258e-11  1.2806917904675408e-10  3.1186594455860077e-10  4.1707725443076144e-11  6.3498065316173945e-11  2.8733583199870400e-10  1.2003613369416545e-11  1.1332163710102547e-10  8.8526892845790218e-11  7.7084693593449779e-11  5.6095589927221334e-10  1.6129529735879183e-09  2.9480849172056652e-10  2.8888385549217763e-10  9.0757754372963008e-11  6.9663249034251756e-11  2.5443713760301089e-10  1.1761701305231393e-10  1.0034134418231146e-10  1.0474951458881574e-10  1.9864522736148374e-10  7.4187391855863854e-11  5.3009783481426642e-11  7.0986251162413636e-11  3.9977768961326849e-11  8.6895552084017054e-11  1.9074994586880328e-10  1.6156288299002312e-10  1.1135795674742656e-10  2.7276744685609390e-10  4.7397102056467950e-11  1.3631533108495062e-10  5.2152597598989099e-10  6.7028138449972978e-11  1.1782389258912068e-10  1.6664576701140829e-09  5.8267639117508512e-11  3.3390206215186986e-10  5.0975847456233650e-10  1.5761765123279387e-10  1.2851086317033514e-10  1.2559019276333921e-10  9.0561816566088326e-11  2.4939299203952039e-10  2.8530323062560844e-10  1.7737951481125894e-10  4.6705272414675378e-10  4.2252515306373858e-10  1.2175626095101354e-10  2.1072727190635523e-10  6.6992813516442921e-11  8.5100910434115815e-11  6.2841271561542974e-11  2.3921931489159480e-10  4.0052178088893073e-10  3.0760029115870158e-10  3.2261692013401965e-10  8.6025497330731473e-11  2.2734196695222917e-10  4.7854737231392075e-10  1.7162984335129337e-10  4.8030301095418288e-10  1.8335358307311181e-10  1.3764270602526807e-10  1.1118373763485228e-10  5.1371287676210166e-11  5.4734208615621901e-11  3.3016251737910680e-10  6.2958205870530976e-11  6.4770660496268901e-11  1.2942029485753936e-10  3.2015580692952160e-10  3.1853684198132225e-10  1.5707619501565113e-10  1.1771239668076487e-10  5.9047155924373167e-10  6.2529857961571400e-10  1.6028723601493988e-09  2.6842690254060632e-10  1.9933779697313250e-10  4.4352483779125327e-10  4.5385174432187057e-10  1.1702866489170471e-09  2.9553759635203719e-10  2.4774735741668344e-10  3.3218832908779008e-11  1.2958751697711884e-10  3.0148131555323586e-10  2.4521084749316472e-10  2.1343778515588709e-10  6.4470267023077011e-10  3.0553235934880278e-10  2.1680502024086913e-11  4.7801469125365787e-10  3.3615331026826748e-10  3.8754067493624409e-11  3.3304514500427785e-10  4.1395113520300506e-10  5.4208006318005286e-10  1.4532240049015852e-10  6.6880862936429618e-10  1.9497657662671781e-10  4.7441512089994330e-11  1.2730487038792894e-10  1.3250725293342380e-10  3.1916235810554405e-10  7.9271445472706890e-11  2.6440831335382074e-10  1.9555603626053414e-10  8.2252899851862522e-12  4.3289936055507093e-10  5.8345117254142638e-11  9.0375501311303152e-11  1.2437842847941148e-10  6.3082414099161382e-10  4.1244663059896643e-10  3.0396557467045468e-10  1.1702339604393352e-10  1.3224595392624675e-10  8.9846397249930815e-10  5.4055542995615814e-10  1.3450438447602471e-10  1.4175356400819854e-10  9.3563438002161260e-11  4.8730408666066864e-10  1.3868280967428304e-10  1.7482559569265328e-10  9.5270364490274422e-11  7.0861663785994035e-11  6.3587615467699935e-11  1.5001435114693283e-10  9.8182914717233516e-11  1.2943337536572816e-10  4.3491065136461868e-10  7.6932970685568876e-11  5.9795493960913232e-10  1.2749194250741912e-10  2.2355092107305933e-10  2.8052031354439868e-10  5.4994027647145479e-10  1.1626929572685660e-10  4.1178607387853962e-11  6.3241215398023042e-11  1.4177345764205743e-10  1.5885840277843595e-10  5.1602735069892575e-10  8.4758945945492092e-11  1.6243757482125220e-10  2.5175459770292110e-10  1.3769861489361706e-10  2.3478827773554578e-10  3.2878019276579718e-10  3.1057885856855936e-10  1.0489050209404552e-10  1.7481767022016201e-10  1.4867994675566610e-10  2.2756602130778674e-10  7.7485860673180709e-10  3.7331436659747636e-10  2.0175370436783279e-10  2.0617729791603598e-10  1.2522738453309266e-10  1.7302770263139604e-10  2.9967160366997704e-10  3.8091191506596784e-10  3.6162225694125595e-10  1.6552806144854291e-10  2.1950718269791719e-10  1.9384333222072116e-10  1.5460706000441273e-10  3.9917519985227462e-10  3.1875936124829145e-11  1.0517104111510769e-10  1.2601056292881794e-10  3.7108610628344739e-04  4.0576705547625032e-10  1.7717261873767108e-10  6.1051893836868370e-11  2.5614335504615209e-10  1.3814652847933239e-10  6.4509861378725325e-11  1.0572948962393814e-10  2.0248878309667492e-10  2.0595815722856959e-10  1.9456821155639902e-10  1.8918476508122419e-10  3.0874652380991103e-10  6.5426727245381634e-11  8.0284149148127902e-11  1.9112689538609034e-10  1.2209117413066334e-10  3.5576618543415160e-11  4.0152340593170915e-10  6.4825235179394801e-11  6.2241138213822577e-11  1.9294902375736608e-10  9.9163622130968017e-11  2.3763475550963897e-10  2.9204691364183157e-10  1.5704046885423370e-09  7.5692548595690354e-11  1.8757767041008146e-10  9.6535960180137866e-11  3.2941792801594648e-11  9.1081350694799624e-11  5.8407927937560376e-11  7.8602563954392737e-11  2.2600529098028447e-10  4.7518528847519928e-11  6.6544412279105949e-11  9.4726325602048064e-11  9.4000494954248543e-11  9.3901209809373741e-11  2.2366714460803055e-10  8.7738650817309112e-11  1.8348598673939829e-10  1.9987136812988407e-10  9.8193780983932227e-11  1.6085497126842696e-10  3.1504141946678542e-10  1.2430831438119650e-10  6.1494151739828412e-10  1.7088306463129780e-10  1.4920002837696676e-10  1.3806476460736871e-10  2.2904172751930423e-10  4.4374346334737142e-11  4.0217949320355907e-11  7.7145211203030597e-11  4.3254481492990852e-10  1.9930248368888454e-10  6.2919509256219412e-10  4.4111641592823094e-10  1.2122673407485979e-10  5.4587819485997301e-10  3.6499896317069170e-10  1.8861445518239377e-10  7.0887088151163870e-11  9.3800055071277444e-11  1.7393461340463456e-10  1.8726919329832673e-10  4.1867832570017646e-11  4.8274332998234463e-10  2.7752477441982923e-10  2.9968074763795368e-10  5.3962921617946142e-11  3.5004109092532359e-10  2.6554803326322823e-10  5.8322201714068217e-10  7.3471165552570065e-11  6.1895532646574922e-11  2.3854545986295800e-10  7.2912388845690451e-11  4.2808591134707803e-11  1.4833347236620010e-10  2.4453997618137257e-11  6