<?xml version="1.0"?>
<VTKFile type="UnstructuredGrid"  version="0.1"  >
<UnstructuredGrid>
<Piece  NumberOfPoints="4852" NumberOfCells="9430">
<Points>
<DataArray  type="Float64"  NumberOfComponents="3"  format="ascii">-1 0 0  -1 -1 0  0 -1 0  0 0 0  1 0 0  1 1 0  -1 1 0  0 1 0  -0.5 1 0  -1 0.5 0  -1 -0.5 0  -0.5 -1 0  0 -0.1608775713298009 0  1 0.5 0  0.5 1 0  0.1967448868031411 0 0  -0.3405618610561976 -0.1758709318049406 0  -0.3370868834164594 0.2245687792508965 0  0.1741540491407867 0.3461958351180101 0  -0.1853554351699623 0.5552707490967088 0  -0.5041015615277439 -0.5382987392290098 0  0.4905015699862883 0.2574714388993465 0  -0.06435272804949239 0.2009874793695419 0  0 -0.5061325913258391 0  -0.25 -1 0  -0.563265738286008 0.5779900424013062 0  0.6622690793148304 0.6354942303856523 0  -0.1747724865860768 -0.5380650648365117 0  -0.5388820011497452 0.02542052316167463 0  -1 0.25 0  -0.2060929708536319 0.0237586352965529 0  -0.6549865892488405 0.3109851017869418 0  -1 -0.25 0  0.03923084023719606 0.5918882134563733 0  0.1951602339186101 0.1289228567069597 0  -0.1358719033796456 -0.2201095438633734 0  0.3713687891679364 0.6148557282574216 0  1 0.25 0  0.5355652144809806 0 0  -0.75 -1 0  -1 -0.75 0  -0.6452054288139455 -0.3233846240251868 0  0.25 1 0  -1 0.75 0  0.02757118475249542 0 0  -0.25 1 0  -0.75 1 0  1 0.75 0  0.75 1 0  0 -0.02898318711980711 0  0.05428346041467978 0.1421396008412461 0  -0.07759319807077641 -0.02786650643327879 0  -0.7013231524109816 -0.132569376258172 0  -0.3214164862133032 -0.3477509374998988 0  -0.3406194184174199 0.4375663029531905 0  -0.09997217088561872 0.7641929191277904 0  -0.3841616256149414 0.7033112509363691 0  -0.05462484011500029 0.3989533084555669 0  -0.07884120525723637 0.07181968470943192 0  0.3590628684179918 0.3701246756268531 0  -0.7179647386849046 -0.7316713565805516 0  0.4118710763933574 0.09011586132518702 0  0.6898926223216854 0.1923766843930121 0  -0.7482884799025199 -0.5286635602145876 0  -0.3878770858231027 -0.7112580100624785 0  0.7214294442820949 0.4201268508156767 0  -0.7765621883978654 0.09763682944222257 0  0.1975519046744683 0.699136829331241 0  -0.1986927774108119 0.2886331873767631 0  -0.7997211693160666 0.5793784390584071 0  -0.7193718797318309 0.7673858439141913 0  -0.03994205171642964 -0.3740976058210801 0  0.5860080332152893 0.8183827540339159 0  0.8217592798524356 0.8087742563529277 0  -0.1001392098451443 -0.6969812347210861 0  -0.5143718057024396 0.1636384863200013 0  -0.2017903334883449 0.1257286348749546 0  -0.3591581210993616 0.07542326000455075 0  -0.3651618755487678 -0.05215003046321129 0  -0.4976207234156266 0.3957330630805893 0  0.375 1 0  1 0.125 0  -0.01174196867590746 0.07113649604016305 0  0.06223052374346336 0.3919426611831992 0  -0.1714100953379021 -0.1223925615491882 0  -0.2441358120110966 0.773819552385777 0  -0.625 1 0  0.5339662282295785 0.4552648492488681 0  -0.5775438073109457 -0.8307939035207169 0  -0.2573549591940322 -0.7838216342516895 0  -0.3195779384577486 -0.5089033435101779 0  0.8342678273833191 0.5969370357645553 0  -0.5503416152139028 0.7915630618863514 0  0.125 1 0  -0.06735200158626757 -0.09343526393376049 0  -0.4949990933601303 -0.1432705374145005 0  -0.875 -1 0  0.02960369628835356 0.04154085749724165 0  1 0.375 0  -0.875 1 0  0.05761457841810992 0.7943246090849647 0  -0.1950650744523195 -0.3739594467140757 0  -0.07295379781134302 0.5712586053713296 0  0.2367632416348636 0.5182016807970121 0  -0.792184723892798 0.2307330462714171 0  -0.4952809808091905 -0.3895026037631292 0  0.00027989541168378 0.2710493375445732 0  0.5108075666686874 0.6412583994168318 0  0.3997959291052144 0.8079823377173881 0  -0.8060848900533474 0.4264871222477071 0  -0.06307290954440366 -0.2214440408144185 0  -0.7098061036064146 -0.01418254957823307 0  0.09056994000153938 0.05240537584336685 0  -0.4784450721598252 -0.2515774411305619 0  0.723951401394287 0.08322693898191325 0  -0.8091018633301885 -0.4119487160032269 0  0.337597615274537 0.1539994224635413 0  -0.7945470677444784 -0.2514683690252056 0  0.2364995241988194 0.2543012822481414 0  -1 -0.875 0  -1 0.875 0  0.1844043987860889 0.04802422466998123 0  -0.2473490121277394 -0.2291366471833991 0  -1 0.375 0  -0.1710364510534767 -0.04186198484461616 0  -0.6499915811191609 0.4685972575259502 0  0 -0.07736776745332727 0  0.0806687519600615 0.259922722245236 0  -0.375 0.9999999999999999 0  -0.2176534324723665 0.4248445745199352 0  -0.119975557719691 0.1501619747645743 0  0.1337716645253288 0.5542416582883413 0  0.1321129030405156 0.1938293651339593 0  -0.4751279738083778 0.270049683222705 0  -0.04613542993588007 0.01388266782745448 0  0.8508829117895681 0.3716681277824901 0  -1 -0.125 0  0.2859934522104243 0.8375498041720225 0  -0.1108384388256989 0.3130566853520278 0  -0.125 -1 0  0 -0.7575037395175259 0  0.07821397079968176 0 0  -1 -0.375 0  -0.375 -1 0  -0.625 -1 0  0.7474787146812756 0 0  0.625 1 0  0 -0.2918843213980812 0  -1 0.625 0  -1 0.125 0  -1 -0.625 0  0.3284075310660084 0 0  0.004929205892015135 0 0  -0.125 1 0  0 -0.006571003003944568 0  1 0.625 0  1 0.875 0  0.875 1 0  -0.563618591090482 -0.6775609078813323 0  -0.004498934314540339 0.1601609955785052 0  0.3626111826781961 0.26309606663161 0  0.6530362340219403 0.2945713597132475 0  -0.8550267507670959 -0.6488819952663777 0  -0.8657981341493463 0.7895196646533901 0  0.4305689744507891 0.5022240787745671 0  -0.3987858913742092 0.8563826242452173 0  -0.7808808701835408 -0.8752322814246799 0  -0.8711533366470642 -0.7862506151788037 0  0.1552545727564041 0.8424375278027024 0  -0.6587158675843826 0.1537118251022315 0  -0.5777595372055924 -0.06454971177874687 0  -0.8547997149357972 -0.0623877599915036 0  -0.2968761631886259 0.5624763739827358 0  -0.424840732511512 0.5704358057190944 0  -0.3765664478305015 0.3317391302385659 0  -0.6184163052000515 -0.2165968061244823 0  -0.272728582170742 -0.09012003563149586 0  -0.6411052140971781 -0.5901377307403569 0  0.8594799175957759 0.2662873511835672 0  -0.0327404497640368 -0.03298731757686545 0  -0.05461662450662783 0.1145098363327746 0  -0.1339032756868024 0.4321554389188982 0  -0.1196112119661086 0.03241142818749271 0  0.5378679896264015 0.06487006338917065 0  0.5796419272979308 0.3606182854058834 0  0.6928038413367108 0.7768421739039095 0  -0.7971294058542202 0.8821560822244513 0  -0.643908489332271 -0.4298230900638561 0  -0.112743817200027 -0.3971950555330212 0  0.8717992647122534 0.4904824458086847 0  0.07608781753003838 0.09384571339830053 0  -0.6667466612663776 0.8694928411511157 0  0.4547809070839497 0.3513634085473903 0  -0.02622534034918679 0.03578011949731757 0  -0.4089694437690146 -0.4411053309550886 0  -0.3619425957448444 -0.2690950953926887 0  0.323903069654959 0.4825886824128124 0  -0.1960674882769556 0.2015170468245441 0  0.7061125979945605 0.5323041926781199 0  0.2619976709394602 0.3566057370834585 0  -0.3777495871753042 -0.8517992175589478 0  0.1095623238513055 0.6822320803807052 0  -0.2844697625182478 -0.6122759270506272 0  -0.4416968883107908 -0.6208623311155828 0  0.2968901960869166 0.6931642175664363 0  -0.8746653935983045 -0.1750954819825019 0  -0.180814753482994 0.8554954522718367 0  0.4547876943725759 0.1640422451145875 0  0.2803210461122718 0.04685792363352889 0  -0.1427387078050091 0.6575593735580441 0  -0.0115152208667405 0.7087140183224365 0  -0.05339992750907337 0.8756140099399586 0  0.005510512021284179 0.4699677634044023 0  -0.3879511014670498 0.1539402838584887 0  0.5493554513262645 0.1337483826402493 0  -0.4774559910895969 0.6832441468206267 0  -0.8515368723755654 0.3345879231448627 0  -0.08297488369243673 -0.5365202398885541 0  -0.0166278193374246 -0.5523309052026893 0  -0.2131507221100854 -0.2879745329879211 0  0.8684208841412928 0.1521002293223515 0  -0.1681742661080027 -0.6610589418599706 0  -0.8891919363351146 -0.5299334893562082 0  -0.2820220762749953 0.3387953028990539 0  -0.6777797685566463 0.5756763568820272 0  -0.8975467244600536 0.53306223166762 0  -0.8993491900851437 0.6629801543528512 0  -0.6445266171194075 0.07277501870347135 0  -0.8595033184182712 0.02901972558703792 0  -0.8883669762029784 0.1681345093281488 0  -0.1300862845832443 0.2290783204973095 0  0.16083459788664 0.446730931057141 0  -0.04351610714708386 -0.1258587130847685 0  -0.7553448010167524 0.6713523738933456 0  -0.6048818503253575 0.6986931622999039 0  -0.2544372310301982 0.07868888885946911 0  -0.2504363408740056 0.6493048306090667 0  -0.02737350843626903 -0.006403221379775364 0  -0.4962385875722717 0.8773205450156037 0  -0.478402401429851 0.4914677050099968 0  -0.2904313439247841 0.144291902470267 0  0.002335168252872604 0.02359737018465622 0  0.7803314808921589 0.685993394080722 0  -0.4708034498421276 -0.8254284804337986 0  0.2720116438745303 0.1954157324811428 0  -0.1478046979816708 -0.8632832851277966 0  -0.06178042499309522 -0.8285587644916786 0  0.4441058533528914 0.7072446551434686 0  -0.1155972235746443 -0.288712822064629 0  -0.2649399868340067 -0.02609459094172021 0  -0.8951790448889354 -0.8973711809809745 0  -0.5731210514906934 0.2385371101701788 0  -0.4760893589484379 0.08795600901669495 0  0.4926409745512894 0.8270909267756482 0  -0.02681140998722857 -0.2625566651142591 0  -0.3114242911491502 0.876105920257265 0  -0.142921949387854 0.08054504646680473 0  -0.4694134925550602 -0.03474235551218047 0  -0.3881669188392107 0.01229347897435987 0  -0.2919174777854384 0.02770365285847967 0  -0.3850999008687543 -0.1204993645368062 0  0.8885980166457758 0.7000707540560529 0  0.7950640898248362 0.9124237252649061 0  0.5769204096592393 0.208685497949984 0  -0.5600840880842354 -0.4703301100170038 0  0.6000302158674085 0.7077571623708007 0  0.6795046521287411 0.8898693381317373 0  -0.05106571517127089 0.303341479618577 0  -0.9039871688165665 0.9060777256365978 0  -0.1274826426142057 -0.067105755494477 0  -0.1689761404273589 -0.1826236013558491 0  -0.2522722152176557 -0.1438574393801205 0  0.03720900550913011 0.2016838340236177 0  0.9033394096664087 0.8974831510769057 0  0.85441927669
[...]
<PointData  Scalars="w"> 
<DataArray  type="Float64"  Name="w"  format="ascii">1.6947596924489278e-10  9.7156953638836721e-12  4.4376877707191536e-10  2.5724690055859941e-09  6.2630348556878305e-10  1.4876439477496622e-12  8.4097400652107804e-12  7.2789642460530714e-11  3.8910329915582420e-11  2.1437274552336014e-11  1.0935824080844757e-10  9.6287663761695269e-11  4.1042922555505976e-10  2.6588155520882703e-10  8.7008973581285608e-12  5.2912602228325368e-10  9.1398705902334609e-11  7.2285495459579513e-11  1.3137389926987847e-10  3.6064382893765081e-10  6.6885301922185986e-11  1.0111784167064003e-10  5.8060857137270826e-10  1.2459236499165016e-09  5.8144479888328683e-10  1.0911125847779653e-10  8.9148490043716694e-11  1.7556920702561068e-10  7.7410154959966901e-11  1.8926817509452294e-11  4.7705919186554893e-10  9.8864395224181888e-11  2.4605461755485695e-10  1.8342630480988294e-10  4.6133581997642987e-10  2.2758966876738807e-10  7.8819780887105048e-11  4.8209741208835142e-10  5.9123311717807611e-10  2.9627796887008149e-11  4.7792255946045620e-11  1.1051836308714257e-10  9.0297850380364207e-11  1.6949813011078448e-11  1.0501865293480619e-09  8.8153915352759540e-11  3.0556595067059501e-11  8.9694478476552893e-11  1.4080016368706733e-12  5.9140726775238336e-10  2.2075340198873465e-10  2.1258412646247094e-10  8.3104355934964304e-11  2.5602163465450574e-10  2.5416466556635260e-10  2.1438078289748612e-10  3.6686280426580912e-10  8.8889526396523257e-11  5.7654541819932087e-10  2.5319034384434769e-10  3.1457049793798430e-11  3.1762500734428471e-10  3.7639342255805952e-10  1.4182261738847034e-10  5.2888685080525698e-11  1.7794553808452037e-10  6.9048709007014344e-11  1.8518655456197981e-10  2.3802477220087808e-10  4.3417945255639225e-11  6.5190977126041799e-11  3.7956142433627790e-10  5.5702803594595934e-11  8.5638716949859675e-11  1.9449068257772583e-10  1.7179872350020636e-10  2.5618684960021131e-10  2.9033259772385488e-10  1.8592197845665592e-10  2.0213854166883647e-10  6.2627829890971878e-11  2.4943547574287563e-10  2.6264355717348773e-10  2.0207201644338319e-10  2.3301330584250697e-10  1.2653516123824224e-10  4.1526159470667336e-11  1.0944071886109016e-10  9.6226545059753281e-11  2.5814868061258070e-10  6.7688799997001632e-11  9.9742508882432616e-11  7.7732527157036482e-11  9.2465852896144523e-11  3.8557596589444047e-10  2.1204986568570189e-10  2.3774413028087823e-11  6.4954984693981694e-10  2.5912894249918797e-10  2.8619061239440823e-11  2.8032227986637992e-10  4.2861812576013565e-10  7.1327104603398798e-11  9.4624803352757898e-11  1.5492233329617340e-10  6.2929882851566575e-11  2.7931789870176213e-10  8.4507127139686213e-11  1.5173322859236469e-10  6.4777918005563509e-11  3.0818544070463799e-10  2.5693280538203579e-10  2.3040480405181476e-10  6.6106069630345320e-10  1.2330345083860013e-09  1.4173452688797048e-10  1.6537470645341480e-10  9.8219034057266951e-11  4.6253525134509072e-10  2.4683183689655333e-11  2.3684628765557058e-11  2.7743106581489908e-10  9.1264424970371959e-11  6.0411847842515069e-11  5.0356236485296022e-10  5.5553031915377934e-11  5.9498053288179099e-10  1.1676262451370918e-10  7.5390892412211431e-11  8.1661302978040153e-11  3.4434265068433034e-10  1.6997674807358423e-10  4.7394082200862991e-10  1.3092688531366749e-10  6.2406604953448382e-10  4.4695628154328519e-10  1.0707942089034933e-10  5.0085549316502439e-11  1.3142557020609290e-10  2.6506854796055182e-10  2.8123613885844606e-10  6.0464636113613494e-10  9.3028313540895357e-11  1.1716120467537240e-10  6.3087138269825218e-11  6.5857424910652618e-10  8.1503522113882279e-11  2.6550072813640024e-10  1.4213162425194064e-10  1.2180374673325349e-10  1.8969778643521153e-11  2.8424958746732967e-10  1.5708007681543997e-09  5.4987451601289663e-11  9.6285907015100608e-10  7.3894724422118076e-11  2.0378120333706779e-11  2.1099418923847844e-11  1.2623162222306482e-10  5.6265285354735702e-10  4.3940789160777735e-10  1.6114048028465910e-10  1.1238642689761580e-10  1.5848140347863715e-10  1.9000166895556111e-10  5.6610964613408087e-11  7.5769667740830009e-11  1.8749647457864124e-11  5.7730073308748331e-11  3.0253224601740947e-10  8.9626887719638872e-11  1.0607622678797402e-10  7.9508020832383397e-11  9.6524564222870482e-11  5.2002180191855579e-11  9.4889665825404231e-11  4.6141101993478359e-10  5.6045831870554274e-11  1.6396727453329323e-10  1.6970414120632880e-10  4.6897593570818784e-10  2.0243838306454845e-10  2.8467964724376863e-10  1.4255618988625996e-10  1.4627634967915263e-10  1.5404259910518000e-10  2.1161778508021503e-11  3.0061574893713953e-10  7.4052781220464787e-10  2.4262564472391253e-11  2.4968439793495701e-10  8.9138793577442504e-11  1.5954523426535001e-10  1.1100621006038344e-09  1.3825833781979328e-10  1.6428556035884931e-10  2.3988459343420418e-10  2.9075380595838883e-10  1.0534970127988413e-10  2.0566824204729734e-10  4.1774238763928986e-10  2.2706018802194631e-10  2.4244389347471739e-10  1.1337367306539221e-10  1.1229987284094691e-10  1.1236807749971290e-10  7.1199926998032099e-11  2.1074830843972136e-10  8.9104861087096261e-10  7.7306837697872035e-11  1.0471761643156700e-10  7.8268203415519377e-11  9.8006369430918290e-11  1.6167830572892727e-10  3.7951512340480912e-10  8.1717514387192520e-11  8.4743972101379930e-11  1.0881886307649928e-09  4.1091901503113003e-10  2.9468888521652692e-10  1.9910936188436644e-10  8.0393222821910443e-11  8.0083468893962776e-11  3.4707296987757553e-10  5.7709778896660128e-11  8.3563939244270441e-11  4.8247832468141773e-11  9.4749061332053475e-11  4.1556640179576561e-10  8.8981602444022895e-11  1.9638769501660113e-10  1.6869181572312965e-10  9.1333812930170986e-10  6.0089954826918030e-11  2.0242351454663593e-10  1.1593484338794703e-10  1.1158181648178613e-10  7.5235963182216275e-10  7.5745144724213582e-11  8.6151371685396703e-11  1.1698773150713010e-10  1.1088852224334736e-09  3.9656691313630846e-11  7.5193664134710030e-11  2.7948255934224658e-10  2.7009560194595854e-10  3.7196937646300087e-10  1.8900476163136610e-10  2.0230620910618063e-10  4.1129706527798828e-10  2.7516830993116689e-11  1.0556040380746339e-10  1.3002126758590412e-10  3.6619864285584485e-11  3.1114344537085822e-10  4.0472389943249387e-11  3.4364197214646964e-10  1.3473262238240021e-10  1.1026259724015525e-10  1.8956708992827166e-10  5.1548975408943192e-10  7.4174193578325921e-11  2.5361331848950251e-11  1.4269674244936383e-10  8.3779412886589956e-11  5.9381392591380677e-11  7.2626717224415351e-11  1.7902840256780425e-10  4.3447322268102169e-11  2.6678079831229934e-10  2.5541057911108571e-10  1.2734671629491716e-10  1.2896787266160344e-10  1.2104377005289971e-11  7.0646406310510757e-11  1.4695438298665406e-10  1.6892338298348370e-10  4.9949475074825203e-10  3.6054660892668330e-11  8.1406696095844770e-11  3.1372549619415986e-11  2.3791868597074564e-10  1.2453916445878412e-10  1.8803315075605507e-10  7.5218488356331086e-11  8.8490409797639001e-11  1.2142051282195838e-10  2.0257963807470283e-10  2.2586229063873370e-10  2.5870378355624196e-10  4.4415831628237126e-10  2.1916732065053124e-10  2.0884826152298097e-10  1.4736407960368686e-10  7.9902611384678992e-11  1.6868181052040551e-10  1.6687564628307956e-10  6.2688379224720161e-10  1.3381526503835813e-10  5.9893181061331469e-11  4.0978982963080738e-10  1.8738093455133750e-10  2.0846923423396976e-10  1.0428305184466121e-10  3.0792714091076457e-11  4.4259511523213360e-11  9.6122058141821769e-11  6.9379069444424468e-10  2.9305584294192595e-10  1.7986591915119486e-10  1.3856563876774797e-10  3.4121758898552331e-10  6.7575640653216210e-11  1.0901670848761884e-10  3.6077341231425146e-10  8.8500296430253394e-10  9.9358677552532724e-11  2.8126236710208608e-10  6.1299107793443377e-10  1.2332416539513019e-09  1.9681604236234463e-10  1.5284169151166351e-09  4.2365506189723058e-10  2.2641995738942234e-10  1.1591204019560560e-10  4.0233923825356792e-11  6.4482582845516671e-11  1.2786558321972294e-10  1.5379179668517016e-10  6.1294938531159551e-11  9.6696560636327418e-11  1.0778322993051730e-10  1.2502763969095177e-10  1.9023564406701161e-10  5.0265883649435563e-10  3.1892338013612113e-10  1.6828056500260755e-10  9.5258073265771846e-11  6.0681363749132589e-11  5.9614602137018949e-11  7.1870998954871606e-11  1.8411694093465099e-10  2.3493541255526554e-10  1.0601242094794695e-10  1.0620874565885961e-10  2.3686853695686983e-10  1.3667477477012576e-10  6.8837663303965837e-11  5.8652826917382243e-11  1.0477421690757769e-10  3.3087553530917050e-11  1.9098961737384579e-10  3.3321022911866707e-11  1.6147636205675666e-10  1.8064568425752752e-10  1.5696006186419045e-10  4.0342592778642682e-10  7.8718455054894336e-11  8.0171654787195843e-11  1.4828873087814111e-10  3.2510508791604612e-10  1.4769989216373901e-10  2.6321269980085595e-10  1.0995420937597016e-10  1.3886636057618822e-10  1.6108879422919458e-10  2.9208151443468442e-10  1.2696178991308263e-10  3.3304385655991522e-11  1.2024214679978106e-10  1.1285062516691658e-10  1.4755989880093113e-10  2.5417520949681327e-10  1.7252749082526978e-10  3.4176266355371869e-11  1.3020461657476138e-10  2.4079591606979882e-10  2.5375675680121172e-11  3.3368838781577420e-10  1.6409177450364554e-10  3.8567036891126552e-10  1.1571100413186096e-10  2.4240919534185702e-10  3.2543805401802912e-10  7.4651679417708556e-11  1.0596830890894828e-10  2.2465248599202241e-10  6.7771548320288925e-11  4.8662431225364612e-10  1.5579759774665892e-10  9.8181557149455786e-11  1.1141398170415954e-10  2.1241740663584458e-10  5.5594989916800778e-10  4.7540930565825577e-10  1.7671855740824848e-10  1.7776376993585039e-10  2.1341141168307568e-10  4.0296642239752834e-10  4.4598829077633921e-11  2.3016243548574124e-10  7.9498022731742458e-11  1.2490857942332981e-09  1.1696698482339127e-10  4.5830040361829126e-11  5.5171324084743362e-10  3.4006284510544140e-10  2.4824228252668024e-10  2.2159071709200247e-10  6.2518602039035521e-11  1.5328762606056279e-10  3.3925411390679264e-11  4.4503679138776289e-10  8.0155212322732723e-11  1.3182159695549412e-10  1.2994265764754053e-10  6.6795992500541779e-11  3.4987755363229222e-10  4.0730654057618261e-11  1.1600001823753678e-10  2.5082702765420668e-10  1.7914031272218742e-10  7.2103823448273627e-10  9.3906954433319315e-11  5.8439141264322479e-10  1.4744859591288634e-10  3.5292227227538003e-10  5.5020679629815843e-10  2.4270042275970987e-10  1.5361664696092178e-10  2.7260174975907342e-10  4.8289627755517746e-10  3.5867545998150412e-10  7.2465850159819778e-11  5.0320443631347125e-11  1.6419236817556867e-10  3.6044983122789745e-10  1.9077873026414001e-10  1.2415747794736778e-10  1.6777853747690136e-10  8.1153840259906397e-11  7.1389736572088220e-11  2.0198477511030777e-10  5.8259442932017459e-11  2.1113154610585787e-10  9.1770157294955769e-11  4.9002096035804664e-10  5.1789097236199804e-10  8.2838925483108117e-11  3.9714436583681316e-11  4.1531065861760121e-10  6.5434054741749023e-10  2.5841359333294892e-10  9.8946626721267661e-10  2.8949381665588219e-10  3.1992711968787321e-10  2.7091123479610853e-10  2.6547503428890887e-10  9.8557883920521553e-11  2.9095460607665646e-11  1.9744745102070524e-10  1.0192553383072938e-10  2.1445877284744606e-10  7.5986507277807814e-11  1.2794594555953988e-10  2.0436632115928880e-09  1.7685521906754913e-10  7.9679641373887313e-11  8.4995864417746689e-11  4.0484404720495595e-10  2.4156958823892540e-10  1.9026473842885151e-10  2.0838799808712888e-10  4.4277787350011340e-11  7.6006388292096032e-10  2.4660262719568514e-10  5.3951533428058088e-10  2.6001808667509885e-10  2.3695594523685035e-10  3.1429380335590667e-10  9.3852142149179762e-11  3.1574484576554946e-11  3.3827202491916499e-11  3.7009709245887715e-10  3.2407301329786332e-11  1.0982023582363109e-10  1.0369391165928918e-09  7.4574079349494656e-11  3.4237525584062919e-10  2.6420941203225705e-10  6.2623981322007289e-11  5.9101958027979127e-11  1.7618858150464776e-10  2.4752270037078042e-10  4.7251849129626614e-11  1.1158304926449132e-10  1.6280175861063015e-10  7.5273834994039271e-11  1.7478645277143969e-10  2.1176892278961282e-09  3.5054279757561838e-10  3.1939626576343804e-10  1.0705127251695362e-10  1.0749877594630655e-10  1.8265007147783942e-10  7.4975259679074602e-11  1.3426455614694618e-10  4.9694108790002090e-10  8.5810523943350178e-11  2.4115374415388256e-10  2.2262040788324589e-10  1.3947862127434072e-10  4.7969891876714661e-11  7.1729736539398852e-11  5.0420115855341538e-11  2.1072877400114490e-10  1.0656916358515717e-10  2.1671314571773784e-11  5.7322866256537124e-10  2.8744443593603828e-11  6.2602628674946223e-10  1.1702122016820460e-11  1.7224625071593513e-10  1.8637895367264675e-10  2.5274567442712262e-10  1.0367883067438322e-10  2.6439245982859692e-11  8.4677413774868326e-11  2.7161419162674720e-11  2.0723712658362435e-10  3.7455883929091726e-10  2.6770446685002186e-10  3.2630845160836751e-10  1.3394188706495533e-10  9.0527695778278603e-11  5.8767221519541208e-11  3.6294907007584085e-10  5.0838833100677884e-10  1.0757434368209863e-10  1.0009607836778988e-10  1.4510443936517633e-10  7.5820174691826813e-11  4.5104059940170662e-11  4.8717501739747175e-11  2.8208404320843961e-11  8.6746435353737693e-12  1.6601173709106259e-11  8.9930672585063807e-11  1.8493107909800514e-12  9.1329100353127165e-12  1.8612526381840626e-10  3.5080967846653521e-09  2.1644603007048694e-10  3.8391500215689448e-11  2.2350574872012128e-10  9.5508520965071246e-11  1.1508583467496320e-10  4.3734892360986764e-11  1.5332299147843525e-11  7.8964423202917930e-11  7.2685665658950261e-10  7.7808526667415566e-11  1.8530678372996946e-10  3.2768657091189151e-10  5.0868735966354145e-10  9.4964875207237750e-11  1.0165751586785381e-10  5.7146445895337976e-11  7.5629246945490736e-11  1.0677527306367365e-10  5.7300423291286306e-11  6.8485367788417314e-10  5.9843280068286464e-11  2.7854377418258231e-10  8.5707465643412627e-11  1.2643839828732821e-10  3.1455923159941930e-10  4.1089422341787048e-11  5.8869414520183305e-11  2.8030053959406047e-10  1.1232335675058901e-11  1.1558164749805636e-10  8.6013959277139458e-11  7.3908435970449834e-11  5.6592662783124349e-10  1.6306943143819974e-09  3.5170341181936419e-10  2.8805576818561010e-10  8.9652874205767291e-11  7.0780061791170393e-11  2.5793402169474876e-10  1.1933513147272091e-10  9.6623508266575012e-11  1.0265724232492317e-10  2.0480723918117931e-10  7.4964054170255167e-11  5.0408949754161390e-11  6.6431021633692118e-11  3.8433474763197008e-11  8.5983249056299287e-11  1.9094139745235143e-10  1.6457899936849993e-10  1.1155669164119656e-10  3.0781987070554000e-10  4.6312660948259799e-11  1.3797141519926560e-10  5.2371187617407878e-10  6.4595023878489364e-11  1.1293058943002221e-10  1.7282921782242577e-09  5.9487147310051857e-11  3.4215951729934403e-10  5.1544513669849033e-10  1.5776831894797492e-10  1.2695296569099180e-10  1.2627283599941480e-10  8.4697508791023538e-11  2.4560200005587303e-10  2.8732457157206217e-10  1.7908429468073669e-10  4.6769759845024260e-10  4.2840883433676436e-10  1.2393067030530284e-10  2.1360620419376807e-10  6.6449664256259934e-11  8.5126646176662266e-11  6.2014185700996620e-11  2.4123849444407631e-10  4.0152198059779273e-10  3.0896590308743489e-10  3.3084905823934705e-10  8.6387508540357319e-11  2.2498863249295860e-10  4.7466502374904405e-10  1.7596403145889637e-10  4.9117006779364520e-10  1.8070523954081357e-10  1.3824288528957263e-10  1.1142204059839505e-10  5.0603317982424914e-11  5.3476113793455584e-11  3.4223528723513335e-10  6.3078278486717743e-11  6.4470917396360616e-11  1.3132536635839291e-10  3.2408081656413132e-10  3.3126801286308025e-10  1.5800369565487154e-10  1.1597000443236376e-10  5.9569153405111356e-10  6.3719195701949247e-10  1.6076406318586984e-09  2.6849873241718241e-10  1.9658886732365586e-10  4.4273803069476960e-10  4.6192563881582157e-10  1.1712200382996614e-09  2.9951236091455306e-10  2.4661482300087313e-10  3.1660671995847189e-11  1.2897333121028160e-10  3.8543430247120421e-10  6.2346077802273103e-10  2.1755056969232197e-10  6.9242774794522014e-10  3.0706367578712491e-10  1.9445501205883932e-11  4.9532552811280380e-10  3.2742098175509157e-10  3.8432214856919851e-11  3.3369131840085877e-10  4.1149650709732597e-10  5.4662465046489066e-10  1.4615047507784695e-10  6.8879584667870591e-10  1.9557643798397657e-10  4.6476351418409096e-11  1.2656290301826167e-10  1.3305165531489587e-10  3.0164305984735854e-10  7.6336596138575349e-11  2.7420501758082280e-10  1.9116551856612555e-10  7.1573895552247827e-12  1.5444889005131499e-10  5.7028199123305917e-11  8.9741339876737955e-11  1.2397176919667870e-10  6.2882015972869458e-10  4.1481405826346968e-10  3.0429307203384576e-10  1.1638831451292206e-10  1.3441895915923143e-10  8.9964104712048144e-10  5.4017219866677447e-10  1.3715789621697878e-10  1.4333012916186500e-10  9.1755484691650771e-11  4.9797193685590639e-10  1.4252193600461352e-10  1.7716010792334861e-10  9.6052166006574862e-11  6.9287393474810177e-11  6.3450847026452437e-11  1.5283320533848532e-10  9.5540469753038779e-11  1.3261538526712016e-10  4.5012112974797902e-10  7.5148552278225932e-11  6.0307493126205925e-10  1.2984624462845298e-10  2.2532598839371912e-10  2.8783541146666742e-10  5.5101874568631860e-10  1.1424954967495987e-10  4.0593792131910438e-11  6.0931964051240207e-11  1.4075305363530392e-10  1.5654029774954110e-10  5.2989956142546236e-10  8.1703935956296362e-11  1.5682571402543804e-10  2.4607430776375364e-10  1.3751589315805365e-10  2.4045197634542347e-10  3.3946176543458579e-10  3.1634591248998971e-10  1.0859623952699055e-10  1.7879990801394013e-10  1.5178921725430257e-10  2.3022896425176582e-10  3.6931482411001686e-10  3.7879253569065302e-10  2.0310062430695202e-10  2.0687568244798943e-10  1.2496931861986937e-10  1.6686184691960328e-10  3.0128704237206298e-10  3.8665070234660688e-10  3.6474729304953785e-10  1.6548825405500247e-10  2.1902435016850178e-10  1.9542945657501064e-10  1.5222842055340590e-10  4.0200193553889772e-10  2.9735340095375835e-11  1.0768732181065078e-10  1.2920225843991231e-10  3.6905129795054502e-08  4.1341441243793579e-10  1.7913177130328575e-10  6.1265472150086050e-11  2.6055358668749760e-10  1.4050395683862002e-10  6.3947972017939455e-11  1.0533822592808276e-10  2.0418359939883674e-10  2.0758335626209525e-10  1.9384176961212550e-10  1.9227243754231396e-10  3.0666513391026696e-10  6.3440559068971078e-11  7.9978934674211042e-11  1.9623047614061439e-10  1.2378054122978848e-10  3.4572529586849983e-11  4.1054274422088007e-10  6.3414093514011721e-11  6.0997543040566313e-11  1.9535629183065195e-10  9.7528730745314510e-11  2.3922780424458481e-10  2.9860009982568307e-10  2.3461502062045857e-10  8.2235589194046954e-11  1.8541957824915261e-10  9.5661593531499091e-11  3.0010681897025172e-11  8.7093926253387792e-11  5.5774553142770427e-11  7.6647423410186400e-11  2.2354994163022224e-10  4.6251443927790004e-11  6.5034868161911932e-11  9.2459884835864762e-11  9.1455019046798041e-11  9.3564435412171426e-11  2.8247986158144534e-10  8.6810429848256636e-11  1.8244795018835724e-10  2.0523435833196650e-10  1.0101885254685997e-10  1.5986185417289458e-10  3.1637522789795906e-10  1.2356051004755429e-10  6.1719642113525625e-10  1.7476974287588219e-10  1.5027047671926423e-10  1.3995881550285733e-10  2.2589596050456909e-10  4.2544366320969952e-11  3.8630383593318954e-11  7.6338048933371865e-11  4.5486968385554014e-10  1.9770090179920172e-10  6.6087416761991598e-10  4.4814527310339293e-10  1.2192033877795693e-10  5.5657202762224619e-10  3.6623938935373143e-10  1.9270726967920947e-10  7.0401406033813613e-11  9.2176704349688842e-11  1.7316817440620635e-10  1.8856950687870891e-10  3.8755566056479934e-11  4.9785054744212528e-10  2.7986042103002806e-10  3.5141444336635043e-10  4.9426688395243394e-11  3.6570402479534211e-10  2.6569959042500758e-10  5.7663769576711578e-10  7.4853125389060207e-11  5.9757234851721189e-11  2.4294159784300835e-10  7.2026428116678222e-11  4.0968249441449283e-11  1.4477600660968885e-10  2.3100037523142525e-11  6