<?xml version="1.0"?>
<VTKFile type="UnstructuredGrid"  version="0.1"  >
<UnstructuredGrid>
<Piece  NumberOfPoints="1237" NumberOfCells="2335">
<Points>
<DataArray  type="Float64"  NumberOfComponents="3"  format="ascii">-1 3.09081664739187e-17 0  -0.9843750000000001 0.02706329386826373 0  -0.9586042096960951 -0.0236073080308172 0  -0.9687500000000001 -0.05412658773652738 0  -0.9687499999999999 0.05412658773652741 0  -0.9472957560052226 0.006184170637571083 0  -0.9267582714381279 -0.04141318421241193 0  -0.9316799261084423 -0.07502217834255943 0  -0.9375000000000001 -0.1082531754730548 0  -0.9304535526187879 0.02123269309792843 0  -0.9155919293475937 -0.02097532195701668 0  -0.8901898660228655 -0.05879793213392052 0  -0.8961407092258983 -0.08791682354371629 0  -0.9041593017321125 -0.1150769371767221 0  -0.9062500000000001 -0.1623797632095822 0  -0.9531250000000001 0.08118988160479108 0  -0.890147330991285 -0.0122086527191084 0  -0.8576709175674995 -0.04850009197978337 0  -0.8494979525438807 -0.09201284187231788 0  -0.8688087259335305 -0.1227339854926646 0  -0.8657397003544938 -0.1744307530448399 0  -0.875 -0.2165063509461097 0  -0.9191385500632976 0.05668682295204934 0  -0.9374999999999999 0.1082531754730548 0  -0.8414732086268925 -0.02979075402072296 0  -0.8838615846104741 0.03281364894932847 0  -0.9025993020289615 0.08399522279934024 0  -0.9218749999999999 0.1353164693413185 0  -0.8069091517126806 -0.1063797548106189 0  -0.8227041474082361 -0.1554136366367828 0  -0.8450362008579381 -0.1636153151676399 0  -0.824611073526637 -0.2087806554713395 0  -0.8432447828874938 -0.2299625171474235 0  -0.8437500000000001 -0.270632938682637 0  -0.8074688489602485 -0.04534311577063995 0  -0.7748599739446962 -0.09147609870793595 0  -0.7599743974004342 -0.1515693530204255 0  -0.7874243887323827 -0.1486997295560047 0  -0.7740096897566618 -0.1902442517032015 0  -0.7982566063220082 -0.2018609305277571 0  -0.7939958243211587 -0.243248178868526 0  -0.8033953092403587 -0.2739516347679044 0  -0.8125000000000002 -0.3247595264191645 0  -0.8481685757897792 0.03463580614500975 0  -0.8763526826359844 0.09829521691979071 0  -0.9062500000000001 0.1623797632095823 0  -0.7872217742390745 -0.03024195936296309 0  -0.7565548600439893 -0.06556774174670035 0  -0.7280367863186943 -0.1046281989307924 0  -0.7428557301118698 -0.1326576576268934 0  -0.7130575397441211 -0.2080743084118526 0  -0.7425045269468755 -0.2040970945489534 0  -0.7674851701419854 -0.2290293682917657 0  -0.7599986833552189 -0.2682349390602705 0  -0.7616526459078594 -0.3305135978123668 0  -0.7812500000000001 -0.378886114155692 0  -0.816253599818404 0.01031925268654644 0  -0.8190007077644565 0.05195524742955143 0  -0.8424384387483641 0.09512493014350837 0  -0.8689593925676488 0.1377994471097691 0  -0.890625 0.1894430570778459 0  -0.7410175419981699 -0.05005547045971393 0  -0.6820539222728559 -0.1168108160858607 0  -0.6757831681120814 -0.161343132024619 0  -0.7066615444436462 -0.1644905737066079 0  -0.6637898688950368 -0.220644916152676 0  -0.6744004859163939 -0.2587362859831477 0  -0.7325446303104611 -0.2447371505997974 0  -0.7216022609970536 -0.292027783035909 0  -0.7407903637588057 -0.3123505827564781 0  -0.7035881363438097 -0.356533874799312 0  -0.7288120197725808 -0.392133095104917 0  -0.75 -0.4330127018922193 0  -0.7897359628532806 0.006725954256448229 0  -0.7972623766874077 0.06341714755367762 0  -0.8304362309430872 0.1129567769931919 0  -0.8421684945059275 0.1611058176776091 0  -0.8750000000000001 0.2165063509461097 0  -0.7637447900489446 0.0084055150883772 0  -0.7027910536312951 -0.05387662733901926 0  -0.6399011514174923 -0.1176136647146791 0  -0.6199508075525719 -0.1685360793359413 0  -0.6333977552331249 -0.1967451137076092 0  -0.619216095826812 -0.2480485729726879 0  -0.6276040039072337 -0.2883488704175591 0  -0.6261231993592246 -0.3335289324385786 0  -0.6865068439078151 -0.2949080438254524 0  -0.6907604947283688 -0.3285687191624082 0  -0.6650087872471667 -0.3699552850214223 0  -0.6798435707998647 -0.4026405874050478 0  -0.7050830176678921 -0.447022367558788 0  -0.7187499999999999 -0.4871392896287467 0  -0.7723498686347566 0.07044317118097282 0  -0.8017262003913778 0.122128289958322 0  -0.8169126563784805 0.1693170073489986 0  -0.8593750000000001 0.2435696448143733 0  -0.7259809026153086 0.008482836968837627 0  -0.6740418109022589 -0.02450688559989462 0  -0.7223115334823216 0.04936346203485886 0  -0.7572899881178878 0.1097950588389946 0  -0.7734646598732114 0.1561617258837397 0  -0.8083562768108126 0.2049421991290764 0  -0.84375 0.270632938682637 0  -0.6660887510003569 -0.06759964205641175 0  -0.6171961871067949 -0.09908864551504318 0  -0.5833829368075305 -0.1731805645520128 0  -0.5851671105835449 -0.224515763015499 0  -0.5727138940289876 -0.2779087493001106 0  -0.5801058985757366 -0.3174797115370438 0  -0.57948544680462 -0.3632267691333948 0  -0.6267964734590343 -0.3775121834136309 0  -0.6398433230386719 -0.4169421315431633 0  -0.6616426493335408 -0.4488274832297308 0  -0.6803761222242836 -0.4915582867438201 0  -0.6875 -0.5412658773652741 0  -0.6566148164134606 -0.3360342982328451 0  -0.6542800869698886 0.003633874519227934 0  -0.6158214682809207 -0.05883418227773253 0  -0.5750967197363078 -0.0918766710651954 0  -0.5702619644256461 -0.1314570888217494 0  -0.5310796517017504 -0.1985334532999667 0  -0.5379237787887492 -0.2420866834293268 0  -0.5516118004787688 -0.2643356959406811 0  -0.5219299366261414 -0.3074188372821275 0  -0.5441569679299709 -0.3203940814531961 0  -0.544846265790987 -0.3611331944285065 0  -0.5114751055162018 -0.4066686830605467 0  -0.5298500409650213 -0.4384707797967484 0  -0.5794737256993363 -0.4086737180861368 0  -0.6054298025247353 -0.4197528954248557 0  -0.592710431245361 -0.4609848902618885 0  -0.6134133603589965 -0.4927681039827594 0  -0.6393590131426583 -0.5198261223711328 0  -0.6438736370520471 -0.5600300692022314 0  -0.65625 -0.5953924651018015 0  -0.6961199877549025 0.06467019448070167 0  -0.7322688722710476 0.1241970790870847 0  -0.7614677067674487 0.1843417562313635 0  -0.7982098286578407 0.241597904092872 0  -0.828125 0.2976962325509007 0  -0.6121569899603913 -0.02049935287448479 0  -0.5680093344887456 -0.06210558644879417 0  -0.5296938028141881 -0.1373067408269198 0  -0.4901525291003586 -0.1955789237044915 0  -0.4746183446720159 -0.2428634803524866 0  -0.4858590591960716 -0.2715088080329482 0  -0.4715952226353661 -0.3270718944547512 0  -0.4874270099800481 -0.3483793786947822 0  -0.480078652051836 -0.4044778124091272 0  -0.5107966792581313 -0.3607592194079098 0  -0.6351984073276686 0.03037645136060999 0  -0.6919512395101405 0.1148619971399276 0  -0.7371035741994222 0.1934824949257085 0  -0.7677243675294183 0.2452436239691324 0  -0.8125000000000001 0.3247595264191646 0  -0.5070956227453038 -0.2856926586873541 0  -0.4592753826052925 -0.4489578951960593 0  -0.4551538480224278 -0.4879280476876971 0  -0.4870834355975865 -0.4924138429753193 0  -0.5543645851211818 -0.4600201827899537 0  -0.5636063113133203 -0.5062314567180716 0  -0.5722394951023636 -0.540723915347752 0  -0.6004398475588687 -0.5639514773360513 0  -0.6165119354103209 -0.6003123312214718 0  -0.625 -0.6495190528383291 0  -0.5850968043587489 -0.01747042289921243 0  -0.5715475053296581 0.003755875240688324 0  -0.632542541699327 0.08118252107995054 0  -0.6715186710197373 0.1292199759178416 0  -0.6982974014086432 0.1789827939308964 0  -0.7309041627521532 0.2234419242184485 0  -0.760853516405614 0.2792464453234507 0  -0.7607023230601084 0.3093962646126385 0  -0.7968750000000001 0.3518228202874282 0  -0.5264933157473631 -0.08231084764042879 0  -0.493638060994832 -0.1339939179799725 0  -0.4589626054281711 -0.1957888821520802 0  -0.438352019728192 -0.2427967943470546 0  -0.4349603537871217 -0.2905998917905525 0  -0.4340727913783781 -0.3307406261902842 0  -0.3931940322566967 -0.3797355265396843 0  -0.4328932475453516 -0.4073381105917769 0  -0.415502513600294 -0.4580373266102869 0  -0.385415281901366 -0.511073437509846 0  -0.3881529845957117 -0.5477450464703199 0  -0.4322278898459536 -0.5328927439743946 0  -0.4708621541874918 -0.5447008496340244 0  -0.5212781730861482 -0.509033783025311 0  -0.5273194299998638 -0.5485603521097303 0  -0.5234826944144788 -0.5932528774620949 0  -0.5625853138775753 -0.5789028834579788 0  -0.5740199804033532 -0.6134996816985621 0  -0.5765847191201461 -0.6564593508420057 0  -0.59375 -0.7036456405748563 0  -0.5800862410227176 0.06953847272188511 0  -0.62345922728912 0.1087748024732029 0  -0.6592027535596012 0.1483415294528432 0  -0.7030117102084296 0.2220614128747072 0  -0.7211245865447338 0.2726260665754737 0  -0.7293612713284667 0.3214771290950779 0  -0.7890625000000001 0.3653544672215601 0  -0.5497332796675871 0.02526608106074905 0  -0.53018493643993 -0.01879708202667862 0  -0.5023738120312831 -0.06929095084794874 0  -0.4543086626793323 -0.1501783646722772 0  -0.4248556544311721 -0.2001778118037034 0  -0.3836034551939345 -0.2834399929263637 0  -0.3735195503155113 -0.3423773121212576 0  -0.3164083588907829 -0.4085503075097236 0  -0.3374441431234344 -0.4358308634994116 0  -0.3563643403403329 -0.4652367397589351 0  -0.3293009761387771 -0.5276556289563349 0  -0.3139040252508816 -0.5855140438576723 0  -0.366730554445017 -0.5948349816197472 0  -0.4217402740883738 -0.5900354366832488 0  -0.4753932323153703 -0.5864582514369745 0  -0.4778516850572023 -0.6318307895279576 0  -0.5087154203841168 -0.6499046400010015 0  -0.5448706663656597 -0.6492816546120687 0  -0.529090650986931 -0.6944022548983919 0  -0.5447409078977913 -0.7268187065901833 0  -0.5625000000000001 -0.7577722283113839 0  -0.5918572054463975 0.1338101643626165 0  -0.6347680448791199 0.1520640736039057 0  -0.6649299767989149 0.2164013530528183 0  -0.6741572651241856 0.2686102951723429 0  -0.6789476455262888 0.321375691006909 0  -0.7254508777365434 0.3530655186058727 0  -0.7812499999999999 0.3788861141556918 0  -0.5377716048704266 0.05272672813330151 0  -0.5104530844077947 -0.001526069099174808 0  -0.46319401157798
[...]
<PointData  Scalars="w"> 
<DataArray  type="Float64"  Name="w"  format="ascii">1.0145891057929586e+00  1.0134981446625082e+00  1.0145642869572686e+00  1.0151108650885576e+00  1.0120319295340654e+00  1.0143222319250484e+00  1.0169827543106837e+00  1.0163596872260872e+00  1.0167732278851025e+00  1.0161279033048656e+00  1.0206891733679464e+00  1.0250799399976440e+00  1.0213991511396958e+00  1.0198775557390425e+00  1.0230273823152323e+00  1.0124274319140851e+00  1.0318882455106446e+00  1.0402011974363561e+00  1.0378719549323210e+00  1.0270228256172529e+00  1.0275295506929325e+00  1.0269716194124632e+00  1.0165153226217662e+00  1.0153363288028614e+00  1.0439144929127284e+00  1.0299845423644800e+00  1.0201584212007651e+00  1.0222389375398253e+00  1.0465841341075732e+00  1.0381643962097111e+00  1.0334315998912025e+00  1.0321702125933485e+00  1.0314452540803369e+00  1.0414927307757693e+00  1.0446561700874744e+00  1.0465251321854550e+00  1.0443082907979049e+00  1.0424127646477750e+00  1.0415068116898933e+00  1.0391361763762750e+00  1.0442958228919792e+00  1.0551593043412824e+00  1.0963554836850171e+00  1.0419184310838405e+00  1.0294513235868346e+00  1.0331364723836693e+00  1.0483233952655076e+00  1.0537204788927583e+00  1.0585914966398418e+00  1.0495080269558568e+00  1.0617105134829170e+00  1.0490191993256892e+00  1.0457265707198602e+00  1.0597130687682803e+00  1.0987157417343574e+00  1.1293154495450601e+00  1.0446795711536114e+00  1.0434339904418273e+00  1.0377652977084577e+00  1.0390855119060785e+00  1.0451815747136357e+00  1.0645037238441784e+00  1.0860227572635528e+00  1.0844165475793013e+00  1.0652179765396157e+00  1.0885797353908244e+00  1.0981957652576695e+00  1.0594156803990116e+00  1.0641111312326526e+00  1.0807339900016129e+00  1.0950493292669081e+00  1.1350095646008826e+00  1.1369972149594587e+00  1.0538807860408148e+00  1.0540040318590882e+00  1.0461365032761878e+00  1.0550925366597277e+00  1.0514098556234974e+00  1.0681530325215058e+00  1.0857414554994944e+00  1.0956930599538255e+00  1.1111285013854455e+00  1.0996668049114424e+00  1.0856380344487042e+00  1.0877303866876040e+00  1.0804068793429498e+00  1.0713835437448262e+00  1.0683332903129295e+00  1.0799286072222289e+00  1.1217882623749709e+00  1.1441463155427063e+00  1.1403346493772579e+00  1.0758704038095068e+00  1.0693544454461139e+00  1.0706931000054607e+00  1.0489507639855136e+00  1.0954106909119388e+00  1.1052925942852818e+00  1.1170910646686576e+00  1.0922074041747507e+00  1.0907082430793256e+00  1.0697188820234533e+00  1.0434559759543696e+00  1.0942291370982471e+00  1.0931968030351018e+00  1.1044880099455703e+00  1.0817151299238914e+00  1.0711127014234527e+00  1.0843956460993018e+00  1.1047842962016754e+00  1.0792953443036684e+00  1.1017131012322243e+00  1.1386144268365692e+00  1.1556775269785085e+00  1.1600448944608706e+00  1.0668805038419591e+00  1.1230319454203681e+00  1.0982363242520834e+00  1.0962221164990738e+00  1.0922274334673407e+00  1.1009772145904215e+00  1.0755134884905522e+00  1.0682726509852463e+00  1.0672358518868186e+00  1.0701607868668925e+00  1.0896054018265300e+00  1.1416431719662101e+00  1.1699114038400116e+00  1.1200633507524773e+00  1.1022950154267819e+00  1.1186893593548735e+00  1.1414436555558183e+00  1.1588011755931638e+00  1.1442272747311120e+00  1.1341156346039281e+00  1.1268836491931602e+00  1.1026772397807303e+00  1.0945770447048866e+00  1.0537106890387917e+00  1.0358744229902437e+00  1.1055365950327187e+00  1.1022388511760721e+00  1.0963845736511955e+00  1.0934787380578295e+00  1.0936581518085602e+00  1.0818552809637183e+00  1.1239340474880786e+00  1.1019261892770280e+00  1.1767761409944422e+00  1.0857136490966417e+00  1.1234942030359165e+00  1.1216304087375688e+00  1.0793863137054960e+00  1.0506234643132419e+00  1.0388841030931282e+00  1.0717832037088184e+00  1.3004774627718967e+00  1.3428026619781757e+00  1.2726614461109895e+00  1.1417829652373526e+00  1.1452834775879766e+00  1.1482570081692358e+00  1.1545082270613394e+00  1.1427350228142734e+00  1.1529807536406809e+00  1.1119146389833290e+00  1.1065799798731393e+00  1.1333660657730071e+00  1.1124596943721730e+00  1.0814179317873596e+00  1.0647251517575214e+00  1.0523052823053001e+00  1.0515627912637924e+00  1.0460228920665853e+00  1.1025627522566535e+00  1.0928122884376812e+00  1.0917876956565495e+00  1.1085405464261011e+00  1.1442151649709604e+00  1.1877681898701036e+00  1.2949442149986812e+00  1.2621806973039047e+00  1.3249412683322639e+00  1.3639608577515145e+00  1.3624104843762872e+00  1.3259970912464814e+00  1.2549821367781555e+00  1.1848189721860649e+00  1.1665405149110657e+00  1.1833092329502679e+00  1.1614452036384100e+00  1.1893002111692128e+00  1.1782669607694580e+00  1.1985931006874186e+00  1.0934964310915107e+00  1.1104741384008356e+00  1.0979582255878371e+00  1.0761504319641046e+00  1.0671112605898430e+00  1.0611374661183735e+00  1.0504150783206783e+00  1.0874873034001333e+00  1.0968192160319472e+00  1.1177623266277616e+00  1.0966497051240669e+00  1.1016983795490403e+00  1.1664174144434729e+00  1.2382005682212291e+00  1.2477715271717493e+00  1.2251120842377830e+00  1.2398727785760713e+00  1.3071859264050694e+00  1.3754396507182927e+00  1.3502388555692804e+00  1.3027527986552254e+00  1.2353721113590519e+00  1.2675287698725035e+00  1.2610353728527499e+00  1.2289638747250555e+00  1.2506123864311158e+00  1.2362689230410449e+00  1.2524887504534135e+00  1.0956571825485275e+00  1.1095349986036613e+00  1.1098124671241620e+00  1.0927318327995703e+00  1.0843437074452160e+00  1.0691541067248351e+00  1.0548215212096110e+00  1.0824245469626543e+00  1.0991994173325070e+00  1.1524457920624904e+00  1.1174895680835124e+00  1.1221738750893759e+00  1.1755425534955941e+00  1.1745628756745654e+00  1.2068308369490655e+00  1.2272789515975584e+00  1.2572761655802478e+00  1.2639605888374636e+00  1.2571146094536909e+00  1.4932185371119584e+00  1.4652176708249063e+00  1.3816207300467342e+00  1.4411677323406868e+00  1.5355946142565311e+00  1.3393339734347038e+00  1.3489883378595919e+00  1.3142940469267048e+00  1.2903655388937381e+00  1.3307598930643068e+00  1.4139844289674726e+00  1.1074587014109043e+00  1.1238583139873830e+00  1.1248756731174201e+00  1.0897312151300398e+00  1.0805008759161643e+00  1.0640665945819678e+00  1.1034027576719012e+00  1.0913150734059367e+00  1.0911768290605024e+00  1.1075035293139606e+00  1.1883154133581759e+00  1.1872120513151474e+00  1.1257073109999483e+00  1.1326524306245143e+00  1.1989340494992096e+00  1.2016407909875870e+00  1.1923756646808801e+00  1.2079711776293156e+00  1.2445868417185388e+00  1.2507875245561570e+00  1.3511532775731254e+00  1.4168491256346898e+00  1.4845305185666866e+00  1.4239514652285088e+00  1.4080894793786611e+00  1.4647905904745497e+00  1.4140208352412387e+00  1.4015159624493310e+00  1.5649270804971775e+00  1.4858782187108146e+00  1.3847513615736973e+00  1.3392490124529397e+00  1.3512885711563094e+00  1.4675212373744795e+00  1.5280710021751640e+00  1.1114125621306397e+00  1.1303519105501989e+00  1.1689471311929922e+00  1.1527091217401595e+00  1.1044339658283462e+00  1.1054352904375193e+00  1.1500649834772405e+00  1.1664053220827069e+00  1.1774094239713031e+00  1.1426435022416230e+00  1.1592653648977160e+00  1.1022511675265070e+00  1.0706054262843825e+00  1.0734559913344000e+00  1.0681315883049660e+00  1.2184034280324720e+00  1.3443056334227383e+00  1.2375604992387141e+00  1.2415641741806842e+00  1.3805450573329401e+00  1.4818759640152350e+00  1.3764638115754759e+00  1.4076540323705582e+00  1.5057149985730460e+00  1.4882030594195967e+00  1.3939224984976470e+00  1.4285771241556227e+00  1.3641911232849182e+00  1.3740816223234891e+00  1.4683797413793027e+00  1.4418340436176669e+00  1.5173469679777041e+00  1.4054264962349978e+00  1.3653244389576726e+00  1.4040908615175185e+00  1.4643718336623446e+00  1.1732585018342361e+00  1.1260160942533268e+00  1.1001655388803802e+00  1.0732808541334729e+00  1.0643397396196830e+00  1.0592254002956849e+00  1.0581846804582691e+00  1.0524738285980784e+00  1.1490945759689000e+00  1.1048938756366695e+00  1.1270371195150080e+00  1.1468954977697987e+00  1.1604994964559003e+00  1.3895297652242355e+00  1.4277756411559790e+00  1.2998657445357495e+00  1.3267572071816311e+00  1.3881123745961319e+00  1.4273576863410571e+00  1.4208759452700912e+00  1.4214910346559986e+00  1.5756947285303797e+00  1.7180996437602754e+00  1.8298468759849575e+00  1.5419698600801428e+00  1.4419150932182214e+00  1.4489663598015248e+00  1.4530360478419730e+00  1.4555666339165896e+00  1.3833923524358052e+00  1.4974437369184768e+00  1.5660050731075885e+00  1.5651578540693567e+00  1.4754918597942377e+00  1.4489019045105826e+00  1.4169629847511176e+00  1.1322055325133484e+00  1.1313313508766638e+00  1.1005510862221393e+00  1.1271748075478345e+00  1.1562371858755349e+00  1.1799315798129568e+00  1.2336330863199332e+00  1.2374513883792728e+00  1.2961466062522726e+00  1.3439003471315354e+00  1.3349976123482650e+00  1.4923052267957877e+00  1.4467801263617044e+00  1.5392566554941896e+00  1.4544115191701328e+00  1.6004045490654528e+00  1.4283840333046183e+00  1.0991900080730483e+00  1.0805490596812315e+00  1.0814636151312518e+00  1.0693863529260161e+00  1.0657923083762997e+00  1.0488578072451065e+00  1.0424693490859924e+00  1.9549562857774392e+00  2.1115146330288441e+00  1.6470542563807500e+00  1.4739469775877070e+00  1.4193436070561392e+00  1.4955702189010829e+00  1.5206770442416244e+00  1.1238354583260033e+00  1.1356342246290270e+00  1.0998568152296357e+00  1.0787763746205936e+00  1.0717523245289531e+00  1.0727253365617804e+00  1.0697014119690158e+00  1.0618158632290005e+00  1.0506773186630693e+00  1.0411071816515105e+00  1.1204770571852978e+00  1.1669656227816676e+00  1.2003280703616681e+00  1.1791824775512347e+00  1.2534821973105990e+00  1.3187464372655011e+00  1.3684630021363340e+00  1.4243570080621333e+00  1.4350915509193030e+00  1.6024886054997300e+00  1.5672897180297096e+00  1.4975158100327817e+00  1.5113937506018003e+00  1.9069523778567532e+00  1.8776130199674490e+00  1.6352486187245037e+00  1.1575090136552488e+00  1.1385034312355575e+00  1.1423944116042752e+00  1.1322202179061125e+00  1.0889212738354821e+00  1.0773719946034575e+00  1.0659964491135727e+00  1.0632712124031618e+00  1.0493750109049218e+00  1.0451453768093455e+00  1.0484333014015554e+00  1.0478962683767317e+00  1.2156516213407573e+00  1.1890624232313232e+00  1.1482446195611238e+00  1.2201237332194932e+00  1.2752297702218871e+00  1.4262453653975724e+00  1.4557693104567184e+00  1.6667550914043898e+00  1.6328563181785973e+00  1.4728458854244808e+00  1.5069178974190272e+00  1.5834970799330850e+00  1.5723435462128228e+00  1.1697088390447161e+00  1.2382696969147851e+00  1.1446536432662719e+00  1.1462104023683470e+00  1.2112157695891290e+00  1.2974756865165715e+00  1.4095243236592694e+00  1.5573687152409668e+00  1.4811501990573532e+00  1.5489877884758063e+00  1.6910973267098328e+00  1.5848333195916495e+00  1.5180447444446397e+00  1.5434202719230883e+00  1.1632532763803620e+00  1.1533454486488013e+00  1.1601141941689241e+00  1.1200295798186188e+00  1.0925853891686501e+00  1.0715108442283916e+00  1.0586019248573073e+00  1.0501139200513199e+00  1.0397383711488599e+00  1.0397678429885753e+00  1.0399914720995398e+00  1.0497381906959102e+00  1.0645319386407648e+00  1.2221909874920427e+00  1.1850558887763762e+00  1.1737378723706733e+00  1.2130124834107929e+00  1.2441634316585912e+00  1.5479317751333710e+00  1.7064845654119918e+00  1.5720216862139649e+00  1.7307999184965341e+00  1.8938628979360472e+00  1.7520015968834117e+00  1.1546965657100918e+00  1.1724047117008749e+00  1.1670524048344895e+00  1.1526413565432927e+00  1.1172387166402495e+00  1.0962694633425296e+00  1.0727512593232782e+00  1.0539346478985645e+00  1.0476070865518357e+00  1.0446868348105167e+00  1.0418067579089887e+00  1.0407827599020252e+00  1.0485740187890817e+00  1.0379605873634727e+00  1.2082752594503057e+00  1.1580803225026577e+00  1.1390174848190207e+00  1.1551655148882389e+00  1.1829818406442578e+00  1.1668618035798863e+00  1.1054929359538217e+00  1.0619146946353910e+00  1.0494969005338295e+00  1.0438474524075301e+00  1.0434731614118942e+00  1.0476716099423111e+00  1.0461589464163932e+00  1.0449161143306633e+00  1.0460531039061518e+00  1.2638236334052602e+00  1.2941362301845609e+00  1.2680748784433755e+00  1.4933723234141847e+00  1.6242727752864068e+00  1.6943225585733050e+00  2.1964568987325577e+00  2.2099660239776351e+00  1.8632996391837904e+00  1.1831806122437671e+00  1.1735938021137289e+00  1.1398019845649914e+00  1.1752456782446197e+00  1.2253086310729415e+00  1.1751481221624696e+00  1.1593320723603664e+00  1.1193637705447417e+00  1.0694002339354556e+00  1.0621847348881976e+00  1.0518886483871071e+00  1.0459249856870605e+00  1.0382400137026475e+00  1.0375334255273301e+00  1.0398361303578429e+00  1.0433309463003648e+00  1.0348805715344762e+00  1.0364779926669037e+00  1.0419374194943625e+00  1.2700692530858415e+00  1.2712703664045300e+00  1.3096660531236279e+00  1.3279276743868427e+00  1.4007917904119640e+00  1.5598294921723386e+00  2.4650239521016277e+00  3.1244977475616289e+00  2.8956624629545313e+00  1.1382678355410614e+00  1.1675823176370166e+00  1.1362094641563414e+00  1.1623218771106076e+00  1.1494438376236249e+00  1.1106469148172677e+00  1.0781585143197927e+00  1.0650436635721914e+00  1.0581793009757863e+00  1.0596773262675356e+00  1.0426835374031369e+00  1.0370488668815145e+00  1.0352422324564745e+00  1.0381429164272857e+00  1.0403254198690943e+00  1.0319079483388209e+00  1.0264264702736901e+00  1.1956894402817779e+00  1.1982835804639773e+00  1.2546964591128127e+00  1.3807941818976417e+00  1.3559849120610437e+00  1.4605247886634882e+00  2.3162671142189852e+00  2.9807038246564157e+00  2.1678542495103543e+00  1.9851397367246304e+00  1.1531854808978421e+00  1.1588755788968801e+00  1.1895236362072943e+00  1.1988339421190293e+00  1.2538643144884443e+00  1.4625915005981440e+00  1.5353888529517588e+00  1.9785327919782900e+00  2.1689828228459982e+00  1.8862214599185956e+00  1.4954949050545074e+00  1.5189354416357452e+00  1.1713443252060971e+00  1.1249297551421589e+00  1.1136678339808463e+00  1.1150817971897600e+00  1.0884454728831974e+00  1.0671834881615410e+00  1.0733843496396913e+00  1.0553518092105041e+00  1.0503911406490711e+00  1.0616676444209259e+00  1.0524325883575658e+00  1.0478024725301571e+00  1.0433648471339994e+00  1.0314015198087094e+00  1.0324550164112654e+00  1.0289412484206633e+00  1.0249284497325357e+00  1.0233590903112371e+00  1.0429757877713359e+00  1.1607882562534844e+00  1.2060268095678239e+00  1.1577200280639994e+00  1.1013948501475048e+00  1.0920967072521828e+00  1.0717632605810943e+00  1.0518889400834324e+00  1.0502517634382538e+00  1.0437759624192426e+00  1.0422668744223336e+00  1.0469659042868387e+00  1.0450292516521797e+00  1.0470537647679932e+00  1.0378228424126665e+00  1.0347360697337813e+00  1.0301724417164397e+00  1.0287452508699528e+00  1.0279445182031024e+00  1.0215935490886996e+00  1.0208402420389100e+00  1.2171562819791819e+00  1.2240439519530966e+00  1.3340655069164831e+00  1.2790451768069100e+00  1.3938114077837360e+00  1.4956896384968803e+00  1.5461961767292132e+00  1.7597967993860983e+00  1.7618196665844954e+00  1.6527781854346588e+00  1.4648614005973513e+00  1.3643000156211269e+00  1.3164533294391871e+00  1.1574146011807656e+00  1.1520080428946293e+00  1.1964635850210406e+00  1.3116924905597425e+00  1.3688871536829958e+00  1.3566326478924240e+00  1.3751897539123752e+00  1.5850121481255308e+00  1.7917715174584770e+00  1.7153744664745658e+00  1.6093664011206399e+00  1.6060623070746760e+00  1.5056145659520166e+00  1.5259782396569117e+00  1.5326059920550965e+00  1.3235677157243635e+00  1.2807517609353984e+00  1.1023388921417689e+00  1.1234378813797050e+00  1.0852576336432891e+00  1.0658042647402082e+00  1.0577857499312693e+00  1.0467213922181295e+00  1.0427888338050773e+00  1.0453947442594038e+00  1.0503493013936454e+00  1.0419127407701454e+00  1.0422067748165487e+00  1.0411950006279660e+00  1.0378373665196694e+00  1.0335384476967018e+00  1.0309549700175276e+00  1.0292500453077005e+00  1.0281160186227816e+00  1.0268183085540890e+00  1.0225964175145690e+00  1.0203492590643650e+00  1.1270856112643228e+00  1.1369275986338143e+00  1.1739479155126995e+00  1.2129023856260561e+00  1.2413056840689149e+00  1.3263729866488922e+00  1.3159038902396225e+00  1.3300887956963527e+00  1.3801648069616952e+00  1.5211278621307123e+00  1.4622357142909412e+00  1.5255510973557580e+00  1.4559637266089485e+00  1.5298912660209429e+00  1.5132960515243881e+00  1.3257712293475308e+00  1.2026063379751826e+00  1.1019150023170883e+00  1.0794215663642883e+00  1.0890823936353007e+00  1.0563818298102650e+00  1.0462881669408364e+00  1.0534959695553665e+00  1.0616425905589211e+00  1.0615678230991494e+00  1.0451711307765350e+00  1.0491882527546379e+00  1.0365342057034814e+00  1.0363174412098755e+00  1.0306982119201140e+00  1.0274007517612036e+00  1.0251285072409007e+00  1.0243851288899450e+00  1.0218183910224010e+00  1.1159503338008725e+00  1.1132531554713589e+00  1.1346900745658641e+00  1.1634860899144079e+00  1.1985406389286835e+00  1.1942382505175118e+00  1.2290472679868141e+00  1.2869584793427211e+00  1.3120292114217518e+00  1.3365826510897088e+00  1.3548147158485269e+00  1.3213565860513685e+00  1.2649197205534721e+00  1.2848358661501718e+00  1.3479995990743339e+00  1.3023006860678117e+00  1.2947371876937064e+00  1.2081686851748101e+00  1.1785985767155045e+00  1.1066564942542321e+00  1.0854188096913955e+00  1.0804199171768989e+00  1.0608152153855883e+00  1.0625211441902609e+00  1.0553754467578949e+00  1.0458578603885222e+00  1.0412032088580476e+00  1.0332859381668764e+00  1.0328930788566770e+00  1.0307608872206417e+00  1.0227940296071201e+00  1.0201618148336435e+00  1.0242027931667348e+00  1.0241306568445159e+00  1.1089112124822529e+00  1.1326152332170276e+00  1.1495294854241478e+00  1.1368633211087860e+00  1.1164684411582702e+00  1.0837426752298944e+00  1.0741256766823193e+00  1.0810585718474626e+00  1.0782920483511980e+00  1.0788315117538785e+00  1.0775889886743912e+00  1.0622185005579021e+00  1.0578153305801847e+00  1.0456211099739356e+00  1.0379866750598956e+00  1.0310360655382855e+00  1.0309061581641790e+00  1.0366842548151731e+00  1.0264161386828503e+00  1.0193802856614045e+00  1.0169196652001757e+00  1.0164721924777445e+00  1.0197452472277311e+00  1.1740958188575239e+00  1.1931926819496892e+00  1.1768433531358731e+00  1.1913151526377852e+00  1.2083871227971490e+00  1.2201034958436403e+00  1.2492480847359990e+00  1.2629110573256181e+00  1.2702959855139080e+00  1.2521975873474589e+00  1.2147000211076961e+00  1.1968933972149167e+00  1.2245832488389135e+00  1.2740981050544118e+00  1.2545780365634520e+00  1.2116131960123782e+00  1.2055724117266491e+00  1.0370252263336703e+00  1.1616629313927651e+00  1.1078680384215525e+00  1.0676498923909925e+00  1.0657825371682368e+00  1.0698480737276261e+00  1.0688310032408386e+00  1.0668360137581219e+00  1.0665070840886703e+00  1.0721246495964349e+00  1.0715072441927047e+00  1.0611676714464811e+00  1.0485000861743050e+00  1.0350178484714574e+00  1.0250358017012595e+00  1.0246290081727341e+00  1.0246741860959703e+00  1.0283086283505791e+00  1.0242066676167785e+00  1.0245654926816166e+00  1.0191549892857710e+00  1.0163095059796687e+00  1.0146257726435013e+00  1.0153536699063550e+00  1.1937923783663629e+00  1.1652700155287044e+00  1.1332214317278924e+00  1.1646079423234978e+00  1.1856457580587938e+00  1.1857591516037624e+00  1.1984153283368464e+00  1.2182594516694774e+00  1.2598362457632348e+00  1.2769187653475991e+00  1.2296481047167707e+00  1.2004055648722771e+00  1.1908512493697057e+00  1.2089903000901632e+00  1.3117451384277301e+00  1.2894410759245325e+00  1.2645590581728638e+00  1.2479063095539802e+00  1.1480090750053094e+00  1.1271616761463334e+00  1.1447369989122567e+00  1.1336548677549518e+00  1.1088669419880290e+00  1.1264966272044601e+00  1.1611112493691225e+00  1