<?xml version="1.0"?>
<VTKFile type="UnstructuredGrid"  version="0.1"  >
<UnstructuredGrid>
<Piece  NumberOfPoints="1237" NumberOfCells="2335">
<Points>
<DataArray  type="Float64"  NumberOfComponents="3"  format="ascii">-1 3.09081664739187e-17 0  -0.9843750000000001 0.02706329386826373 0  -0.9586042096960951 -0.0236073080308172 0  -0.9687500000000001 -0.05412658773652738 0  -0.9687499999999999 0.05412658773652741 0  -0.9472957560052226 0.006184170637571083 0  -0.9267582714381279 -0.04141318421241193 0  -0.9316799261084423 -0.07502217834255943 0  -0.9375000000000001 -0.1082531754730548 0  -0.9304535526187879 0.02123269309792843 0  -0.9155919293475937 -0.02097532195701668 0  -0.8901898660228655 -0.05879793213392052 0  -0.8961407092258983 -0.08791682354371629 0  -0.9041593017321125 -0.1150769371767221 0  -0.9062500000000001 -0.1623797632095822 0  -0.9531250000000001 0.08118988160479108 0  -0.890147330991285 -0.0122086527191084 0  -0.8576709175674995 -0.04850009197978337 0  -0.8494979525438807 -0.09201284187231788 0  -0.8688087259335305 -0.1227339854926646 0  -0.8657397003544938 -0.1744307530448399 0  -0.875 -0.2165063509461097 0  -0.9191385500632976 0.05668682295204934 0  -0.9374999999999999 0.1082531754730548 0  -0.8414732086268925 -0.02979075402072296 0  -0.8838615846104741 0.03281364894932847 0  -0.9025993020289615 0.08399522279934024 0  -0.9218749999999999 0.1353164693413185 0  -0.8069091517126806 -0.1063797548106189 0  -0.8227041474082361 -0.1554136366367828 0  -0.8450362008579381 -0.1636153151676399 0  -0.824611073526637 -0.2087806554713395 0  -0.8432447828874938 -0.2299625171474235 0  -0.8437500000000001 -0.270632938682637 0  -0.8074688489602485 -0.04534311577063995 0  -0.7748599739446962 -0.09147609870793595 0  -0.7599743974004342 -0.1515693530204255 0  -0.7874243887323827 -0.1486997295560047 0  -0.7740096897566618 -0.1902442517032015 0  -0.7982566063220082 -0.2018609305277571 0  -0.7939958243211587 -0.243248178868526 0  -0.8033953092403587 -0.2739516347679044 0  -0.8125000000000002 -0.3247595264191645 0  -0.8481685757897792 0.03463580614500975 0  -0.8763526826359844 0.09829521691979071 0  -0.9062500000000001 0.1623797632095823 0  -0.7872217742390745 -0.03024195936296309 0  -0.7565548600439893 -0.06556774174670035 0  -0.7280367863186943 -0.1046281989307924 0  -0.7428557301118698 -0.1326576576268934 0  -0.7130575397441211 -0.2080743084118526 0  -0.7425045269468755 -0.2040970945489534 0  -0.7674851701419854 -0.2290293682917657 0  -0.7599986833552189 -0.2682349390602705 0  -0.7616526459078594 -0.3305135978123668 0  -0.7812500000000001 -0.378886114155692 0  -0.816253599818404 0.01031925268654644 0  -0.8190007077644565 0.05195524742955143 0  -0.8424384387483641 0.09512493014350837 0  -0.8689593925676488 0.1377994471097691 0  -0.890625 0.1894430570778459 0  -0.7410175419981699 -0.05005547045971393 0  -0.6820539222728559 -0.1168108160858607 0  -0.6757831681120814 -0.161343132024619 0  -0.7066615444436462 -0.1644905737066079 0  -0.6637898688950368 -0.220644916152676 0  -0.6744004859163939 -0.2587362859831477 0  -0.7325446303104611 -0.2447371505997974 0  -0.7216022609970536 -0.292027783035909 0  -0.7407903637588057 -0.3123505827564781 0  -0.7035881363438097 -0.356533874799312 0  -0.7288120197725808 -0.392133095104917 0  -0.75 -0.4330127018922193 0  -0.7897359628532806 0.006725954256448229 0  -0.7972623766874077 0.06341714755367762 0  -0.8304362309430872 0.1129567769931919 0  -0.8421684945059275 0.1611058176776091 0  -0.8750000000000001 0.2165063509461097 0  -0.7637447900489446 0.0084055150883772 0  -0.7027910536312951 -0.05387662733901926 0  -0.6399011514174923 -0.1176136647146791 0  -0.6199508075525719 -0.1685360793359413 0  -0.6333977552331249 -0.1967451137076092 0  -0.619216095826812 -0.2480485729726879 0  -0.6276040039072337 -0.2883488704175591 0  -0.6261231993592246 -0.3335289324385786 0  -0.6865068439078151 -0.2949080438254524 0  -0.6907604947283688 -0.3285687191624082 0  -0.6650087872471667 -0.3699552850214223 0  -0.6798435707998647 -0.4026405874050478 0  -0.7050830176678921 -0.447022367558788 0  -0.7187499999999999 -0.4871392896287467 0  -0.7723498686347566 0.07044317118097282 0  -0.8017262003913778 0.122128289958322 0  -0.8169126563784805 0.1693170073489986 0  -0.8593750000000001 0.2435696448143733 0  -0.7259809026153086 0.008482836968837627 0  -0.6740418109022589 -0.02450688559989462 0  -0.7223115334823216 0.04936346203485886 0  -0.7572899881178878 0.1097950588389946 0  -0.7734646598732114 0.1561617258837397 0  -0.8083562768108126 0.2049421991290764 0  -0.84375 0.270632938682637 0  -0.6660887510003569 -0.06759964205641175 0  -0.6171961871067949 -0.09908864551504318 0  -0.5833829368075305 -0.1731805645520128 0  -0.5851671105835449 -0.224515763015499 0  -0.5727138940289876 -0.2779087493001106 0  -0.5801058985757366 -0.3174797115370438 0  -0.57948544680462 -0.3632267691333948 0  -0.6267964734590343 -0.3775121834136309 0  -0.6398433230386719 -0.4169421315431633 0  -0.6616426493335408 -0.4488274832297308 0  -0.6803761222242836 -0.4915582867438201 0  -0.6875 -0.5412658773652741 0  -0.6566148164134606 -0.3360342982328451 0  -0.6542800869698886 0.003633874519227934 0  -0.6158214682809207 -0.05883418227773253 0  -0.5750967197363078 -0.0918766710651954 0  -0.5702619644256461 -0.1314570888217494 0  -0.5310796517017504 -0.1985334532999667 0  -0.5379237787887492 -0.2420866834293268 0  -0.5516118004787688 -0.2643356959406811 0  -0.5219299366261414 -0.3074188372821275 0  -0.5441569679299709 -0.3203940814531961 0  -0.544846265790987 -0.3611331944285065 0  -0.5114751055162018 -0.4066686830605467 0  -0.5298500409650213 -0.4384707797967484 0  -0.5794737256993363 -0.4086737180861368 0  -0.6054298025247353 -0.4197528954248557 0  -0.592710431245361 -0.4609848902618885 0  -0.6134133603589965 -0.4927681039827594 0  -0.6393590131426583 -0.5198261223711328 0  -0.6438736370520471 -0.5600300692022314 0  -0.65625 -0.5953924651018015 0  -0.6961199877549025 0.06467019448070167 0  -0.7322688722710476 0.1241970790870847 0  -0.7614677067674487 0.1843417562313635 0  -0.7982098286578407 0.241597904092872 0  -0.828125 0.2976962325509007 0  -0.6121569899603913 -0.02049935287448479 0  -0.5680093344887456 -0.06210558644879417 0  -0.5296938028141881 -0.1373067408269198 0  -0.4901525291003586 -0.1955789237044915 0  -0.4746183446720159 -0.2428634803524866 0  -0.4858590591960716 -0.2715088080329482 0  -0.4715952226353661 -0.3270718944547512 0  -0.4874270099800481 -0.3483793786947822 0  -0.480078652051836 -0.4044778124091272 0  -0.5107966792581313 -0.3607592194079098 0  -0.6351984073276686 0.03037645136060999 0  -0.6919512395101405 0.1148619971399276 0  -0.7371035741994222 0.1934824949257085 0  -0.7677243675294183 0.2452436239691324 0  -0.8125000000000001 0.3247595264191646 0  -0.5070956227453038 -0.2856926586873541 0  -0.4592753826052925 -0.4489578951960593 0  -0.4551538480224278 -0.4879280476876971 0  -0.4870834355975865 -0.4924138429753193 0  -0.5543645851211818 -0.4600201827899537 0  -0.5636063113133203 -0.5062314567180716 0  -0.5722394951023636 -0.540723915347752 0  -0.6004398475588687 -0.5639514773360513 0  -0.6165119354103209 -0.6003123312214718 0  -0.625 -0.6495190528383291 0  -0.5850968043587489 -0.01747042289921243 0  -0.5715475053296581 0.003755875240688324 0  -0.632542541699327 0.08118252107995054 0  -0.6715186710197373 0.1292199759178416 0  -0.6982974014086432 0.1789827939308964 0  -0.7309041627521532 0.2234419242184485 0  -0.760853516405614 0.2792464453234507 0  -0.7607023230601084 0.3093962646126385 0  -0.7968750000000001 0.3518228202874282 0  -0.5264933157473631 -0.08231084764042879 0  -0.493638060994832 -0.1339939179799725 0  -0.4589626054281711 -0.1957888821520802 0  -0.438352019728192 -0.2427967943470546 0  -0.4349603537871217 -0.2905998917905525 0  -0.4340727913783781 -0.3307406261902842 0  -0.3931940322566967 -0.3797355265396843 0  -0.4328932475453516 -0.4073381105917769 0  -0.415502513600294 -0.4580373266102869 0  -0.385415281901366 -0.511073437509846 0  -0.3881529845957117 -0.5477450464703199 0  -0.4322278898459536 -0.5328927439743946 0  -0.4708621541874918 -0.5447008496340244 0  -0.5212781730861482 -0.509033783025311 0  -0.5273194299998638 -0.5485603521097303 0  -0.5234826944144788 -0.5932528774620949 0  -0.5625853138775753 -0.5789028834579788 0  -0.5740199804033532 -0.6134996816985621 0  -0.5765847191201461 -0.6564593508420057 0  -0.59375 -0.7036456405748563 0  -0.5800862410227176 0.06953847272188511 0  -0.62345922728912 0.1087748024732029 0  -0.6592027535596012 0.1483415294528432 0  -0.7030117102084296 0.2220614128747072 0  -0.7211245865447338 0.2726260665754737 0  -0.7293612713284667 0.3214771290950779 0  -0.7890625000000001 0.3653544672215601 0  -0.5497332796675871 0.02526608106074905 0  -0.53018493643993 -0.01879708202667862 0  -0.5023738120312831 -0.06929095084794874 0  -0.4543086626793323 -0.1501783646722772 0  -0.4248556544311721 -0.2001778118037034 0  -0.3836034551939345 -0.2834399929263637 0  -0.3735195503155113 -0.3423773121212576 0  -0.3164083588907829 -0.4085503075097236 0  -0.3374441431234344 -0.4358308634994116 0  -0.3563643403403329 -0.4652367397589351 0  -0.3293009761387771 -0.5276556289563349 0  -0.3139040252508816 -0.5855140438576723 0  -0.366730554445017 -0.5948349816197472 0  -0.4217402740883738 -0.5900354366832488 0  -0.4753932323153703 -0.5864582514369745 0  -0.4778516850572023 -0.6318307895279576 0  -0.5087154203841168 -0.6499046400010015 0  -0.5448706663656597 -0.6492816546120687 0  -0.529090650986931 -0.6944022548983919 0  -0.5447409078977913 -0.7268187065901833 0  -0.5625000000000001 -0.7577722283113839 0  -0.5918572054463975 0.1338101643626165 0  -0.6347680448791199 0.1520640736039057 0  -0.6649299767989149 0.2164013530528183 0  -0.6741572651241856 0.2686102951723429 0  -0.6789476455262888 0.321375691006909 0  -0.7254508777365434 0.3530655186058727 0  -0.7812499999999999 0.3788861141556918 0  -0.5377716048704266 0.05272672813330151 0  -0.5104530844077947 -0.001526069099174808 0  -0.46319401157798
[...]
<PointData  Scalars="w"> 
<DataArray  type="Float64"  Name="w"  format="ascii">1.0118716558920984e+00  1.0107988450308143e+00  1.0113196127743505e+00  1.0117860662140898e+00  1.0094368562460088e+00  1.0108693563444457e+00  1.0124211898196445e+00  1.0120754121692530e+00  1.0122563911917604e+00  1.0119456552816541e+00  1.0147732650279995e+00  1.0175989710889559e+00  1.0151806927699136e+00  1.0141809617901452e+00  1.0160613851452185e+00  1.0097376920555308e+00  1.0221774509777850e+00  1.0276472382567758e+00  1.0260861056992436e+00  1.0187181241862855e+00  1.0187962602616603e+00  1.0183203984701752e+00  1.0124974451924877e+00  1.0114553866286746e+00  1.0304264879082967e+00  1.0217982933366414e+00  1.0146246771593925e+00  1.0155015840666952e+00  1.0319413316567148e+00  1.0251703308906368e+00  1.0223340321221552e+00  1.0211514151185408e+00  1.0206454930837041e+00  1.0259614211219070e+00  1.0309700454151747e+00  1.0315430198279865e+00  1.0295070063477849e+00  1.0280581820450223e+00  1.0266477384380683e+00  1.0251777856745989e+00  1.0278630774620106e+00  1.0337370371873185e+00  1.0562655156062899e+00  1.0299230435974687e+00  1.0198240910859089e+00  1.0222047102118439e+00  1.0326951137091782e+00  1.0361998733702131e+00  1.0402236675341632e+00  1.0338309697853720e+00  1.0418545523972917e+00  1.0321005804895707e+00  1.0288949018257811e+00  1.0371246001792025e+00  1.0578296856185971e+00  1.0755515398087090e+00  1.0309108553108550e+00  1.0285499487926972e+00  1.0239652830369690e+00  1.0257459179961539e+00  1.0294947900020046e+00  1.0435842747878308e+00  1.0605498929283812e+00  1.0597152965842265e+00  1.0456341632066348e+00  1.0603786308538186e+00  1.0644906670097740e+00  1.0378548812441730e+00  1.0393794063956825e+00  1.0480126607930127e+00  1.0566832452045865e+00  1.0802708725377992e+00  1.0817934241144254e+00  1.0357050093031617e+00  1.0339791833425542e+00  1.0282807883736036e+00  1.0339282526182219e+00  1.0314106838357227e+00  1.0450971234934672e+00  1.0596774634572073e+00  1.0667494774264308e+00  1.0790588190379002e+00  1.0703103781728207e+00  1.0586022104753152e+00  1.0593711099391161e+00  1.0531628656125540e+00  1.0451648770395467e+00  1.0417044569801819e+00  1.0496478025016895e+00  1.0744574269292990e+00  1.0870163337918088e+00  1.0852450948301822e+00  1.0471171115981976e+00  1.0409219487691390e+00  1.0410800478042750e+00  1.0298901844990673e+00  1.0641976784419784e+00  1.0710955456766644e+00  1.0747940389614536e+00  1.0544860184755451e+00  1.0526960025859222e+00  1.0412027210928996e+00  1.0271922413174086e+00  1.0649716226387078e+00  1.0666952422466451e+00  1.0795705392719726e+00  1.0589669000185036e+00  1.0511800067237074e+00  1.0610562409683368e+00  1.0737036518597796e+00  1.0528185101363758e+00  1.0677740255296881e+00  1.0862020947741364e+00  1.0962905743843705e+00  1.0999482214024490e+00  1.0423487419694151e+00  1.0816411311380458e+00  1.0708711131037763e+00  1.0756136967767074e+00  1.0728760653755955e+00  1.0853566104242609e+00  1.0593447766127482e+00  1.0507189939591459e+00  1.0512111129986144e+00  1.0522185910427282e+00  1.0675432885087015e+00  1.1165722237190132e+00  1.1292532068862968e+00  1.0853250947094024e+00  1.0715055698102969e+00  1.0814737074876559e+00  1.0907179425320861e+00  1.0998424996152190e+00  1.0920978175769405e+00  1.0872802071423331e+00  1.0806264080039947e+00  1.0623376626803553e+00  1.0555150882361299e+00  1.0324279065567175e+00  1.0221211634672069e+00  1.0761367643302413e+00  1.0812597562768753e+00  1.0812576542671184e+00  1.0808594342732722e+00  1.0812680238265799e+00  1.0680694506986572e+00  1.1054435187855176e+00  1.0862203163356750e+00  1.1557128712043820e+00  1.0697245858554081e+00  1.0840489376704450e+00  1.0764897002579568e+00  1.0473131844269132e+00  1.0302972605823462e+00  1.0233162446884303e+00  1.0564650536529920e+00  1.2678072951016532e+00  1.3024973031428329e+00  1.2220223924230047e+00  1.1004077860245554e+00  1.0978977109976866e+00  1.1002120368375976e+00  1.1044874358017043e+00  1.0985624559879374e+00  1.1074213402560080e+00  1.0864666812382757e+00  1.0854657850647778e+00  1.0924793296973785e+00  1.0726426562751150e+00  1.0511841023498352e+00  1.0389270670403539e+00  1.0305507542016443e+00  1.0299163091347776e+00  1.0267474524095752e+00  1.0879306246647624e+00  1.0816923961432794e+00  1.0823293806875898e+00  1.1000417862001517e+00  1.1294976830319809e+00  1.1665904619033938e+00  1.2717851111053202e+00  1.2393994559173547e+00  1.2973512471334121e+00  1.3384522331903388e+00  1.3344894837134458e+00  1.2926485546151913e+00  1.2050333333283079e+00  1.1369084627670984e+00  1.1214935313342678e+00  1.1443466299839680e+00  1.1214490913086239e+00  1.1439317128503150e+00  1.1335428157816458e+00  1.1490681654682551e+00  1.0720350624266037e+00  1.0801005491752274e+00  1.0643918587426784e+00  1.0466486687617316e+00  1.0405267963348017e+00  1.0359670110549990e+00  1.0289734449661414e+00  1.0709421994400217e+00  1.0824114293966001e+00  1.1004064855764102e+00  1.0849295571149704e+00  1.0930067607131404e+00  1.1585894435734014e+00  1.2195251346154505e+00  1.2566288458496302e+00  1.2266396506109609e+00  1.2348868304530396e+00  1.3161159405295557e+00  1.3801706066204658e+00  1.3205304929511026e+00  1.2537135095879672e+00  1.1834349912956161e+00  1.2170052895554060e+00  1.2114714596262461e+00  1.1798344129084604e+00  1.2009009058388784e+00  1.1878154053751089e+00  1.2053069728749557e+00  1.0723616426209546e+00  1.0732924706295668e+00  1.0690829090046157e+00  1.0598565175906778e+00  1.0530023941121593e+00  1.0413178055261090e+00  1.0316220988343714e+00  1.0652265286446163e+00  1.0834257456550491e+00  1.1269882074878912e+00  1.1008363779609482e+00  1.1115009476658082e+00  1.1726015463441459e+00  1.1725409555061908e+00  1.2043396290018078e+00  1.2433341769035755e+00  1.2790882010068862e+00  1.2836410220767120e+00  1.2708154566446965e+00  1.5470718300299424e+00  1.5330968324565608e+00  1.3863786830019902e+00  1.4335123432657066e+00  1.4850737687972708e+00  1.2876206732872086e+00  1.3045734487070726e+00  1.2646364693542853e+00  1.2388585823813989e+00  1.2848624020758148e+00  1.3716652692281421e+00  1.0755087221389195e+00  1.0829539612811883e+00  1.0808687425080128e+00  1.0581479177393274e+00  1.0504075122251966e+00  1.0387357564431015e+00  1.0755516422480831e+00  1.0696249839431595e+00  1.0719601643284433e+00  1.0913879710654453e+00  1.1601573273089312e+00  1.1579580724607053e+00  1.1103290958914831e+00  1.1302985023661614e+00  1.2090432454668010e+00  1.2180679414262319e+00  1.1998250967202229e+00  1.2277964288603962e+00  1.2819701860449368e+00  1.2836250335654105e+00  1.4038344519079857e+00  1.4607190002910349e+00  1.5341814568968006e+00  1.4831129038136224e+00  1.4777482802434987e+00  1.5517641665336885e+00  1.4929928464073483e+00  1.4408374870150809e+00  1.5378767786639298e+00  1.4525912984733020e+00  1.3642313179620333e+00  1.2923548800788780e+00  1.3016571379392947e+00  1.4302590975202203e+00  1.4942663258594155e+00  1.0733468343959771e+00  1.0913575731793166e+00  1.1158394274906720e+00  1.1113862081150758e+00  1.0800078241955273e+00  1.0894021628299031e+00  1.1317145829967983e+00  1.1583970685188318e+00  1.1846261711760615e+00  1.1309295310899650e+00  1.1084353670253795e+00  1.0672578650557374e+00  1.0496372523684934e+00  1.0486217248390519e+00  1.0439673494071791e+00  1.2312412209355046e+00  1.3822148034079087e+00  1.2667003442314333e+00  1.2803372845330254e+00  1.4725634801008649e+00  1.6101414250345245e+00  1.4565932820507708e+00  1.4843017823565439e+00  1.5939865344837816e+00  1.5854087494651725e+00  1.4656456434161245e+00  1.5034827141356590e+00  1.4076877134696586e+00  1.3983958054164345e+00  1.4808670919327289e+00  1.4358420518431978e+00  1.5202843815175942e+00  1.3940491309558509e+00  1.3269773668135609e+00  1.3717700373126780e+00  1.4337473824296083e+00  1.1226513540990346e+00  1.0960384577633993e+00  1.0699006925098757e+00  1.0523343547944675e+00  1.0487402427644188e+00  1.0449289935781252e+00  1.0413034787719913e+00  1.0363329155124636e+00  1.1185035960477479e+00  1.0872809639697361e+00  1.1157342155207481e+00  1.1451766025823171e+00  1.1676139424494905e+00  1.4290114382669394e+00  1.4839572622507500e+00  1.3599488834224402e+00  1.3686445123041069e+00  1.4243756285346609e+00  1.5600713434034348e+00  1.5470173996051473e+00  1.5173491838178743e+00  1.7207540700963695e+00  1.8955770806253700e+00  2.0386947083983555e+00  1.6646905714183564e+00  1.5337768934532059e+00  1.5025280973433621e+00  1.5067739848790924e+00  1.4831346072316860e+00  1.4083931590444907e+00  1.5195402814586974e+00  1.5756762021512123e+00  1.5716322974168475e+00  1.4653945951190306e+00  1.4365588674974963e+00  1.5346876200607313e+00  1.1072143726448924e+00  1.1097045373524499e+00  1.0921679445804460e+00  1.1242136477456688e+00  1.1606372674274676e+00  1.1903915721337213e+00  1.2593962816967521e+00  1.2765781920761634e+00  1.3456950198344324e+00  1.4112494888114231e+00  1.4131824436652758e+00  1.6324555862735057e+00  1.5990131091400150e+00  1.7454218323841872e+00  1.6282924632490350e+00  1.7878946513166165e+00  1.5513984938428207e+00  1.0778213012046058e+00  1.0636869669699291e+00  1.0588304718401738e+00  1.0515309471749195e+00  1.0505102025575312e+00  1.0368132826736183e+00  1.0312232765142046e+00  2.2131114025364411e+00  2.4056768070578980e+00  1.8042683491691569e+00  1.5872460075571564e+00  1.5130180461784717e+00  1.5313246587845872e+00  1.5354735162472732e+00  1.1108462001256809e+00  1.1237718346975152e+00  1.0848715733013938e+00  1.0645420800287613e+00  1.0581920913626781e+00  1.0552909838509024e+00  1.0534557356828744e+00  1.0473197280216135e+00  1.0382581187950208e+00  1.0295008572951254e+00  1.1159401702247995e+00  1.1686170695520333e+00  1.2049421948904266e+00  1.2066674925811414e+00  1.3135184705833662e+00  1.4045786762778429e+00  1.4627888718284461e+00  1.5684768340202608e+00  1.6078982613324682e+00  1.8541915458719993e+00  1.8273163168526478e+00  1.6970323578691682e+00  1.7224106363075180e+00  2.2200675537820138e+00  2.2257499791270967e+00  1.8100855913446847e+00  1.1518214816804213e+00  1.1347513429541882e+00  1.1314396992803131e+00  1.1154854457971837e+00  1.0750338636390724e+00  1.0663917463263834e+00  1.0535281096791325e+00  1.0493743813688983e+00  1.0373351577508341e+00  1.0335623963775153e+00  1.0348400242432689e+00  1.0323718710659113e+00  1.2149726629685780e+00  1.2068607824233115e+00  1.1889929632286127e+00  1.2841960292598493e+00  1.3596916483263439e+00  1.5600426025144611e+00  1.6515757572111622e+00  1.9637377398064335e+00  1.9239640489577836e+00  1.6736286338843254e+00  1.7334878634531730e+00  1.8070414866151863e+00  1.8135772648824240e+00  1.1687279670998278e+00  1.2459078073417695e+00  1.1820850933031095e+00  1.2040946369133918e+00  1.2940671872221858e+00  1.4071011709634185e+00  1.5505980228178917e+00  1.7575284412160603e+00  1.6780984075312428e+00  1.7904597058811504e+00  2.0076620392441491e+00  1.8813837454514712e+00  1.8059508644077149e+00  1.7730178286161891e+00  1.1685173217530889e+00  1.1468273356218881e+00  1.1453034050035924e+00  1.1085157101697600e+00  1.0884199920105382e+00  1.0620491580471660e+00  1.0464966350934435e+00  1.0380359940798820e+00  1.0290657601275355e+00  1.0290968340250983e+00  1.0278142671072350e+00  1.0326908992571597e+00  1.0523025175590606e+00  1.2350580787476890e+00  1.2123698941077226e+00  1.2344388438310054e+00  1.3189997601829904e+00  1.3540057299903276e+00  1.7492286857480615e+00  1.9418592458141490e+00  1.7971134545681660e+00  2.0912943800716666e+00  2.3785793239089212e+00  2.2114467381221141e+00  1.1821238590996255e+00  1.1705805234898377e+00  1.1669104656649871e+00  1.1430400711873034e+00  1.1113653276508331e+00  1.0920080681084769e+00  1.0692395411992068e+00  1.0456474274620329e+00  1.0370745715482015e+00  1.0333012747388719e+00  1.0288130134572968e+00  1.0272716344823931e+00  1.0314314946890479e+00  1.0265238698810810e+00  1.2379692026908236e+00  1.1957230670234567e+00  1.1761307997321766e+00  1.1697690819472801e+00  1.1893404341846319e+00  1.1594126513339220e+00  1.0983172603656881e+00  1.0572027065285852e+00  1.0424155610592385e+00  1.0349661255107929e+00  1.0327289401075421e+00  1.0339344483671602e+00  1.0318743670520909e+00  1.0297951341166995e+00  1.0298697173594640e+00  1.3620002016620767e+00  1.4280279196594774e+00  1.3976303533786993e+00  1.6911405249726648e+00  1.8568997131775420e+00  1.9228609235555025e+00  2.8626059702984175e+00  3.0350702960738176e+00  2.2194975707623237e+00  1.2281240133206597e+00  1.2334072114162367e+00  1.1886192906694755e+00  1.2014519159186998e+00  1.2305648321397322e+00  1.1957960973611335e+00  1.1452808774788257e+00  1.1050153894662509e+00  1.0611398439575759e+00  1.0556693366679979e+00  1.0438428477410628e+00  1.0357519958436905e+00  1.0284692561127375e+00  1.0279048759303020e+00  1.0294074308188568e+00  1.0305001623033536e+00  1.0243134338743916e+00  1.0246612837616154e+00  1.0319363217466386e+00  1.3762708465609750e+00  1.3952702137883046e+00  1.4587221982323002e+00  1.4920012477466329e+00  1.5965236265731120e+00  1.7578578355752534e+00  2.9948715240825421e+00  4.2944900814378748e+00  4.0606311794348597e+00  1.1828373327786545e+00  1.1953157562868300e+00  1.1537470402787140e+00  1.1737525806963027e+00  1.1406782625616889e+00  1.1005324346487888e+00  1.0683890398558555e+00  1.0535016883201465e+00  1.0486613100446738e+00  1.0475459878189051e+00  1.0324915586934806e+00  1.0277815869906657e+00  1.0264610411561197e+00  1.0287489998200274e+00  1.0304871865868817e+00  1.0234193526736011e+00  1.0187656244994556e+00  1.2732601170263447e+00  1.2838228347799370e+00  1.3703816402113105e+00  1.5581749472672333e+00  1.5484070903626450e+00  1.6705183015490952e+00  2.7830878998565161e+00  4.0681838593783084e+00  2.9061399835486386e+00  2.6364827017863872e+00  1.2083056970579755e+00  1.2009425509995306e+00  1.2477164940535235e+00  1.2688943450870556e+00  1.3635760422059380e+00  1.6339628641362596e+00  1.7756654081993826e+00  2.2981617912976740e+00  2.7109445974927922e+00  2.4460437876730845e+00  1.9004764943613794e+00  1.8593602557107998e+00  1.1919461970179763e+00  1.1279032561822278e+00  1.1240994115143128e+00  1.1206938713767767e+00  1.0897587328977136e+00  1.0629831617944661e+00  1.0661503348071006e+00  1.0483601840247332e+00  1.0413547885127854e+00  1.0494589177764206e+00  1.0406893799693067e+00  1.0359111432476957e+00  1.0324966485461859e+00  1.0239858185957618e+00  1.0244436170290931e+00  1.0218123091580513e+00  1.0185145326338190e+00  1.0169616407220847e+00  1.0321340802319812e+00  1.2170944640751884e+00  1.2403306521108632e+00  1.1614175029634539e+00  1.1026671579510929e+00  1.0951715741343999e+00  1.0705805072858940e+00  1.0469335338818917e+00  1.0443246793653953e+00  1.0358051513240145e+00  1.0333323923622013e+00  1.0373496765984631e+00  1.0350641956207995e+00  1.0356843671633447e+00  1.0292098845223587e+00  1.0266626375770531e+00  1.0234083715141655e+00  1.0222952689949305e+00  1.0208061257756886e+00  1.0161711191215481e+00  1.0153877112812946e+00  1.2756784971790320e+00  1.2826117671661843e+00  1.3911218350498145e+00  1.3741099237091012e+00  1.5134697088265070e+00  1.6614920783158889e+00  1.7647080404752788e+00  1.9994789969280919e+00  2.0585727434287602e+00  2.0500890485136978e+00  1.8229813798937251e+00  1.7016964414696787e+00  1.5650057417302794e+00  1.1776979145443247e+00  1.1824889952332152e+00  1.2403756808412705e+00  1.3491392576275072e+00  1.4403757102357857e+00  1.4469341304290504e+00  1.4810132791023718e+00  1.7697796106996024e+00  2.0437255386387516e+00  1.9459314330789297e+00  1.8283508125453858e+00  1.8788844650320924e+00  1.8544401814455873e+00  1.9113882231306303e+00  1.9525754405186353e+00  1.6480971078898872e+00  1.5697571247921736e+00  1.1054378127018114e+00  1.1301143277810468e+00  1.0849078966298911e+00  1.0629991850271812e+00  1.0527610469041200e+00  1.0397396300689441e+00  1.0344922732643957e+00  1.0346698800475838e+00  1.0377266844173576e+00  1.0322560262350908e+00  1.0321017874983727e+00  1.0308055166724446e+00  1.0282228226817764e+00  1.0260547357969256e+00  1.0239341587443116e+00  1.0227543077217565e+00  1.0219444443407770e+00  1.0204071547333560e+00  1.0172437034374517e+00  1.0155040802787290e+00  1.1365717662865693e+00  1.1557307713600975e+00  1.1992707569892915e+00  1.2265997263370936e+00  1.2644441560688542e+00  1.3906857388156264e+00  1.3828677771108830e+00  1.4109581331573082e+00  1.4891641244612970e+00  1.6777399714431696e+00  1.6165827798996184e+00  1.7366123022376008e+00  1.6896087374646218e+00  1.8722855361825945e+00  1.8820322555876576e+00  1.6363325551977621e+00  1.3699820472588211e+00  1.0992623924404790e+00  1.0762416892021216e+00  1.0804286337783355e+00  1.0469880783015795e+00  1.0364170354288862e+00  1.0391053427452552e+00  1.0449320248813940e+00  1.0447223235595740e+00  1.0337585812904533e+00  1.0353322351967114e+00  1.0271448705225867e+00  1.0275362653224476e+00  1.0239618235654546e+00  1.0219192513250235e+00  1.0198451220435574e+00  1.0189163441002060e+00  1.0169757044070951e+00  1.1205145632840565e+00  1.1133182872336642e+00  1.1379089958931310e+00  1.1656036202161841e+00  1.1942607888880048e+00  1.1945010225716133e+00  1.2472312300575543e+00  1.3212006018229523e+00  1.3730047880513510e+00  1.4262807935468838e+00  1.4726364799084148e+00  1.4409245113637583e+00  1.3876461664787159e+00  1.4347798966308463e+00  1.5378926630781029e+00  1.4986113467477802e+00  1.5261081406116948e+00  1.3575601037164633e+00  1.3015293214962278e+00  1.0971584642852561e+00  1.0672454870961434e+00  1.0618248001394535e+00  1.0457990624262514e+00  1.0457931362745783e+00  1.0417575085016806e+00  1.0349736673689900e+00  1.0303014062041105e+00  1.0250475918926183e+00  1.0252943715800489e+00  1.0244323594386373e+00  1.0185634548531211e+00  1.0164744021771921e+00  1.0193279138674656e+00  1.0189151920465165e+00  1.0971948407241223e+00  1.1275388145736065e+00  1.1402227941440735e+00  1.1286986328012900e+00  1.0993771552853777e+00  1.0679244836625492e+00  1.0612817342336136e+00  1.0630979635294706e+00  1.0592151404732157e+00  1.0593970597148958e+00  1.0582843338676153e+00  1.0462991461382127e+00  1.0425997734443628e+00  1.0350869108340910e+00  1.0304475040009031e+00  1.0241793473996015e+00  1.0238215491626690e+00  1.0284139823759930e+00  1.0210929998328191e+00  1.0160324836287233e+00  1.0140730799307665e+00  1.0137193721610012e+00  1.0161887079807639e+00  1.1525517231792204e+00  1.1757870098108874e+00  1.1658297930694927e+00  1.1891784741970197e+00  1.2086364915577457e+00  1.2303553057392225e+00  1.2885781656945174e+00  1.3263093546607347e+00  1.3545075691183217e+00  1.3465201271525640e+00  1.3100235927030068e+00  1.2775902701694073e+00  1.3212761418602572e+00  1.4162116310857880e+00  1.4125539230257114e+00  1.3476050822062693e+00  1.3131210660855626e+00  1.0283882987248154e+00  1.1334448128737218e+00  1.0824827398435937e+00  1.0523277638819246e+00  1.0493708794470218e+00  1.0516672484300016e+00  1.0500409613600601e+00  1.0488018926870999e+00  1.0464170020261705e+00  1.0513065586426700e+00  1.0516587717718280e+00  1.0426359844828348e+00  1.0358793833733639e+00  1.0269167016207117e+00  1.0195654410615154e+00  1.0195082157753668e+00  1.0191589817984434e+00  1.0223811377211021e+00  1.0197450420255145e+00  1.0205257098305474e+00  1.0160715620066454e+00  1.0136893197100034e+00  1.0123520048505004e+00  1.0129129996715724e+00  1.1449483261389735e+00  1.1353194074315580e+00  1.1164256006757620e+00  1.1524537953608027e+00  1.1768051800670478e+00  1.1884078070611779e+00  1.2158338364926760e+00  1.2486040934859655e+00  1.3195641590322620e+00  1.3285126679910453e+00  1.3109010739585458e+00  1.2640382548756446e+00  1.2583544198051597e+00  1.2951332770206547e+00  1.4829621098947277e+00  1.4567877711328920e+00  1.3978943258915622e+00  1.3664314145741254e+00  1.1094766406930778e+00  1.0923928657634012e+00  1.1116694223794552e+00  1.1042040208040156e+00  1.0896508490362060e+00  1.1133794483719333e+00  1.1463654348293244e+00  1