<?xml version="1.0"?>
<VTKFile type="UnstructuredGrid"  version="0.1"  >
<UnstructuredGrid>
<Piece  NumberOfPoints="1237" NumberOfCells="2335">
<Points>
<DataArray  type="Float64"  NumberOfComponents="3"  format="ascii">-1 3.09081664739187e-17 0  -0.9843750000000001 0.02706329386826373 0  -0.9586042096960951 -0.0236073080308172 0  -0.9687500000000001 -0.05412658773652738 0  -0.9687499999999999 0.05412658773652741 0  -0.9472957560052226 0.006184170637571083 0  -0.9267582714381279 -0.04141318421241193 0  -0.9316799261084423 -0.07502217834255943 0  -0.9375000000000001 -0.1082531754730548 0  -0.9304535526187879 0.02123269309792843 0  -0.9155919293475937 -0.02097532195701668 0  -0.8901898660228655 -0.05879793213392052 0  -0.8961407092258983 -0.08791682354371629 0  -0.9041593017321125 -0.1150769371767221 0  -0.9062500000000001 -0.1623797632095822 0  -0.9531250000000001 0.08118988160479108 0  -0.890147330991285 -0.0122086527191084 0  -0.8576709175674995 -0.04850009197978337 0  -0.8494979525438807 -0.09201284187231788 0  -0.8688087259335305 -0.1227339854926646 0  -0.8657397003544938 -0.1744307530448399 0  -0.875 -0.2165063509461097 0  -0.9191385500632976 0.05668682295204934 0  -0.9374999999999999 0.1082531754730548 0  -0.8414732086268925 -0.02979075402072296 0  -0.8838615846104741 0.03281364894932847 0  -0.9025993020289615 0.08399522279934024 0  -0.9218749999999999 0.1353164693413185 0  -0.8069091517126806 -0.1063797548106189 0  -0.8227041474082361 -0.1554136366367828 0  -0.8450362008579381 -0.1636153151676399 0  -0.824611073526637 -0.2087806554713395 0  -0.8432447828874938 -0.2299625171474235 0  -0.8437500000000001 -0.270632938682637 0  -0.8074688489602485 -0.04534311577063995 0  -0.7748599739446962 -0.09147609870793595 0  -0.7599743974004342 -0.1515693530204255 0  -0.7874243887323827 -0.1486997295560047 0  -0.7740096897566618 -0.1902442517032015 0  -0.7982566063220082 -0.2018609305277571 0  -0.7939958243211587 -0.243248178868526 0  -0.8033953092403587 -0.2739516347679044 0  -0.8125000000000002 -0.3247595264191645 0  -0.8481685757897792 0.03463580614500975 0  -0.8763526826359844 0.09829521691979071 0  -0.9062500000000001 0.1623797632095823 0  -0.7872217742390745 -0.03024195936296309 0  -0.7565548600439893 -0.06556774174670035 0  -0.7280367863186943 -0.1046281989307924 0  -0.7428557301118698 -0.1326576576268934 0  -0.7130575397441211 -0.2080743084118526 0  -0.7425045269468755 -0.2040970945489534 0  -0.7674851701419854 -0.2290293682917657 0  -0.7599986833552189 -0.2682349390602705 0  -0.7616526459078594 -0.3305135978123668 0  -0.7812500000000001 -0.378886114155692 0  -0.816253599818404 0.01031925268654644 0  -0.8190007077644565 0.05195524742955143 0  -0.8424384387483641 0.09512493014350837 0  -0.8689593925676488 0.1377994471097691 0  -0.890625 0.1894430570778459 0  -0.7410175419981699 -0.05005547045971393 0  -0.6820539222728559 -0.1168108160858607 0  -0.6757831681120814 -0.161343132024619 0  -0.7066615444436462 -0.1644905737066079 0  -0.6637898688950368 -0.220644916152676 0  -0.6744004859163939 -0.2587362859831477 0  -0.7325446303104611 -0.2447371505997974 0  -0.7216022609970536 -0.292027783035909 0  -0.7407903637588057 -0.3123505827564781 0  -0.7035881363438097 -0.356533874799312 0  -0.7288120197725808 -0.392133095104917 0  -0.75 -0.4330127018922193 0  -0.7897359628532806 0.006725954256448229 0  -0.7972623766874077 0.06341714755367762 0  -0.8304362309430872 0.1129567769931919 0  -0.8421684945059275 0.1611058176776091 0  -0.8750000000000001 0.2165063509461097 0  -0.7637447900489446 0.0084055150883772 0  -0.7027910536312951 -0.05387662733901926 0  -0.6399011514174923 -0.1176136647146791 0  -0.6199508075525719 -0.1685360793359413 0  -0.6333977552331249 -0.1967451137076092 0  -0.619216095826812 -0.2480485729726879 0  -0.6276040039072337 -0.2883488704175591 0  -0.6261231993592246 -0.3335289324385786 0  -0.6865068439078151 -0.2949080438254524 0  -0.6907604947283688 -0.3285687191624082 0  -0.6650087872471667 -0.3699552850214223 0  -0.6798435707998647 -0.4026405874050478 0  -0.7050830176678921 -0.447022367558788 0  -0.7187499999999999 -0.4871392896287467 0  -0.7723498686347566 0.07044317118097282 0  -0.8017262003913778 0.122128289958322 0  -0.8169126563784805 0.1693170073489986 0  -0.8593750000000001 0.2435696448143733 0  -0.7259809026153086 0.008482836968837627 0  -0.6740418109022589 -0.02450688559989462 0  -0.7223115334823216 0.04936346203485886 0  -0.7572899881178878 0.1097950588389946 0  -0.7734646598732114 0.1561617258837397 0  -0.8083562768108126 0.2049421991290764 0  -0.84375 0.270632938682637 0  -0.6660887510003569 -0.06759964205641175 0  -0.6171961871067949 -0.09908864551504318 0  -0.5833829368075305 -0.1731805645520128 0  -0.5851671105835449 -0.224515763015499 0  -0.5727138940289876 -0.2779087493001106 0  -0.5801058985757366 -0.3174797115370438 0  -0.57948544680462 -0.3632267691333948 0  -0.6267964734590343 -0.3775121834136309 0  -0.6398433230386719 -0.4169421315431633 0  -0.6616426493335408 -0.4488274832297308 0  -0.6803761222242836 -0.4915582867438201 0  -0.6875 -0.5412658773652741 0  -0.6566148164134606 -0.3360342982328451 0  -0.6542800869698886 0.003633874519227934 0  -0.6158214682809207 -0.05883418227773253 0  -0.5750967197363078 -0.0918766710651954 0  -0.5702619644256461 -0.1314570888217494 0  -0.5310796517017504 -0.1985334532999667 0  -0.5379237787887492 -0.2420866834293268 0  -0.5516118004787688 -0.2643356959406811 0  -0.5219299366261414 -0.3074188372821275 0  -0.5441569679299709 -0.3203940814531961 0  -0.544846265790987 -0.3611331944285065 0  -0.5114751055162018 -0.4066686830605467 0  -0.5298500409650213 -0.4384707797967484 0  -0.5794737256993363 -0.4086737180861368 0  -0.6054298025247353 -0.4197528954248557 0  -0.592710431245361 -0.4609848902618885 0  -0.6134133603589965 -0.4927681039827594 0  -0.6393590131426583 -0.5198261223711328 0  -0.6438736370520471 -0.5600300692022314 0  -0.65625 -0.5953924651018015 0  -0.6961199877549025 0.06467019448070167 0  -0.7322688722710476 0.1241970790870847 0  -0.7614677067674487 0.1843417562313635 0  -0.7982098286578407 0.241597904092872 0  -0.828125 0.2976962325509007 0  -0.6121569899603913 -0.02049935287448479 0  -0.5680093344887456 -0.06210558644879417 0  -0.5296938028141881 -0.1373067408269198 0  -0.4901525291003586 -0.1955789237044915 0  -0.4746183446720159 -0.2428634803524866 0  -0.4858590591960716 -0.2715088080329482 0  -0.4715952226353661 -0.3270718944547512 0  -0.4874270099800481 -0.3483793786947822 0  -0.480078652051836 -0.4044778124091272 0  -0.5107966792581313 -0.3607592194079098 0  -0.6351984073276686 0.03037645136060999 0  -0.6919512395101405 0.1148619971399276 0  -0.7371035741994222 0.1934824949257085 0  -0.7677243675294183 0.2452436239691324 0  -0.8125000000000001 0.3247595264191646 0  -0.5070956227453038 -0.2856926586873541 0  -0.4592753826052925 -0.4489578951960593 0  -0.4551538480224278 -0.4879280476876971 0  -0.4870834355975865 -0.4924138429753193 0  -0.5543645851211818 -0.4600201827899537 0  -0.5636063113133203 -0.5062314567180716 0  -0.5722394951023636 -0.540723915347752 0  -0.6004398475588687 -0.5639514773360513 0  -0.6165119354103209 -0.6003123312214718 0  -0.625 -0.6495190528383291 0  -0.5850968043587489 -0.01747042289921243 0  -0.5715475053296581 0.003755875240688324 0  -0.632542541699327 0.08118252107995054 0  -0.6715186710197373 0.1292199759178416 0  -0.6982974014086432 0.1789827939308964 0  -0.7309041627521532 0.2234419242184485 0  -0.760853516405614 0.2792464453234507 0  -0.7607023230601084 0.3093962646126385 0  -0.7968750000000001 0.3518228202874282 0  -0.5264933157473631 -0.08231084764042879 0  -0.493638060994832 -0.1339939179799725 0  -0.4589626054281711 -0.1957888821520802 0  -0.438352019728192 -0.2427967943470546 0  -0.4349603537871217 -0.2905998917905525 0  -0.4340727913783781 -0.3307406261902842 0  -0.3931940322566967 -0.3797355265396843 0  -0.4328932475453516 -0.4073381105917769 0  -0.415502513600294 -0.4580373266102869 0  -0.385415281901366 -0.511073437509846 0  -0.3881529845957117 -0.5477450464703199 0  -0.4322278898459536 -0.5328927439743946 0  -0.4708621541874918 -0.5447008496340244 0  -0.5212781730861482 -0.509033783025311 0  -0.5273194299998638 -0.5485603521097303 0  -0.5234826944144788 -0.5932528774620949 0  -0.5625853138775753 -0.5789028834579788 0  -0.5740199804033532 -0.6134996816985621 0  -0.5765847191201461 -0.6564593508420057 0  -0.59375 -0.7036456405748563 0  -0.5800862410227176 0.06953847272188511 0  -0.62345922728912 0.1087748024732029 0  -0.6592027535596012 0.1483415294528432 0  -0.7030117102084296 0.2220614128747072 0  -0.7211245865447338 0.2726260665754737 0  -0.7293612713284667 0.3214771290950779 0  -0.7890625000000001 0.3653544672215601 0  -0.5497332796675871 0.02526608106074905 0  -0.53018493643993 -0.01879708202667862 0  -0.5023738120312831 -0.06929095084794874 0  -0.4543086626793323 -0.1501783646722772 0  -0.4248556544311721 -0.2001778118037034 0  -0.3836034551939345 -0.2834399929263637 0  -0.3735195503155113 -0.3423773121212576 0  -0.3164083588907829 -0.4085503075097236 0  -0.3374441431234344 -0.4358308634994116 0  -0.3563643403403329 -0.4652367397589351 0  -0.3293009761387771 -0.5276556289563349 0  -0.3139040252508816 -0.5855140438576723 0  -0.366730554445017 -0.5948349816197472 0  -0.4217402740883738 -0.5900354366832488 0  -0.4753932323153703 -0.5864582514369745 0  -0.4778516850572023 -0.6318307895279576 0  -0.5087154203841168 -0.6499046400010015 0  -0.5448706663656597 -0.6492816546120687 0  -0.529090650986931 -0.6944022548983919 0  -0.5447409078977913 -0.7268187065901833 0  -0.5625000000000001 -0.7577722283113839 0  -0.5918572054463975 0.1338101643626165 0  -0.6347680448791199 0.1520640736039057 0  -0.6649299767989149 0.2164013530528183 0  -0.6741572651241856 0.2686102951723429 0  -0.6789476455262888 0.321375691006909 0  -0.7254508777365434 0.3530655186058727 0  -0.7812499999999999 0.3788861141556918 0  -0.5377716048704266 0.05272672813330151 0  -0.5104530844077947 -0.001526069099174808 0  -0.46319401157798
[...]
<PointData  Scalars="w"> 
<DataArray  type="Float64"  Name="w"  format="ascii">1.0019372229246062e+00  1.0017469488822308e+00  1.0017933122387015e+00  1.0018676328091283e+00  1.0015074156728749e+00  1.0016927588411866e+00  1.0018743370361891e+00  1.0018333306520764e+00  1.0018433837457617e+00  1.0018219121515524e+00  1.0021791336432186e+00  1.0025516148746034e+00  1.0022198425938222e+00  1.0020845088527508e+00  1.0023069007913685e+00  1.0015600312733484e+00  1.0031757383961064e+00  1.0039010515555813e+00  1.0036877286428445e+00  1.0026535427772592e+00  1.0026176174100767e+00  1.0025430126677555e+00  1.0019376804538702e+00  1.0018135957510836e+00  1.0042720749488803e+00  1.0032132601068400e+00  1.0022554446063030e+00  1.0023968993375416e+00  1.0044513391265053e+00  1.0033286027689916e+00  1.0030028573226755e+00  1.0027973044688945e+00  1.0027296818503171e+00  1.0031799873390606e+00  1.0042606367753679e+00  1.0042201975119547e+00  1.0038868230950679e+00  1.0037194097055240e+00  1.0034495514739084e+00  1.0032368193531978e+00  1.0034609990342516e+00  1.0039702011677494e+00  1.0059670226926167e+00  1.0042915889625803e+00  1.0029619380009465e+00  1.0033785699629056e+00  1.0043108528593370e+00  1.0046570082837587e+00  1.0050441931529188e+00  1.0043883584807463e+00  1.0053532507060641e+00  1.0041428942050399e+00  1.0036695040425538e+00  1.0044958540208255e+00  1.0060586637614441e+00  1.0077841818544353e+00  1.0042383455865154e+00  1.0039204236407495e+00  1.0033801125935966e+00  1.0038459084140097e+00  1.0044384692529305e+00  1.0054934804845634e+00  1.0072667321403008e+00  1.0072900463857486e+00  1.0057815402972816e+00  1.0074587978969280e+00  1.0078254876694284e+00  1.0047188693749998e+00  1.0045006036590507e+00  1.0051817834955530e+00  1.0059737638733637e+00  1.0082887079610316e+00  1.0084152716366155e+00  1.0046091747981447e+00  1.0045463057177060e+00  1.0039143501624259e+00  1.0048050092282539e+00  1.0045268541721337e+00  1.0057550965118029e+00  1.0074733782969907e+00  1.0077503121709299e+00  1.0095502476835445e+00  1.0085228161281732e+00  1.0072912111923173e+00  1.0074071602207622e+00  1.0063922697531469e+00  1.0052623236302132e+00  1.0045976310846134e+00  1.0056141040648729e+00  1.0080281951779484e+00  1.0090108739543189e+00  1.0087666528349351e+00  1.0062209561675155e+00  1.0053864361372677e+00  1.0054800994088080e+00  1.0043024770200635e+00  1.0081189278572078e+00  1.0084291478465399e+00  1.0091662377624904e+00  1.0068836878124785e+00  1.0067420227831709e+00  1.0055851729247389e+00  1.0040528677402276e+00  1.0077089438087932e+00  1.0078241524240394e+00  1.0103587174168951e+00  1.0074219179135653e+00  1.0065266624237537e+00  1.0079362416379676e+00  1.0090620467158800e+00  1.0064601240878950e+00  1.0083130957978952e+00  1.0093747627880749e+00  1.0101018433682500e+00  1.0104933300520973e+00  1.0049026760419704e+00  1.0095815682400682e+00  1.0084770296970469e+00  1.0094062105125758e+00  1.0094566349866363e+00  1.0124194177803461e+00  1.0080790601746514e+00  1.0065385649298635e+00  1.0066339506096238e+00  1.0068214158342224e+00  1.0090096511315751e+00  1.0165908907085519e+00  1.0168706456533667e+00  1.0105903789293582e+00  1.0090758075905966e+00  1.0100497280348673e+00  1.0102164937524596e+00  1.0107089797755735e+00  1.0101757147128225e+00  1.0100311707145897e+00  1.0096710878587540e+00  1.0077634420079842e+00  1.0071573639133284e+00  1.0045794864200075e+00  1.0033504862636087e+00  1.0091023730143442e+00  1.0101786625358451e+00  1.0110142940595999e+00  1.0112769982599479e+00  1.0111024740411527e+00  1.0090419193622784e+00  1.0141095558082553e+00  1.0119288584907700e+00  1.0228947003380278e+00  1.0097622304399734e+00  1.0099835007899609e+00  1.0093693263518702e+00  1.0061225496681792e+00  1.0042196603288736e+00  1.0035595930980556e+00  1.0073426583114260e+00  1.0416975573087117e+00  1.0476414961636922e+00  1.0319067671489628e+00  1.0122743653372459e+00  1.0118190052843861e+00  1.0125129821724719e+00  1.0130171568258306e+00  1.0127129463374724e+00  1.0140805579376950e+00  1.0107920053897363e+00  1.0112537874144960e+00  1.0115734783205379e+00  1.0091358601227580e+00  1.0066280349922729e+00  1.0051599789267927e+00  1.0043565662464191e+00  1.0043950688224474e+00  1.0040432826535710e+00  1.0118188666314927e+00  1.0116631788507295e+00  1.0120175563713592e+00  1.0145717156453635e+00  1.0177659582659597e+00  1.0226512343343006e+00  1.0398164559977685e+00  1.0347918284677924e+00  1.0468076115691802e+00  1.0580734048416400e+00  1.0568124251737874e+00  1.0468924804174922e+00  1.0300265807594231e+00  1.0181953498326497e+00  1.0167078999202666e+00  1.0228383516950539e+00  1.0180184397824803e+00  1.0213582468835332e+00  1.0194574894542419e+00  1.0214488515026179e+00  1.0099334844977523e+00  1.0109475869825137e+00  1.0083697085864569e+00  1.0061046766936206e+00  1.0056514519501343e+00  1.0052721352662017e+00  1.0043756693716448e+00  1.0097130120931506e+00  1.0112405098455091e+00  1.0131711076578576e+00  1.0119374061505815e+00  1.0133751675558700e+00  1.0234172593521331e+00  1.0319358313336733e+00  1.0460597000470886e+00  1.0413003756962755e+00  1.0430236483370066e+00  1.0670512499408256e+00  1.0735014416064541e+00  1.0577782809584664e+00  1.0418029969167564e+00  1.0273643120827698e+00  1.0366070189222121e+00  1.0352372198198019e+00  1.0281292312694899e+00  1.0323192189369439e+00  1.0289334609583811e+00  1.0305424224678725e+00  1.0105083972116398e+00  1.0096698891654547e+00  1.0089535237957201e+00  1.0082315494741538e+00  1.0075373903472920e+00  1.0060992893368301e+00  1.0047696216205546e+00  1.0090569590122120e+00  1.0111397072885226e+00  1.0155991943021647e+00  1.0130348320772251e+00  1.0149871364669281e+00  1.0254113163599408e+00  1.0266118338783217e+00  1.0328171212680788e+00  1.0453587900618531e+00  1.0580143890423741e+00  1.0578674951862814e+00  1.0599212782305603e+00  1.1021448397896714e+00  1.1667055369359136e+00  1.0882674244746409e+00  1.1030240368770279e+00  1.1013895731807890e+00  1.0543579889662820e+00  1.0578330036568406e+00  1.0476188630500418e+00  1.0391041529866214e+00  1.0461316772478877e+00  1.0564032445890927e+00  1.0103578714474826e+00  1.0110887616353539e+00  1.0108636245809617e+00  1.0084029775058154e+00  1.0074738525267406e+00  1.0058384084315835e+00  1.0104782980527509e+00  1.0097177159757031e+00  1.0098812555266232e+00  1.0124758621665522e+00  1.0199937752624000e+00  1.0193261599611205e+00  1.0142024717669256e+00  1.0189566425487440e+00  1.0332766433871461e+00  1.0386626103822254e+00  1.0342816072694465e+00  1.0431941233773532e+00  1.0603211925841378e+00  1.0607186594168019e+00  1.0816470262621538e+00  1.0799994905800856e+00  1.1213769049376654e+00  1.3152930304342454e+00  1.6119395905825029e+00  1.2752163025213386e+00  1.2272594313916541e+00  1.1263032610978427e+00  1.1296473611654492e+00  1.1042995148183854e+00  1.1023228433845753e+00  1.0488278511576494e+00  1.0615264726092246e+00  1.0965042865526788e+00  1.1031166426588628e+00  1.0097956756893478e+00  1.0121125171836753e+00  1.0147093692285576e+00  1.0146065220462481e+00  1.0108608822989167e+00  1.0124356071805842e+00  1.0175007553879154e+00  1.0221090887507578e+00  1.0290489793164739e+00  1.0176052777415752e+00  1.0140590826354601e+00  1.0093413318195157e+00  1.0075856047955059e+00  1.0073750642930028e+00  1.0066855186913093e+00  1.0367453221885323e+00  1.0659861169781988e+00  1.0514070075749793e+00  1.0607139254083819e+00  1.1237671753221863e+00  1.1806179681596813e+00  1.0874439189701446e+00  1.2976288522592090e+00  1.5115414519859174e+00  3.7330932464016207e+00  2.0830889540583688e+00  7.0649554769910603e+00  1.4726934791107718e+00  1.1740571397757722e+00  1.1605492390587451e+00  1.1625805757091381e+00  1.4429915367061898e+00  1.2652343423225731e+00  1.1373341859205306e+00  1.1919963767496693e+00  1.1896131078872050e+00  1.0157156199706181e+00  1.0136401750272386e+00  1.0097602876756535e+00  1.0078304372561702e+00  1.0076466007675082e+00  1.0071695750033751e+00  1.0064856506006872e+00  1.0056983950582552e+00  1.0161459749366728e+00  1.0123008182993982e+00  1.0165517814646359e+00  1.0211327558707093e+00  1.0262339777013834e+00  1.0722954432500218e+00  1.0888087104824353e+00  1.0844619705004241e+00  1.0698611074807882e+00  1.0706588232739676e+00  1.1739301244866811e+00  1.2278961598611131e+00  1.5910256452308500e+00  4.7828463378901338e+00  7.0267617303226331e+00  1.2530017080385646e+01  1.1792142699399731e+01  2.1546404350817031e+01  2.3467483123063385e+01  7.0049982361074710e+00  2.4357042363226475e+00  1.2629392088435853e+00  1.2634538011999856e+00  1.5040947878989455e+00  1.6242370481663291e+00  1.5549828483684882e+00  1.4135157887505718e+00  1.1502928589473636e+00  1.0143630595059578e+00  1.0150356022279390e+00  1.0136855828082378e+00  1.0184452304411795e+00  1.0239115255924573e+00  1.0293733646209051e+00  1.0443664355288023e+00  1.0510717593201759e+00  1.0656116311697850e+00  1.0868034764493686e+00  1.1015119025992630e+00  1.1923540788998033e+00  1.2106150932130650e+00  1.3728073851734266e+00  1.8429855909772737e+00  6.0591768827632935e+00  2.2889011627419529e+00  1.0108681976763561e+00  1.0095054389451656e+00  1.0085636380241503e+00  1.0078722934060664e+00  1.0080111484199001e+00  1.0059753203030473e+00  1.0050681480748374e+00  1.2893016854891417e+01  2.7943881193400522e+01  2.2832873811331869e+01  3.0707352508486633e+01  3.4224214543588801e+01  6.5626455981084968e+00  1.8002519009189777e+00  1.0156246614646089e+00  1.0175886885969692e+00  1.0119402975467038e+00  1.0095206921319126e+00  1.0090455507495908e+00  1.0084130160338176e+00  1.0083754590022251e+00  1.0075194993259295e+00  1.0061505638283901e+00  1.0048057588506063e+00  1.0171854708454138e+00  1.0245119366544628e+00  1.0300706554349455e+00  1.0361366971729284e+00  1.0663145483388381e+00  1.0968709759228985e+00  1.1201179361082072e+00  1.2002121692580450e+00  1.2611815313837476e+00  1.4518165272031389e+00  2.2014768770585964e+00  3.4518541279515360e+00  6.7672290509596476e+00  1.9962392804536925e+01  2.9536749360230832e+01  4.2033147641261962e+01  1.0218117265170268e+00  1.0197999572495160e+00  1.0186989858210151e+00  1.0161027352849887e+00  1.0111080833523749e+00  1.0104849360634607e+00  1.0084174193592643e+00  1.0077396323354701e+00  1.0059385952393183e+00  1.0053957032847902e+00  1.0056457754986068e+00  1.0051693608238343e+00  1.0308075776259669e+00  1.0343083937880415e+00  1.0394598182594745e+00  1.0642749653903796e+00  1.0878941942566236e+00  1.1757560593544689e+00  1.2753612493593323e+00  1.5087277792264335e+00  2.1611581596912548e+00  5.0396603731519827e+00  3.6666892113971596e+00  1.2285302723508964e+01  1.7771176692018905e+01  1.0248161623051624e+00  1.0379885878171460e+00  1.0375142564467874e+00  1.0491425356545834e+00  1.0781865872023839e+00  1.1184770780180715e+00  1.1784841968237625e+00  1.3030049103742372e+00  1.2739311427219429e+00  1.3622401338831029e+00  1.5694210165392297e+00  1.8337650906028677e+00  3.8927750076078480e+00  1.1814418177797005e+01  1.0261764579170463e+00  1.0211579433366740e+00  1.0200921271102854e+00  1.0159138275168396e+00  1.0140097803738342e+00  1.0098457238305101e+00  1.0072702337872392e+00  1.0060056477055592e+00  1.0046428144838910e+00  1.0046703759231239e+00  1.0044634106029360e+00  1.0051708403956157e+00  1.0081896875130318e+00  1.0383581369340094e+00  1.0387811803072950e+00  1.0535388015222835e+00  1.0914060690346867e+00  1.1064402200874550e+00  1.2596936645914996e+00  1.3866572071411323e+00  1.3177207938209214e+00  1.5208246405111034e+00  1.6713327917339320e+00  1.8875739538053264e+00  1.0315484905558772e+00  1.0252159784108050e+00  1.0244403952405836e+00  1.0204015363775132e+00  1.0164493444932785e+00  1.0138743922147218e+00  1.0111784540314945e+00  1.0073360188302365e+00  1.0058775903111590e+00  1.0052972300123832e+00  1.0045842399027352e+00  1.0043185135861328e+00  1.0049381716083521e+00  1.0042426248153775e+00  1.0420003976323708e+00  1.0358369746740552e+00  1.0318777576704583e+00  1.0270090814068804e+00  1.0286606850415236e+00  1.0229743202927810e+00  1.0143274386040291e+00  1.0089550551074216e+00  1.0068545477853204e+00  1.0056306991705268e+00  1.0052551836985144e+00  1.0054146040611907e+00  1.0050675946019167e+00  1.0046948435646079e+00  1.0046836409400963e+00  1.0848270952269634e+00  1.1185799547163751e+00  1.1264414177207251e+00  1.2386878637390260e+00  1.3323386302721802e+00  1.3885434087132043e+00  2.1697819841725354e+00  1.9616822516045145e+00  1.5592663310742951e+00  1.0441710727415570e+00  1.0493703448056766e+00  1.0371944297358302e+00  1.0337226335314558e+00  1.0352615869000528e+00  1.0320289756299879e+00  1.0205139864739143e+00  1.0147933875870907e+00  1.0093096915468065e+00  1.0085877689016616e+00  1.0069845904931016e+00  1.0057053882570917e+00  1.0045434688646349e+00  1.0045035502584136e+00  1.0047693563637468e+00  1.0048958917439654e+00  1.0039095270778216e+00  1.0039259128555926e+00  1.0051079913593777e+00  1.0903846999552438e+00  1.1095437968463706e+00  1.1464333669687812e+00  1.1768893319911748e+00  1.2449307140948005e+00  1.3241925153430081e+00  2.0233959041716041e+00  2.9665606515939484e+00  2.7317774728237696e+00  1.0362349432548139e+00  1.0336725389040637e+00  1.0259780967234222e+00  1.0280218499111733e+00  1.0206956711727326e+00  1.0147932948571696e+00  1.0106229654997854e+00  1.0085126818663201e+00  1.0077136721076088e+00  1.0075746578657490e+00  1.0051714192863441e+00  1.0044337529716030e+00  1.0042628693477338e+00  1.0046770108455776e+00  1.0050061788570062e+00  1.0038409858282060e+00  1.0030625532851349e+00  1.0635360673216772e+00  1.0726505031020914e+00  1.1026588974557310e+00  1.1858534149138129e+00  1.2226529064784808e+00  1.2896184408042102e+00  1.8706853895094198e+00  2.7976531269680613e+00  2.0783093477343373e+00  1.8927043240464199e+00  1.0442043193029988e+00  1.0388265217264727e+00  1.0531195674835552e+00  1.0650256888168816e+00  1.0987645625674847e+00  1.1913020330628050e+00  1.3222119605731639e+00  1.5884015277967343e+00  1.9146367751641271e+00  1.8089003661729766e+00  1.4861065059657583e+00  1.4482916003535571e+00  1.0325995057613970e+00  1.0206357245579851e+00  1.0209375591485481e+00  1.0197757569273298e+00  1.0148634251545117e+00  1.0103106605556891e+00  1.0104664521449975e+00  1.0078950212746629e+00  1.0066811408147731e+00  1.0078733479046866e+00  1.0064733801372161e+00  1.0056902021751390e+00  1.0051908295246124e+00  1.0039419661006475e+00  1.0040124204722642e+00  1.0036187776828642e+00  1.0030705503027160e+00  1.0027975548456494e+00  1.0051151821535647e+00  1.0468221739360930e+00  1.0447834989131555e+00  1.0261652762330788e+00  1.0168854437005428e+00  1.0159985859701623e+00  1.0118713069497787e+00  1.0078289560463600e+00  1.0073461365750076e+00  1.0057958351359781e+00  1.0053538781900271e+00  1.0059819626977311e+00  1.0055911617318400e+00  1.0056677618513870e+00  1.0047119277941556e+00  1.0043353992994279e+00  1.0038524711782084e+00  1.0037081856015808e+00  1.0034567407524373e+00  1.0027045443655231e+00  1.0025606165286680e+00  1.0584619459879541e+00  1.0624388546132046e+00  1.0809306858478234e+00  1.0952760680622200e+00  1.1436220608646337e+00  1.2008250431948562e+00  1.2807164420535553e+00  1.3733450337926842e+00  1.4057064035612412e+00  1.5442302753625852e+00  1.4550973157724758e+00  1.4147984611327602e+00  1.2972196534631102e+00  1.0325862872684433e+00  1.0361200534223352e+00  1.0493456798121892e+00  1.0661914030876509e+00  1.0947471468774623e+00  1.1044395787053944e+00  1.1202631915849921e+00  1.2280472188789560e+00  1.3508085434892412e+00  1.3047353127441095e+00  1.2773528545361399e+00  1.3533643799401238e+00  1.4641045408231590e+00  1.5196866479538809e+00  1.5568912321400605e+00  1.4043894127635914e+00  1.3578802347384717e+00  1.0176156889239525e+00  1.0218990790125990e+00  1.0141509172489063e+00  1.0105198065996652e+00  1.0087522357395515e+00  1.0065257857096135e+00  1.0055712138538238e+00  1.0054703766314446e+00  1.0058953261927621e+00  1.0051160791198037e+00  1.0050826146436742e+00  1.0048648255253840e+00  1.0044904590628976e+00  1.0042434738072323e+00  1.0039205169943544e+00  1.0037633758784104e+00  1.0036562156127267e+00  1.0034222897672045e+00  1.0029046746187646e+00  1.0026111056964941e+00  1.0236198316426961e+00  1.0291107520870972e+00  1.0377931943520100e+00  1.0397488770927881e+00  1.0484663467194304e+00  1.0802988328000138e+00  1.0777953742307400e+00  1.0934126282649250e+00  1.1261648921917669e+00  1.1899155029683808e+00  1.1920245462122765e+00  1.2621252192608852e+00  1.2940907548496048e+00  1.4532632422657357e+00  1.4953362253071942e+00  1.3971630093036518e+00  1.2046599830876452e+00  1.0161753938994318e+00  1.0127322265570773e+00  1.0132181125581501e+00  1.0075240201518820e+00  1.0057595583517727e+00  1.0059504575116924e+00  1.0068879967700612e+00  1.0068808467044608e+00  1.0052867451831600e+00  1.0054694355609024e+00  1.0043321496393103e+00  1.0044577997315434e+00  1.0039521391257635e+00  1.0036727321308376e+00  1.0033489969152862e+00  1.0031945263633206e+00  1.0028741039710667e+00  1.0202314725692183e+00  1.0186095920574612e+00  1.0229346656932405e+00  1.0278427633843179e+00  1.0314474840801970e+00  1.0321492193617927e+00  1.0444363501020255e+00  1.0588136335122336e+00  1.0756624874935812e+00  1.1007837693030338e+00  1.1381118247939843e+00  1.1382798878856903e+00  1.1398676733059916e+00  1.1910544449784326e+00  1.2542208354730444e+00  1.2869751360347395e+00  1.3133183655464500e+00  1.2474371727240940e+00  1.2773609694078754e+00  1.0160872175450273e+00  1.0104190714822430e+00  1.0094528658583897e+00  1.0069876284367738e+00  1.0069238992624607e+00  1.0065044666905616e+00  1.0055596023093996e+00  1.0047766422218336e+00  1.0040364897887348e+00  1.0041319172830558e+00  1.0040660731207549e+00  1.0031406844153061e+00  1.0028042750812189e+00  1.0032882512750374e+00  1.0032053715059981e+00  1.0153963924349794e+00  1.0203444787688745e+00  1.0222473201251332e+00  1.0204392411691932e+00  1.0153460351230172e+00  1.0105878635971028e+00  1.0099642089632828e+00  1.0099106229880712e+00  1.0090875349768436e+00  1.0090795638064169e+00  1.0088317493406267e+00  1.0070766368957391e+00  1.0065388765634740e+00  1.0056086893372036e+00  1.0050803929483605e+00  1.0039796104224765e+00  1.0039090091999665e+00  1.0046884623921530e+00  1.0035402336541157e+00  1.0027400534781410e+00  1.0024094270837967e+00  1.0023551767773784e+00  1.0027726873659837e+00  1.0230536453195755e+00  1.0268650173597356e+00  1.0260284726040141e+00  1.0307803815266405e+00  1.0336015144069748e+00  1.0386132974550768e+00  1.0547951115614627e+00  1.0697961080397689e+00  1.0880869689209669e+00  1.1020811623708946e+00  1.1105769227095144e+00  1.1031039310631123e+00  1.1375056950259781e+00  1.1916599435315149e+00  1.2900785122344225e+00  1.3811630847845227e+00  2.1834163509319278e+00  1.0045898021867541e+00  1.0198705892118449e+00  1.0120262330750607e+00  1.0082175898317329e+00  1.0077852943445702e+00  1.0080160606447182e+00  1.0076581155682378e+00  1.0074936761763973e+00  1.0070093090105547e+00  1.0077020687556715e+00  1.0077734273685284e+00  1.0064376105132735e+00  1.0056177087797447e+00  1.0044171783619245e+00  1.0032923993425107e+00  1.0032731991418071e+00  1.0032016069420640e+00  1.0037701346888039e+00  1.0033590516157285e+00  1.0035261575661754e+00  1.0027644680196153e+00  1.0023546294474690e+00  1.0021292619087785e+00  1.0022252318946376e+00  1.0201209153933852e+00  1.0195755837873743e+00  1.0175697904668444e+00  1.0237534563263426e+00  1.0267684464616107e+00  1.0305332258418776e+00  1.0376026030861498e+00  1.0452279763632879e+00  1.0645767645700501e+00  1.0634802529965246e+00  1.0884180720122463e+00  1.0798956266259592e+00  1.1091722807396112e+00  1.1536797404343697e+00  1.2537266563909080e+00  1.5848846731843589e+00  2.5991468633735431e+00  4.3686418875964392e+00  1.0152800240631599e+00  1.0128608706549593e+00  1.0159873216194424e+00  1.0148061942628885e+00  1.0133213059680235e+00  1.0175078919608080e+00  1.0224240161811262e+00  1