<?xml version="1.0"?>
<VTKFile type="UnstructuredGrid"  version="0.1"  >
<UnstructuredGrid>
<Piece  NumberOfPoints="1237" NumberOfCells="2335">
<Points>
<DataArray  type="Float64"  NumberOfComponents="3"  format="ascii">-1 3.09081664739187e-17 0  -0.9843750000000001 0.02706329386826373 0  -0.9586042096960951 -0.0236073080308172 0  -0.9687500000000001 -0.05412658773652738 0  -0.9687499999999999 0.05412658773652741 0  -0.9472957560052226 0.006184170637571083 0  -0.9267582714381279 -0.04141318421241193 0  -0.9316799261084423 -0.07502217834255943 0  -0.9375000000000001 -0.1082531754730548 0  -0.9304535526187879 0.02123269309792843 0  -0.9155919293475937 -0.02097532195701668 0  -0.8901898660228655 -0.05879793213392052 0  -0.8961407092258983 -0.08791682354371629 0  -0.9041593017321125 -0.1150769371767221 0  -0.9062500000000001 -0.1623797632095822 0  -0.9531250000000001 0.08118988160479108 0  -0.890147330991285 -0.0122086527191084 0  -0.8576709175674995 -0.04850009197978337 0  -0.8494979525438807 -0.09201284187231788 0  -0.8688087259335305 -0.1227339854926646 0  -0.8657397003544938 -0.1744307530448399 0  -0.875 -0.2165063509461097 0  -0.9191385500632976 0.05668682295204934 0  -0.9374999999999999 0.1082531754730548 0  -0.8414732086268925 -0.02979075402072296 0  -0.8838615846104741 0.03281364894932847 0  -0.9025993020289615 0.08399522279934024 0  -0.9218749999999999 0.1353164693413185 0  -0.8069091517126806 -0.1063797548106189 0  -0.8227041474082361 -0.1554136366367828 0  -0.8450362008579381 -0.1636153151676399 0  -0.824611073526637 -0.2087806554713395 0  -0.8432447828874938 -0.2299625171474235 0  -0.8437500000000001 -0.270632938682637 0  -0.8074688489602485 -0.04534311577063995 0  -0.7748599739446962 -0.09147609870793595 0  -0.7599743974004342 -0.1515693530204255 0  -0.7874243887323827 -0.1486997295560047 0  -0.7740096897566618 -0.1902442517032015 0  -0.7982566063220082 -0.2018609305277571 0  -0.7939958243211587 -0.243248178868526 0  -0.8033953092403587 -0.2739516347679044 0  -0.8125000000000002 -0.3247595264191645 0  -0.8481685757897792 0.03463580614500975 0  -0.8763526826359844 0.09829521691979071 0  -0.9062500000000001 0.1623797632095823 0  -0.7872217742390745 -0.03024195936296309 0  -0.7565548600439893 -0.06556774174670035 0  -0.7280367863186943 -0.1046281989307924 0  -0.7428557301118698 -0.1326576576268934 0  -0.7130575397441211 -0.2080743084118526 0  -0.7425045269468755 -0.2040970945489534 0  -0.7674851701419854 -0.2290293682917657 0  -0.7599986833552189 -0.2682349390602705 0  -0.7616526459078594 -0.3305135978123668 0  -0.7812500000000001 -0.378886114155692 0  -0.816253599818404 0.01031925268654644 0  -0.8190007077644565 0.05195524742955143 0  -0.8424384387483641 0.09512493014350837 0  -0.8689593925676488 0.1377994471097691 0  -0.890625 0.1894430570778459 0  -0.7410175419981699 -0.05005547045971393 0  -0.6820539222728559 -0.1168108160858607 0  -0.6757831681120814 -0.161343132024619 0  -0.7066615444436462 -0.1644905737066079 0  -0.6637898688950368 -0.220644916152676 0  -0.6744004859163939 -0.2587362859831477 0  -0.7325446303104611 -0.2447371505997974 0  -0.7216022609970536 -0.292027783035909 0  -0.7407903637588057 -0.3123505827564781 0  -0.7035881363438097 -0.356533874799312 0  -0.7288120197725808 -0.392133095104917 0  -0.75 -0.4330127018922193 0  -0.7897359628532806 0.006725954256448229 0  -0.7972623766874077 0.06341714755367762 0  -0.8304362309430872 0.1129567769931919 0  -0.8421684945059275 0.1611058176776091 0  -0.8750000000000001 0.2165063509461097 0  -0.7637447900489446 0.0084055150883772 0  -0.7027910536312951 -0.05387662733901926 0  -0.6399011514174923 -0.1176136647146791 0  -0.6199508075525719 -0.1685360793359413 0  -0.6333977552331249 -0.1967451137076092 0  -0.619216095826812 -0.2480485729726879 0  -0.6276040039072337 -0.2883488704175591 0  -0.6261231993592246 -0.3335289324385786 0  -0.6865068439078151 -0.2949080438254524 0  -0.6907604947283688 -0.3285687191624082 0  -0.6650087872471667 -0.3699552850214223 0  -0.6798435707998647 -0.4026405874050478 0  -0.7050830176678921 -0.447022367558788 0  -0.7187499999999999 -0.4871392896287467 0  -0.7723498686347566 0.07044317118097282 0  -0.8017262003913778 0.122128289958322 0  -0.8169126563784805 0.1693170073489986 0  -0.8593750000000001 0.2435696448143733 0  -0.7259809026153086 0.008482836968837627 0  -0.6740418109022589 -0.02450688559989462 0  -0.7223115334823216 0.04936346203485886 0  -0.7572899881178878 0.1097950588389946 0  -0.7734646598732114 0.1561617258837397 0  -0.8083562768108126 0.2049421991290764 0  -0.84375 0.270632938682637 0  -0.6660887510003569 -0.06759964205641175 0  -0.6171961871067949 -0.09908864551504318 0  -0.5833829368075305 -0.1731805645520128 0  -0.5851671105835449 -0.224515763015499 0  -0.5727138940289876 -0.2779087493001106 0  -0.5801058985757366 -0.3174797115370438 0  -0.57948544680462 -0.3632267691333948 0  -0.6267964734590343 -0.3775121834136309 0  -0.6398433230386719 -0.4169421315431633 0  -0.6616426493335408 -0.4488274832297308 0  -0.6803761222242836 -0.4915582867438201 0  -0.6875 -0.5412658773652741 0  -0.6566148164134606 -0.3360342982328451 0  -0.6542800869698886 0.003633874519227934 0  -0.6158214682809207 -0.05883418227773253 0  -0.5750967197363078 -0.0918766710651954 0  -0.5702619644256461 -0.1314570888217494 0  -0.5310796517017504 -0.1985334532999667 0  -0.5379237787887492 -0.2420866834293268 0  -0.5516118004787688 -0.2643356959406811 0  -0.5219299366261414 -0.3074188372821275 0  -0.5441569679299709 -0.3203940814531961 0  -0.544846265790987 -0.3611331944285065 0  -0.5114751055162018 -0.4066686830605467 0  -0.5298500409650213 -0.4384707797967484 0  -0.5794737256993363 -0.4086737180861368 0  -0.6054298025247353 -0.4197528954248557 0  -0.592710431245361 -0.4609848902618885 0  -0.6134133603589965 -0.4927681039827594 0  -0.6393590131426583 -0.5198261223711328 0  -0.6438736370520471 -0.5600300692022314 0  -0.65625 -0.5953924651018015 0  -0.6961199877549025 0.06467019448070167 0  -0.7322688722710476 0.1241970790870847 0  -0.7614677067674487 0.1843417562313635 0  -0.7982098286578407 0.241597904092872 0  -0.828125 0.2976962325509007 0  -0.6121569899603913 -0.02049935287448479 0  -0.5680093344887456 -0.06210558644879417 0  -0.5296938028141881 -0.1373067408269198 0  -0.4901525291003586 -0.1955789237044915 0  -0.4746183446720159 -0.2428634803524866 0  -0.4858590591960716 -0.2715088080329482 0  -0.4715952226353661 -0.3270718944547512 0  -0.4874270099800481 -0.3483793786947822 0  -0.480078652051836 -0.4044778124091272 0  -0.5107966792581313 -0.3607592194079098 0  -0.6351984073276686 0.03037645136060999 0  -0.6919512395101405 0.1148619971399276 0  -0.7371035741994222 0.1934824949257085 0  -0.7677243675294183 0.2452436239691324 0  -0.8125000000000001 0.3247595264191646 0  -0.5070956227453038 -0.2856926586873541 0  -0.4592753826052925 -0.4489578951960593 0  -0.4551538480224278 -0.4879280476876971 0  -0.4870834355975865 -0.4924138429753193 0  -0.5543645851211818 -0.4600201827899537 0  -0.5636063113133203 -0.5062314567180716 0  -0.5722394951023636 -0.540723915347752 0  -0.6004398475588687 -0.5639514773360513 0  -0.6165119354103209 -0.6003123312214718 0  -0.625 -0.6495190528383291 0  -0.5850968043587489 -0.01747042289921243 0  -0.5715475053296581 0.003755875240688324 0  -0.632542541699327 0.08118252107995054 0  -0.6715186710197373 0.1292199759178416 0  -0.6982974014086432 0.1789827939308964 0  -0.7309041627521532 0.2234419242184485 0  -0.760853516405614 0.2792464453234507 0  -0.7607023230601084 0.3093962646126385 0  -0.7968750000000001 0.3518228202874282 0  -0.5264933157473631 -0.08231084764042879 0  -0.493638060994832 -0.1339939179799725 0  -0.4589626054281711 -0.1957888821520802 0  -0.438352019728192 -0.2427967943470546 0  -0.4349603537871217 -0.2905998917905525 0  -0.4340727913783781 -0.3307406261902842 0  -0.3931940322566967 -0.3797355265396843 0  -0.4328932475453516 -0.4073381105917769 0  -0.415502513600294 -0.4580373266102869 0  -0.385415281901366 -0.511073437509846 0  -0.3881529845957117 -0.5477450464703199 0  -0.4322278898459536 -0.5328927439743946 0  -0.4708621541874918 -0.5447008496340244 0  -0.5212781730861482 -0.509033783025311 0  -0.5273194299998638 -0.5485603521097303 0  -0.5234826944144788 -0.5932528774620949 0  -0.5625853138775753 -0.5789028834579788 0  -0.5740199804033532 -0.6134996816985621 0  -0.5765847191201461 -0.6564593508420057 0  -0.59375 -0.7036456405748563 0  -0.5800862410227176 0.06953847272188511 0  -0.62345922728912 0.1087748024732029 0  -0.6592027535596012 0.1483415294528432 0  -0.7030117102084296 0.2220614128747072 0  -0.7211245865447338 0.2726260665754737 0  -0.7293612713284667 0.3214771290950779 0  -0.7890625000000001 0.3653544672215601 0  -0.5497332796675871 0.02526608106074905 0  -0.53018493643993 -0.01879708202667862 0  -0.5023738120312831 -0.06929095084794874 0  -0.4543086626793323 -0.1501783646722772 0  -0.4248556544311721 -0.2001778118037034 0  -0.3836034551939345 -0.2834399929263637 0  -0.3735195503155113 -0.3423773121212576 0  -0.3164083588907829 -0.4085503075097236 0  -0.3374441431234344 -0.4358308634994116 0  -0.3563643403403329 -0.4652367397589351 0  -0.3293009761387771 -0.5276556289563349 0  -0.3139040252508816 -0.5855140438576723 0  -0.366730554445017 -0.5948349816197472 0  -0.4217402740883738 -0.5900354366832488 0  -0.4753932323153703 -0.5864582514369745 0  -0.4778516850572023 -0.6318307895279576 0  -0.5087154203841168 -0.6499046400010015 0  -0.5448706663656597 -0.6492816546120687 0  -0.529090650986931 -0.6944022548983919 0  -0.5447409078977913 -0.7268187065901833 0  -0.5625000000000001 -0.7577722283113839 0  -0.5918572054463975 0.1338101643626165 0  -0.6347680448791199 0.1520640736039057 0  -0.6649299767989149 0.2164013530528183 0  -0.6741572651241856 0.2686102951723429 0  -0.6789476455262888 0.321375691006909 0  -0.7254508777365434 0.3530655186058727 0  -0.7812499999999999 0.3788861141556918 0  -0.5377716048704266 0.05272672813330151 0  -0.5104530844077947 -0.001526069099174808 0  -0.46319401157798
[...]
<PointData  Scalars="w"> 
<DataArray  type="Float64"  Name="w"  format="ascii">1.0145709206964575e+00  1.0134788150504164e+00  1.0145417582302008e+00  1.0150886505894985e+00  1.0120108798129408e+00  1.0142961845144516e+00  1.0169494681821394e+00  1.0163303305197919e+00  1.0167430950480691e+00  1.0160942223151910e+00  1.0206436109986956e+00  1.0250250922587227e+00  1.0213557746526911e+00  1.0198397677172324e+00  1.0229835943099395e+00  1.0124022733112645e+00  1.0318103110107646e+00  1.0401037298501605e+00  1.0377906496682401e+00  1.0269665984673875e+00  1.0274733684267772e+00  1.0269197056147956e+00  1.0164779377253064e+00  1.0152964086203116e+00  1.0437992309117730e+00  1.0299067228201031e+00  1.0201013173143765e+00  1.0221659525985611e+00  1.0464824213312380e+00  1.0380731304487962e+00  1.0333544909492414e+00  1.0321001332599804e+00  1.0313805359382522e+00  1.0414001968600690e+00  1.0445298531704921e+00  1.0464007742795547e+00  1.0442038714784483e+00  1.0423135632110379e+00  1.0414137473540013e+00  1.0390439637237867e+00  1.0441981916216982e+00  1.0550319348784818e+00  1.0961013543186184e+00  1.0417893696020655e+00  1.0293457931370138e+00  1.0330132521810689e+00  1.0481598176267424e+00  1.0535484859660900e+00  1.0584213697114013e+00  1.0493819474282751e+00  1.0615708299608997e+00  1.0489131595215671e+00  1.0456303939267515e+00  1.0595824281683930e+00  1.0984579295939954e+00  1.1290093756430841e+00  1.0445265833684230e+00  1.0432597826465704e+00  1.0376032724388060e+00  1.0389318959347560e+00  1.0449953360147681e+00  1.0642826281425430e+00  1.0857800748257400e+00  1.0842032674480302e+00  1.0650582834344740e+00  1.0883840954237456e+00  1.0979654083586021e+00  1.0592909071815020e+00  1.0639644659110052e+00  1.0805281790728292e+00  1.0948415703819934e+00  1.1347584965495021e+00  1.1367524841810481e+00  1.0536649553143986e+00  1.0537614431288254e+00  1.0459172231295220e+00  1.0548274990837125e+00  1.0511582190038729e+00  1.0678825177789211e+00  1.0854902492012377e+00  1.0953991948130379e+00  1.1108290464564485e+00  1.0994225063760090e+00  1.0854745779975303e+00  1.0875490567009796e+00  1.0802374820305285e+00  1.0712219277710049e+00  1.0681814384984667e+00  1.0797839101456708e+00  1.1216017640281526e+00  1.1439361026514512e+00  1.1401334252266353e+00  1.0755144634338538e+00  1.0689827547462034e+00  1.0703015100428570e+00  1.0486962228342978e+00  1.0950644306213497e+00  1.1049264137270154e+00  1.1165542183806523e+00  1.0916882321460206e+00  1.0901628298542425e+00  1.0693245765593551e+00  1.0432262129356118e+00  1.0939349898458530e+00  1.0929148172854117e+00  1.1042614446299415e+00  1.0815400938913118e+00  1.0709854960913860e+00  1.0842563099213147e+00  1.1045792583375007e+00  1.0791573449072012e+00  1.1015732433978518e+00  1.1384313118298397e+00  1.1554889543071394e+00  1.1598675136136269e+00  1.0667406276769409e+00  1.1225216464533649e+00  1.0979016446981578e+00  1.0959371865945757e+00  1.0920175951616360e+00  1.1008872484444139e+00  1.0754004003855340e+00  1.0681461294086991e+00  1.0671237964328530e+00  1.0700513983204871e+00  1.0894791476012420e+00  1.1415039874830619e+00  1.1697144112625368e+00  1.1198753817666911e+00  1.1021485141668366e+00  1.1185291158910087e+00  1.1412522566905963e+00  1.1586138742791159e+00  1.1440614670621008e+00  1.1339656868769332e+00  1.1262504231012729e+00  1.1020637960656618e+00  1.0939654625474735e+00  1.0534038045474969e+00  1.0356741754034089e+00  1.1051049663037709e+00  1.1018608934229854e+00  1.0962157136234907e+00  1.0933993449194024e+00  1.0935536291053445e+00  1.0817460891020687e+00  1.1238178276883828e+00  1.1018418652941502e+00  1.1766870478359912e+00  1.0856324789986846e+00  1.1229746878869993e+00  1.1208933094578390e+00  1.0788621624231158e+00  1.0503047479595002e+00  1.0386390656113427e+00  1.0716652842217689e+00  1.3005098814680043e+00  1.3428773804919529e+00  1.2726116325229397e+00  1.1415942851769190e+00  1.1450990494830959e+00  1.1480875635978451e+00  1.1543449364474878e+00  1.1425981599009376e+00  1.1528571605442870e+00  1.1114854351614307e+00  1.1062031755917185e+00  1.1327697999670485e+00  1.1117779191735728e+00  1.0808962518447092e+00  1.0642910611034180e+00  1.0519466181812147e+00  1.0512100899651140e+00  1.0457142912630042e+00  1.1022256566683386e+00  1.0926770100780165e+00  1.0917683252403674e+00  1.1085112360786475e+00  1.1441292303361559e+00  1.1876476874005406e+00  1.2947918074827516e+00  1.2620861063510098e+00  1.3250296489049982e+00  1.3641745324039023e+00  1.3626577780445372e+00  1.3261335289567140e+00  1.2549512041776181e+00  1.1846867546072186e+00  1.1664305745723351e+00  1.1832653078248572e+00  1.1613498004400091e+00  1.1891693019594789e+00  1.1781525888486719e+00  1.1984905272917807e+00  1.0931574646839257e+00  1.1099961671983771e+00  1.0973510617859774e+00  1.0756263329037277e+00  1.0666646077696924e+00  1.0607000606805970e+00  1.0500664204520831e+00  1.0871784245346263e+00  1.0964579117432645e+00  1.1173023596968386e+00  1.0965387490368614e+00  1.1016830811956433e+00  1.1664253116236076e+00  1.2381850246118646e+00  1.2478929231510734e+00  1.2252606840636402e+00  1.2400680058005467e+00  1.3076044129069082e+00  1.3760462340229660e+00  1.3505394064607641e+00  1.3028118391880432e+00  1.2353547941782401e+00  1.2675195841362217e+00  1.2609440804618743e+00  1.2288384932586671e+00  1.2505167628366409e+00  1.2361824243671360e+00  1.2524111318626456e+00  1.0952334412226283e+00  1.1088455901311456e+00  1.1090500014843416e+00  1.0921368122976984e+00  1.0836688873588789e+00  1.0686011107327380e+00  1.0544246343704640e+00  1.0821201436614063e+00  1.0987683412745592e+00  1.1517596975466633e+00  1.1172056067042209e+00  1.1220545101079249e+00  1.1754689453917193e+00  1.1745859801100069e+00  1.2069167827612837e+00  1.2275173279524068e+00  1.2576924507529885e+00  1.2644540478425641e+00  1.2575649312165691e+00  1.4944297816957151e+00  1.4662739230003923e+00  1.3822141214544761e+00  1.4417280651756073e+00  1.5359328221570994e+00  1.3394123763053101e+00  1.3490428743916425e+00  1.3142386723119936e+00  1.2903038650270606e+00  1.3307220181180357e+00  1.4139705321785687e+00  1.1068095926479851e+00  1.1230252472920497e+00  1.1238776642350101e+00  1.0889545713638993e+00  1.0797687598753405e+00  1.0635357336744478e+00  1.1027888922803180e+00  1.0909015854752555e+00  1.0907839989444745e+00  1.1070137296943112e+00  1.1874031652855508e+00  1.1863342700405284e+00  1.1253753622069889e+00  1.1325577452442988e+00  1.1988486637891471e+00  1.2016814237087583e+00  1.1925129012876647e+00  1.2083450762741474e+00  1.2451144963131522e+00  1.2512478712037209e+00  1.3521814902127731e+00  1.4181070950819834e+00  1.4859263909176417e+00  1.4249733525402897e+00  1.4090041225273677e+00  1.4659017729338781e+00  1.4150256237714796e+00  1.4023107821450884e+00  1.5654444320320429e+00  1.4862254078958519e+00  1.3850328451556342e+00  1.3393113354550299e+00  1.3513052367530964e+00  1.4675614803462707e+00  1.5281233588643384e+00  1.1106944297293448e+00  1.1294496602073654e+00  1.1676370626167558e+00  1.1516581430066233e+00  1.1038927835285965e+00  1.1049299248553397e+00  1.1494059172796145e+00  1.1660132257623814e+00  1.1772809855991211e+00  1.1422885412158930e+00  1.1580115784145713e+00  1.1013792037033732e+00  1.0700715241462389e+00  1.0727772217036518e+00  1.0674980986225968e+00  1.2182872304030994e+00  1.3441235388438713e+00  1.2379538422812650e+00  1.2420899192843848e+00  1.3813949518190300e+00  1.4834054710851945e+00  1.3776078193844967e+00  1.4088376084558576e+00  1.5070321973306700e+00  1.4891628108253729e+00  1.3948054732939257e+00  1.4297692808000264e+00  1.3650025005502724e+00  1.3747593948619854e+00  1.4690190503685185e+00  1.4422888075657023e+00  1.5178201727389851e+00  1.4057055896964816e+00  1.3654303738277422e+00  1.4041829420139691e+00  1.4644565498401489e+00  1.1719225660195640e+00  1.1251354972825540e+00  1.0993615358076512e+00  1.0727637370272707e+00  1.0639422893925086e+00  1.0588095865490177e+00  1.0576913057902220e+00  1.0520046372452456e+00  1.1481432259363109e+00  1.1043551623846903e+00  1.1264978791436071e+00  1.1465760066635644e+00  1.1603105114840455e+00  1.3893592959824492e+00  1.4278349288339975e+00  1.3003167661127761e+00  1.3272010712028064e+00  1.3879044910644232e+00  1.4285963274206870e+00  1.4224316824996048e+00  1.4227693851675502e+00  1.5770330285262126e+00  1.7194834488503177e+00  1.8314228454782997e+00  1.5432887332523455e+00  1.4434662974787447e+00  1.4506621696513935e+00  1.4542224478712544e+00  1.4564912862524497e+00  1.3840954274234014e+00  1.4981371630568940e+00  1.5666834520782154e+00  1.5655971375338731e+00  1.4757363270280437e+00  1.4491333454782915e+00  1.4178401805469361e+00  1.1313633760325188e+00  1.1305697287682914e+00  1.1001257440475420e+00  1.1267285835398797e+00  1.1559462808920997e+00  1.1797335226167394e+00  1.2334975098161649e+00  1.2374843947427068e+00  1.2961770889218822e+00  1.3440606467070584e+00  1.3354288229635756e+00  1.4934664872195156e+00  1.4483276607142761e+00  1.5419748576146906e+00  1.4568396114223954e+00  1.6022300767232738e+00  1.4299174725540977e+00  1.0984858936286790e+00  1.0799550085412635e+00  1.0808266479649093e+00  1.0689360396699674e+00  1.0653739380537401e+00  1.0484686362686142e+00  1.0421164629177715e+00  1.9567448358243777e+00  2.1138076892850988e+00  1.6487315081031659e+00  1.4756041698074471e+00  1.4210399918258292e+00  1.4967478583544003e+00  1.5215923456205533e+00  1.1232163813928695e+00  1.1349316298273580e+00  1.0991994499683566e+00  1.0781721657453867e+00  1.0711376715504206e+00  1.0721605002959085e+00  1.0692181741792051e+00  1.0613958152225706e+00  1.0502974745306404e+00  1.0407717255220317e+00  1.1200048529570228e+00  1.1665622720614506e+00  1.1999961284945857e+00  1.1792420480436945e+00  1.2535872433786901e+00  1.3191721447349782e+00  1.3690552871457871e+00  1.4262025082334404e+00  1.4376307034711813e+00  1.6065544807524752e+00  1.5722258499000483e+00  1.5005192058160071e+00  1.5142985632172570e+00  1.9092723038578892e+00  1.8814042278800647e+00  1.6372635606331476e+00  1.1568691917023592e+00  1.1378955899127390e+00  1.1416163417670158e+00  1.1313131082952168e+00  1.0882012521856168e+00  1.0767221639242628e+00  1.0654583993287010e+00  1.0627394176067333e+00  1.0489784301321248e+00  1.0447921687744595e+00  1.0480461003105948e+00  1.0474496898988288e+00  1.2151167587193643e+00  1.1888814821183908e+00  1.1483089124953714e+00  1.2202759044631346e+00  1.2756796910935819e+00  1.4280208784227064e+00  1.4592628318363370e+00  1.6728510417175670e+00  1.6395900801233807e+00  1.4779841409829682e+00  1.5112690987464223e+00  1.5869789329195207e+00  1.5770857077755003e+00  1.1690308952471680e+00  1.2377785451396817e+00  1.1445973487828505e+00  1.1462757583305627e+00  1.2116700332932808e+00  1.2983959097130597e+00  1.4112231428915278e+00  1.5596749396057361e+00  1.4843918904609517e+00  1.5538529442371793e+00  1.6980234102478711e+00  1.5939417417246686e+00  1.5283712200310455e+00  1.5500548888077594e+00  1.1626013582658663e+00  1.1525873998181329e+00  1.1591580085007185e+00  1.1192791538628406e+00  1.0920671940961768e+00  1.0709517800696875e+00  1.0580707362404826e+00  1.0496642676170571e+00  1.0393884618876812e+00  1.0394292043031375e+00  1.0396181016936208e+00  1.0492330953868529e+00  1.0639713093987666e+00  1.2215727840834021e+00  1.1847391620791414e+00  1.1736568356547656e+00  1.2131939557530846e+00  1.2449259286809686e+00  1.5501278473980129e+00  1.7093476672423491e+00  1.5761805506672597e+00  1.7389668628133474e+00  1.9090761481430520e+00  1.7683970021027662e+00  1.1544278028361321e+00  1.1716487192802711e+00  1.1663236014041798e+00  1.1518374834395722e+00  1.1165969288127766e+00  1.0957304468009168e+00  1.0723514665077101e+00  1.0535143702597951e+00  1.0471865112431853e+00  1.0442884211633672e+00  1.0413952423724326e+00  1.0403524026876061e+00  1.0480505332183787e+00  1.0375996428403562e+00  1.2078185036315263e+00  1.1578997463522687e+00  1.1388728583016345e+00  1.1546910154591381e+00  1.1822349943271122e+00  1.1660208638223200e+00  1.1048470707183695e+00  1.0615360193379160e+00  1.0491326918165065e+00  1.0434792985146681e+00  1.0430911731210764e+00  1.0472209973168130e+00  1.0457009006640863e+00  1.0444261973433275e+00  1.0455315721862861e+00  1.2637281432080274e+00  1.2942118375755800e+00  1.2687876051707589e+00  1.4953454304009557e+00  1.6268246605301173e+00  1.6975462350610000e+00  2.2141621208597995e+00  2.2385846936256244e+00  1.8704963100623238e+00  1.1829300983847864e+00  1.1734887272071988e+00  1.1396924544229117e+00  1.1746779238949046e+00  1.2242810221840690e+00  1.1745651137610629e+00  1.1583222507017290e+00  1.1185062546678546e+00  1.0688939224612524e+00  1.0617592545414696e+00  1.0514900108798895e+00  1.0455174944438039e+00  1.0378882280807082e+00  1.0372071696309535e+00  1.0394948955974712e+00  1.0429281713703908e+00  1.0345362452302045e+00  1.0360864213413086e+00  1.0415591795639587e+00  1.2700147496604119e+00  1.2713569029470815e+00  1.3101401143698543e+00  1.3290798424984562e+00  1.4025152668511027e+00  1.5619810829701131e+00  2.4778372276933709e+00  3.1614484090125941e+00  2.9347734924325426e+00  1.1380460196401991e+00  1.1670096754565051e+00  1.1356866469849605e+00  1.1616382972125028e+00  1.1485190516902872e+00  1.1098710285402327e+00  1.0775590873595651e+00  1.0644995344743358e+00  1.0577154500372790e+00  1.0591780620715998e+00  1.0423010691778567e+00  1.0367181600938309e+00  1.0349389059527780e+00  1.0378226506849584e+00  1.0400056708299050e+00  1.0316352323055096e+00  1.0261736486526940e+00  1.1956211605781111e+00  1.1982079342327614e+00  1.2547878758331728e+00  1.3817355271230158e+00  1.3574116786826733e+00  1.4621822894852883e+00  2.3262152771901921e+00  3.0142761203780872e+00  2.1893528393990112e+00  2.0049456167399793e+00  1.1530706872639778e+00  1.1585010044420019e+00  1.1891880194497699e+00  1.1986113501883233e+00  1.2539424726142323e+00  1.4634900423697217e+00  1.5370093175857797e+00  1.9831339113412889e+00  2.1807609750882095e+00  1.9002246526553113e+00  1.5040563821886257e+00  1.5287363422844866e+00  1.1706187985453336e+00  1.1241896878931132e+00  1.1131401501102627e+00  1.1145057608502016e+00  1.0879348542292981e+00  1.0667196818012372e+00  1.0728459255061804e+00  1.0549131287563887e+00  1.0499563707683566e+00  1.0611503664305098e+00  1.0519747181171673e+00  1.0473701843173704e+00  1.0429847246779089e+00  1.0311469147696151e+00  1.0321813647310669e+00  1.0287051896095343e+00  1.0247181515543720e+00  1.0231476006160947e+00  1.0425929561031255e+00  1.1606102344456668e+00  1.2052748513294609e+00  1.1568179486618713e+00  1.1007472314459787e+00  1.0915328968945597e+00  1.0712971014898052e+00  1.0514937321828235e+00  1.0498481317298420e+00  1.0433844523197835e+00  1.0418841338122862e+00  1.0465599884338781e+00  1.0446367698163705e+00  1.0466323222184675e+00  1.0375105878506803e+00  1.0344537227262991e+00  1.0299401170307352e+00  1.0285283804791794e+00  1.0277022739666646e+00  1.0214114261360867e+00  1.0206577867251658e+00  1.2167251761972324e+00  1.2236744701136397e+00  1.3334247746757302e+00  1.2789572799948583e+00  1.3944154621266740e+00  1.4967595885192377e+00  1.5479235742418522e+00  1.7632921655635287e+00  1.7673466741274804e+00  1.6611052026947968e+00  1.4714541153707541e+00  1.3699506604374876e+00  1.3226163906771091e+00  1.1567715545468038e+00  1.1515692814780243e+00  1.1960631199753780e+00  1.3109534848570950e+00  1.3683501123428290e+00  1.3564489152894987e+00  1.3752365927234771e+00  1.5860195491600846e+00  1.7950818847483201e+00  1.7184131230113442e+00  1.6130960657935005e+00  1.6111823795419813e+00  1.5115491317060421e+00  1.5320234724252317e+00  1.5392799460985727e+00  1.3289958328383580e+00  1.2859307974339589e+00  1.1017477292626654e+00  1.1227941704426225e+00  1.0846890521568402e+00  1.0653614631237314e+00  1.0573765456246604e+00  1.0463217968262053e+00  1.0423890153166329e+00  1.0449495967219136e+00  1.0498596457228719e+00  1.0415343573236855e+00  1.0418277114845376e+00  1.0408135067469306e+00  1.0374966844137137e+00  1.0332741918195141e+00  1.0307179103496986e+00  1.0290359575355978e+00  1.0279169106870529e+00  1.0266064509473751e+00  1.0224201366842762e+00  1.0201886374487983e+00  1.1264938569496648e+00  1.1364139601702532e+00  1.1733966062855159e+00  1.2120399838940783e+00  1.2407015523710729e+00  1.3258231144658974e+00  1.3154511561721760e+00  1.3299464532282930e+00  1.3804970783941242e+00  1.5217395320739933e+00  1.4642808508560696e+00  1.5293421782398926e+00  1.4594425118427106e+00  1.5351205549774920e+00  1.5191658049586125e+00  1.3308871772948876e+00  1.2058183809782079e+00  1.1012666981166561e+00  1.0789280113261968e+00  1.0884480082132384e+00  1.0558985267641368e+00  1.0458405090922258e+00  1.0529251203522192e+00  1.0610054320129214e+00  1.0609530579701048e+00  1.0447468412948622e+00  1.0486893871948433e+00  1.0362082791755731e+00  1.0360200195077161e+00  1.0304798268196949e+00  1.0272291224698558e+00  1.0249639911022612e+00  1.0242111696356970e+00  1.0216635447503473e+00  1.1153526736003319e+00  1.1126029721636150e+00  1.1339969935439245e+00  1.1625929590632746e+00  1.1974415296514140e+00  1.1935098505236266e+00  1.2285379989349616e+00  1.2864154967861796e+00  1.3117508366311479e+00  1.3367660928327469e+00  1.3562653906323103e+00  1.3232875959865475e+00  1.2666659491956267e+00  1.2869672450872751e+00  1.3508433452976316e+00  1.3054566144679980e+00  1.2986918943435668e+00  1.2108158423726276e+00  1.1808307008405392e+00  1.1058926386023709e+00  1.0846093384194249e+00  1.0796464844064668e+00  1.0601973882656295e+00  1.0618718430780663e+00  1.0548693980907928e+00  1.0454697916097222e+00  1.0408191494016126e+00  1.0330035408399856e+00  1.0326411737160268e+00  1.0305602055359453e+00  1.0226636233088804e+00  1.0200500703387783e+00  1.0240541030120129e+00  1.0239681233891682e+00  1.1081172663182768e+00  1.1318242811978894e+00  1.1486196102909825e+00  1.1360211930223001e+00  1.1155569960069280e+00  1.0830274202740886e+00  1.0734902445596053e+00  1.0802605812320565e+00  1.0775100369289743e+00  1.0780760721940816e+00  1.0768289247583294e+00  1.0616181143537058e+00  1.0572619312589342e+00  1.0452463877378582e+00  1.0377281033916894e+00  1.0308024097865407e+00  1.0306700280647429e+00  1.0364162770310770e+00  1.0262484196950072e+00  1.0192783168349717e+00  1.0168342791769385e+00  1.0163905342983304e+00  1.0196389038009146e+00  1.1728467426249052e+00  1.1919770574129502e+00  1.1759427899798194e+00  1.1906528059489465e+00  1.2075760294224516e+00  1.2193859395531583e+00  1.2489620345533989e+00  1.2631292334585087e+00  1.2712499126709489e+00  1.2534949200665175e+00  1.2159544487827114e+00  1.1979405045139293e+00  1.2258875483704110e+00  1.2761784150859556e+00  1.2571212532194560e+00  1.2139006290256940e+00  1.2073555209662266e+00  1.0367241199614854e+00  1.1603913621236566e+00  1.1068841639433553e+00  1.0670364984229703e+00  1.0651118172776031e+00  1.0691125609214893e+00  1.0681057465443009e+00  1.0661640538476773e+00  1.0657846795451640e+00  1.0713673891757687e+00  1.0707811572893404e+00  1.0605122417054169e+00  1.0480521373084304e+00  1.0347379974324851e+00  1.0248492586771321e+00  1.0244564036568145e+00  1.0244928825183064e+00  1.0281197097208756e+00  1.0240677802334410e+00  1.0244416350236054e+00  1.0190620969859889e+00  1.0162313412640258e+00  1.0145589855083028e+00  1.0152821787115305e+00  1.1921018736796003e+00  1.1639610421721835e+00  1.1323665934197797e+00  1.1637970506726854e+00  1.1847984210284965e+00  1.1850945381417153e+00  1.1980154553383815e+00  1.2181792931114790e+00  1.2602219493707281e+00  1.2771365467100537e+00  1.2306360606272460e+00  1.2013253335245746e+00  1.1917821166324905e+00  1.2101638053241772e+00  1.3143221530805378e+00  1.2920612640803506e+00  1.2665635770430250e+00  1.2498508192547759e+00  1.1466595270698876e+00  1.1259915579159809e+00  1.1435483703207834e+00  1.1325779307321173e+00  1.1080640905169206e+00  1.1257460017287697e+00  1.1603307057654066e+00  1