<?xml version="1.0"?>
<VTKFile type="UnstructuredGrid"  version="0.1"  >
<UnstructuredGrid>
<Piece  NumberOfPoints="1237" NumberOfCells="2335">
<Points>
<DataArray  type="Float64"  NumberOfComponents="3"  format="ascii">-1 3.09081664739187e-17 0  -0.9843750000000001 0.02706329386826373 0  -0.9586042096960951 -0.0236073080308172 0  -0.9687500000000001 -0.05412658773652738 0  -0.9687499999999999 0.05412658773652741 0  -0.9472957560052226 0.006184170637571083 0  -0.9267582714381279 -0.04141318421241193 0  -0.9316799261084423 -0.07502217834255943 0  -0.9375000000000001 -0.1082531754730548 0  -0.9304535526187879 0.02123269309792843 0  -0.9155919293475937 -0.02097532195701668 0  -0.8901898660228655 -0.05879793213392052 0  -0.8961407092258983 -0.08791682354371629 0  -0.9041593017321125 -0.1150769371767221 0  -0.9062500000000001 -0.1623797632095822 0  -0.9531250000000001 0.08118988160479108 0  -0.890147330991285 -0.0122086527191084 0  -0.8576709175674995 -0.04850009197978337 0  -0.8494979525438807 -0.09201284187231788 0  -0.8688087259335305 -0.1227339854926646 0  -0.8657397003544938 -0.1744307530448399 0  -0.875 -0.2165063509461097 0  -0.9191385500632976 0.05668682295204934 0  -0.9374999999999999 0.1082531754730548 0  -0.8414732086268925 -0.02979075402072296 0  -0.8838615846104741 0.03281364894932847 0  -0.9025993020289615 0.08399522279934024 0  -0.9218749999999999 0.1353164693413185 0  -0.8069091517126806 -0.1063797548106189 0  -0.8227041474082361 -0.1554136366367828 0  -0.8450362008579381 -0.1636153151676399 0  -0.824611073526637 -0.2087806554713395 0  -0.8432447828874938 -0.2299625171474235 0  -0.8437500000000001 -0.270632938682637 0  -0.8074688489602485 -0.04534311577063995 0  -0.7748599739446962 -0.09147609870793595 0  -0.7599743974004342 -0.1515693530204255 0  -0.7874243887323827 -0.1486997295560047 0  -0.7740096897566618 -0.1902442517032015 0  -0.7982566063220082 -0.2018609305277571 0  -0.7939958243211587 -0.243248178868526 0  -0.8033953092403587 -0.2739516347679044 0  -0.8125000000000002 -0.3247595264191645 0  -0.8481685757897792 0.03463580614500975 0  -0.8763526826359844 0.09829521691979071 0  -0.9062500000000001 0.1623797632095823 0  -0.7872217742390745 -0.03024195936296309 0  -0.7565548600439893 -0.06556774174670035 0  -0.7280367863186943 -0.1046281989307924 0  -0.7428557301118698 -0.1326576576268934 0  -0.7130575397441211 -0.2080743084118526 0  -0.7425045269468755 -0.2040970945489534 0  -0.7674851701419854 -0.2290293682917657 0  -0.7599986833552189 -0.2682349390602705 0  -0.7616526459078594 -0.3305135978123668 0  -0.7812500000000001 -0.378886114155692 0  -0.816253599818404 0.01031925268654644 0  -0.8190007077644565 0.05195524742955143 0  -0.8424384387483641 0.09512493014350837 0  -0.8689593925676488 0.1377994471097691 0  -0.890625 0.1894430570778459 0  -0.7410175419981699 -0.05005547045971393 0  -0.6820539222728559 -0.1168108160858607 0  -0.6757831681120814 -0.161343132024619 0  -0.7066615444436462 -0.1644905737066079 0  -0.6637898688950368 -0.220644916152676 0  -0.6744004859163939 -0.2587362859831477 0  -0.7325446303104611 -0.2447371505997974 0  -0.7216022609970536 -0.292027783035909 0  -0.7407903637588057 -0.3123505827564781 0  -0.7035881363438097 -0.356533874799312 0  -0.7288120197725808 -0.392133095104917 0  -0.75 -0.4330127018922193 0  -0.7897359628532806 0.006725954256448229 0  -0.7972623766874077 0.06341714755367762 0  -0.8304362309430872 0.1129567769931919 0  -0.8421684945059275 0.1611058176776091 0  -0.8750000000000001 0.2165063509461097 0  -0.7637447900489446 0.0084055150883772 0  -0.7027910536312951 -0.05387662733901926 0  -0.6399011514174923 -0.1176136647146791 0  -0.6199508075525719 -0.1685360793359413 0  -0.6333977552331249 -0.1967451137076092 0  -0.619216095826812 -0.2480485729726879 0  -0.6276040039072337 -0.2883488704175591 0  -0.6261231993592246 -0.3335289324385786 0  -0.6865068439078151 -0.2949080438254524 0  -0.6907604947283688 -0.3285687191624082 0  -0.6650087872471667 -0.3699552850214223 0  -0.6798435707998647 -0.4026405874050478 0  -0.7050830176678921 -0.447022367558788 0  -0.7187499999999999 -0.4871392896287467 0  -0.7723498686347566 0.07044317118097282 0  -0.8017262003913778 0.122128289958322 0  -0.8169126563784805 0.1693170073489986 0  -0.8593750000000001 0.2435696448143733 0  -0.7259809026153086 0.008482836968837627 0  -0.6740418109022589 -0.02450688559989462 0  -0.7223115334823216 0.04936346203485886 0  -0.7572899881178878 0.1097950588389946 0  -0.7734646598732114 0.1561617258837397 0  -0.8083562768108126 0.2049421991290764 0  -0.84375 0.270632938682637 0  -0.6660887510003569 -0.06759964205641175 0  -0.6171961871067949 -0.09908864551504318 0  -0.5833829368075305 -0.1731805645520128 0  -0.5851671105835449 -0.224515763015499 0  -0.5727138940289876 -0.2779087493001106 0  -0.5801058985757366 -0.3174797115370438 0  -0.57948544680462 -0.3632267691333948 0  -0.6267964734590343 -0.3775121834136309 0  -0.6398433230386719 -0.4169421315431633 0  -0.6616426493335408 -0.4488274832297308 0  -0.6803761222242836 -0.4915582867438201 0  -0.6875 -0.5412658773652741 0  -0.6566148164134606 -0.3360342982328451 0  -0.6542800869698886 0.003633874519227934 0  -0.6158214682809207 -0.05883418227773253 0  -0.5750967197363078 -0.0918766710651954 0  -0.5702619644256461 -0.1314570888217494 0  -0.5310796517017504 -0.1985334532999667 0  -0.5379237787887492 -0.2420866834293268 0  -0.5516118004787688 -0.2643356959406811 0  -0.5219299366261414 -0.3074188372821275 0  -0.5441569679299709 -0.3203940814531961 0  -0.544846265790987 -0.3611331944285065 0  -0.5114751055162018 -0.4066686830605467 0  -0.5298500409650213 -0.4384707797967484 0  -0.5794737256993363 -0.4086737180861368 0  -0.6054298025247353 -0.4197528954248557 0  -0.592710431245361 -0.4609848902618885 0  -0.6134133603589965 -0.4927681039827594 0  -0.6393590131426583 -0.5198261223711328 0  -0.6438736370520471 -0.5600300692022314 0  -0.65625 -0.5953924651018015 0  -0.6961199877549025 0.06467019448070167 0  -0.7322688722710476 0.1241970790870847 0  -0.7614677067674487 0.1843417562313635 0  -0.7982098286578407 0.241597904092872 0  -0.828125 0.2976962325509007 0  -0.6121569899603913 -0.02049935287448479 0  -0.5680093344887456 -0.06210558644879417 0  -0.5296938028141881 -0.1373067408269198 0  -0.4901525291003586 -0.1955789237044915 0  -0.4746183446720159 -0.2428634803524866 0  -0.4858590591960716 -0.2715088080329482 0  -0.4715952226353661 -0.3270718944547512 0  -0.4874270099800481 -0.3483793786947822 0  -0.480078652051836 -0.4044778124091272 0  -0.5107966792581313 -0.3607592194079098 0  -0.6351984073276686 0.03037645136060999 0  -0.6919512395101405 0.1148619971399276 0  -0.7371035741994222 0.1934824949257085 0  -0.7677243675294183 0.2452436239691324 0  -0.8125000000000001 0.3247595264191646 0  -0.5070956227453038 -0.2856926586873541 0  -0.4592753826052925 -0.4489578951960593 0  -0.4551538480224278 -0.4879280476876971 0  -0.4870834355975865 -0.4924138429753193 0  -0.5543645851211818 -0.4600201827899537 0  -0.5636063113133203 -0.5062314567180716 0  -0.5722394951023636 -0.540723915347752 0  -0.6004398475588687 -0.5639514773360513 0  -0.6165119354103209 -0.6003123312214718 0  -0.625 -0.6495190528383291 0  -0.5850968043587489 -0.01747042289921243 0  -0.5715475053296581 0.003755875240688324 0  -0.632542541699327 0.08118252107995054 0  -0.6715186710197373 0.1292199759178416 0  -0.6982974014086432 0.1789827939308964 0  -0.7309041627521532 0.2234419242184485 0  -0.760853516405614 0.2792464453234507 0  -0.7607023230601084 0.3093962646126385 0  -0.7968750000000001 0.3518228202874282 0  -0.5264933157473631 -0.08231084764042879 0  -0.493638060994832 -0.1339939179799725 0  -0.4589626054281711 -0.1957888821520802 0  -0.438352019728192 -0.2427967943470546 0  -0.4349603537871217 -0.2905998917905525 0  -0.4340727913783781 -0.3307406261902842 0  -0.3931940322566967 -0.3797355265396843 0  -0.4328932475453516 -0.4073381105917769 0  -0.415502513600294 -0.4580373266102869 0  -0.385415281901366 -0.511073437509846 0  -0.3881529845957117 -0.5477450464703199 0  -0.4322278898459536 -0.5328927439743946 0  -0.4708621541874918 -0.5447008496340244 0  -0.5212781730861482 -0.509033783025311 0  -0.5273194299998638 -0.5485603521097303 0  -0.5234826944144788 -0.5932528774620949 0  -0.5625853138775753 -0.5789028834579788 0  -0.5740199804033532 -0.6134996816985621 0  -0.5765847191201461 -0.6564593508420057 0  -0.59375 -0.7036456405748563 0  -0.5800862410227176 0.06953847272188511 0  -0.62345922728912 0.1087748024732029 0  -0.6592027535596012 0.1483415294528432 0  -0.7030117102084296 0.2220614128747072 0  -0.7211245865447338 0.2726260665754737 0  -0.7293612713284667 0.3214771290950779 0  -0.7890625000000001 0.3653544672215601 0  -0.5497332796675871 0.02526608106074905 0  -0.53018493643993 -0.01879708202667862 0  -0.5023738120312831 -0.06929095084794874 0  -0.4543086626793323 -0.1501783646722772 0  -0.4248556544311721 -0.2001778118037034 0  -0.3836034551939345 -0.2834399929263637 0  -0.3735195503155113 -0.3423773121212576 0  -0.3164083588907829 -0.4085503075097236 0  -0.3374441431234344 -0.4358308634994116 0  -0.3563643403403329 -0.4652367397589351 0  -0.3293009761387771 -0.5276556289563349 0  -0.3139040252508816 -0.5855140438576723 0  -0.366730554445017 -0.5948349816197472 0  -0.4217402740883738 -0.5900354366832488 0  -0.4753932323153703 -0.5864582514369745 0  -0.4778516850572023 -0.6318307895279576 0  -0.5087154203841168 -0.6499046400010015 0  -0.5448706663656597 -0.6492816546120687 0  -0.529090650986931 -0.6944022548983919 0  -0.5447409078977913 -0.7268187065901833 0  -0.5625000000000001 -0.7577722283113839 0  -0.5918572054463975 0.1338101643626165 0  -0.6347680448791199 0.1520640736039057 0  -0.6649299767989149 0.2164013530528183 0  -0.6741572651241856 0.2686102951723429 0  -0.6789476455262888 0.321375691006909 0  -0.7254508777365434 0.3530655186058727 0  -0.7812499999999999 0.3788861141556918 0  -0.5377716048704266 0.05272672813330151 0  -0.5104530844077947 -0.001526069099174808 0  -0.46319401157798
[...]
<PointData  Scalars="w"> 
<DataArray  type="Float64"  Name="w"  format="ascii">1.0145888367794309e+00  1.0134978491881630e+00  1.0145639543306928e+00  1.0151105459245746e+00  1.0120315908255153e+00  1.0143218307840327e+00  1.0169822606043259e+00  1.0163592694495813e+00  1.0167728098817197e+00  1.0161273720130772e+00  1.0206884805413232e+00  1.0250791430600348e+00  1.0213985396499528e+00  1.0198770419040852e+00  1.0230268206274296e+00  1.0124270058086644e+00  1.0318870429173357e+00  1.0401997369835001e+00  1.0378708477787368e+00  1.0270220611037484e+00  1.0275288210430764e+00  1.0269709951269099e+00  1.0165146913175862e+00  1.0153356424390285e+00  1.0439126532184040e+00  1.0299832120537169e+00  1.0201574355493277e+00  1.0222376728061122e+00  1.0465827621490698e+00  1.0381631394575397e+00  1.0334305348632924e+00  1.0321693314134690e+00  1.0314444885719665e+00  1.0414916545267499e+00  1.0446540760721423e+00  1.0465232254999799e+00  1.0443068839431342e+00  1.0424114409285885e+00  1.0415057005206798e+00  1.0391349853010008e+00  1.0442947034145826e+00  1.0551578356112425e+00  1.0963523006698130e+00  1.0419161091433082e+00  1.0294494814003770e+00  1.0331343139498275e+00  1.0483205304326577e+00  1.0537175688212996e+00  1.0585886873505073e+00  1.0495061280742182e+00  1.0617085925616823e+00  1.0490179270431088e+00  1.0457255455236305e+00  1.0597116194711891e+00  1.0987125148289771e+00  1.1293120473638569e+00  1.0446768038680385e+00  1.0434308218973229e+00  1.0377623840563168e+00  1.0390828023684544e+00  1.0451782637229567e+00  1.0644998430275439e+00  1.0860186459520744e+00  1.0844131132921107e+00  1.0652155139945148e+00  1.0885770635758498e+00  1.0981926374783766e+00  1.0594143096672151e+00  1.0641094331673835e+00  1.0807314257484224e+00  1.0950471574624616e+00  1.1350076253494694e+00  1.1369954841595362e+00  1.0538768072997200e+00  1.0539996138034287e+00  1.0461325053375996e+00  1.0550876946878915e+00  1.0514052563947727e+00  1.0681480979512812e+00  1.0857372456260999e+00  1.0956879563142643e+00  1.1111234794310072e+00  1.0996629559009217e+00  1.0856361080973436e+00  1.0877281139636965e+00  1.0804047500900478e+00  1.0713815670345930e+00  1.0683315967571523e+00  1.0799273652658254e+00  1.1217873282085846e+00  1.1441455698979737e+00  1.1403339213951773e+00  1.0758639091370124e+00  1.0693475127743526e+00  1.0706857791748672e+00  1.0489460074329073e+00  1.0954045491695403e+00  1.1052861823919822e+00  1.1170810727834697e+00  1.0921975376555171e+00  1.0906977271703273e+00  1.0697113946509884e+00  1.0434516120088586e+00  1.0942240984813789e+00  1.0931918393994713e+00  1.1044843167396607e+00  1.0817125405843699e+00  1.0711110540616071e+00  1.0843939198026809e+00  1.1047814067619499e+00  1.0792938946644477e+00  1.1017121723963077e+00  1.1386139222701273e+00  1.1556773951273942e+00  1.1600450270471878e+00  1.0668789321324426e+00  1.1230225481939222e+00  1.0982301554891254e+00  1.0962166560517392e+00  1.0922237422970025e+00  1.1009762719264515e+00  1.0755119483401485e+00  1.0682708471791511e+00  1.0672342405386737e+00  1.0701593784371441e+00  1.0896038207621712e+00  1.1416413716144651e+00  1.1699092059633625e+00  1.1200610793188910e+00  1.1022935683388169e+00  1.1186880289818704e+00  1.1414426435242042e+00  1.1588009358317832e+00  1.1442269698958318e+00  1.1341152658785523e+00  1.1268715556021953e+00  1.1026651851796490e+00  1.0945649019370298e+00  1.0537048055442055e+00  1.0358706430346942e+00  1.1055282185681130e+00  1.1022311571893659e+00  1.0963816034337504e+00  1.0934777916663767e+00  1.0936565447551503e+00  1.0818536141556965e+00  1.1239324145631953e+00  1.1019251764021569e+00  1.1767752532553200e+00  1.0857127483575244e+00  1.1234844585136812e+00  1.1216156076870203e+00  1.0793757714538157e+00  1.0506171969674232e+00  1.0388793985996201e+00  1.0717814131489516e+00  1.3004800676993848e+00  1.3428067971547624e+00  1.2726634824502108e+00  1.1417811214710796e+00  1.1452822774815825e+00  1.1482562212110592e+00  1.1545076969504233e+00  1.1427346669578748e+00  1.1529807495715865e+00  1.1119060513310741e+00  1.1065724200075735e+00  1.1333545261885345e+00  1.1124458561637998e+00  1.0814073227030199e+00  1.0647163984784431e+00  1.0522981975376235e+00  1.0515559444684888e+00  1.0460169862527511e+00  1.1025556525271285e+00  1.0928099016015105e+00  1.0917879931663521e+00  1.1085405313276473e+00  1.1442140683346540e+00  1.1877665572982836e+00  1.2949418554518053e+00  1.2621797136494328e+00  1.3249448299114435e+00  1.3639673471791383e+00  1.3624178653315508e+00  1.3260022549995083e+00  1.2549845388481340e+00  1.1848189793137385e+00  1.1665408611813288e+00  1.1833106354088472e+00  1.1614455126549021e+00  1.1892998647355266e+00  1.1782669823863239e+00  1.1985936883632546e+00  1.0934898402170179e+00  1.1104647407517181e+00  1.0979457763030001e+00  1.0761397748889074e+00  1.0671024453142024e+00  1.0611288573434667e+00  1.0504083963856110e+00  1.0874810942553019e+00  1.0968115469524438e+00  1.1177524659905089e+00  1.0966479317687294e+00  1.1016986956699952e+00  1.1664181123938038e+00  1.2382012861616976e+00  1.2477740513105267e+00  1.2251156092917788e+00  1.2398777461471482e+00  1.3071954814143703e+00  1.3754536973413252e+00  1.3502476395994334e+00  1.3027571710978694e+00  1.2353749522422093e+00  1.2675315843550015e+00  1.2610360462954988e+00  1.2289637626833267e+00  1.2506129806250890e+00  1.2362696663875987e+00  1.2524895959181011e+00  1.0956486805764438e+00  1.1095207795842243e+00  1.1097968727377556e+00  1.0927198866602938e+00  1.0843296010593286e+00  1.0691428191854448e+00  1.0548137978421532e+00  1.0824185296244830e+00  1.0991901639478614e+00  1.1524310282696779e+00  1.1174839263427536e+00  1.1221718021058804e+00  1.1755410743647583e+00  1.1745635795094951e+00  1.2068330289667955e+00  1.2272837398129037e+00  1.2572848272031707e+00  1.2639710038626577e+00  1.2571244870573275e+00  1.4932438646655808e+00  1.4652393054103630e+00  1.3816346071690246e+00  1.4411815761972784e+00  1.5356055783962004e+00  1.3393389694909275e+00  1.3489922104640573e+00  1.3142955162338432e+00  1.2903670072077171e+00  1.3307615591897106e+00  1.4139863920313831e+00  1.1074453001694153e+00  1.1238411572193523e+00  1.1248545936255725e+00  1.0897144974994699e+00  1.0804851659982713e+00  1.0640556309310578e+00  1.1033900601121642e+00  1.0913067620537620e+00  1.0911688334437533e+00  1.1074929437963861e+00  1.1882954895466096e+00  1.1871929873496740e+00  1.1257004626895313e+00  1.1326505560597686e+00  1.1989318006721119e+00  1.2016412015379294e+00  1.1923785685545818e+00  1.2079788953487767e+00  1.2445972229971856e+00  1.2507966401100070e+00  1.3511742791194004e+00  1.4168754200635638e+00  1.4845597780926958e+00  1.4239721154438605e+00  1.4081073383031875e+00  1.4648123171697005e+00  1.4140407187822088e+00  1.4015329489593766e+00  1.5649410368501950e+00  1.4858885287185912e+00  1.3847594438116093e+00  1.3392532676620506e+00  1.3512918445923769e+00  1.4675242283118271e+00  1.5280740283599894e+00  1.1113979444543118e+00  1.1303330067788566e+00  1.1689192814450811e+00  1.1526869251756080e+00  1.1044228067208224e+00  1.1054243822001282e+00  1.1500505713825526e+00  1.1663968235987829e+00  1.1774063355367390e+00  1.1426359639969432e+00  1.1592386412382298e+00  1.1022324188289101e+00  1.0705938662964170e+00  1.0734411233299828e+00  1.0681178155335076e+00  1.2184003445410536e+00  1.3442999185505182e+00  1.2375683821228340e+00  1.2415745514525633e+00  1.3805603938860775e+00  1.4819053253113517e+00  1.3764864249828401e+00  1.4076774323718044e+00  1.5057407616129652e+00  1.4882205573026197e+00  1.3939396134223743e+00  1.4286015198538582e+00  1.3642082222567700e+00  1.3740966230215739e+00  1.4683945645160668e+00  1.4418454590646215e+00  1.5173583298258957e+00  1.4054339862697436e+00  1.3653292662831027e+00  1.4040949371644491e+00  1.4643755527131705e+00  1.1732298624975321e+00  1.1259969833780541e+00  1.1001482299213867e+00  1.0732697812875549e+00  1.0643312016112232e+00  1.0592162741035813e+00  1.0581738217895023e+00  1.0524635262140349e+00  1.1490741101369344e+00  1.1048823252457247e+00  1.1270251961377513e+00  1.1468884353917741e+00  1.1604951349070520e+00  1.3895241358455404e+00  1.4277746847899009e+00  1.2998737266464762e+00  1.3267657123894068e+00  1.3881060524559146e+00  1.4273802996001206e+00  1.4209060350800353e+00  1.4215156792162984e+00  1.5757185158125955e+00  1.7181230445919367e+00  1.8298734192482871e+00  1.5419946646494185e+00  1.4419470560047132e+00  1.4490036350296804e+00  1.4530613867050550e+00  1.4555870835064615e+00  1.3834079305543907e+00  1.4974593420214697e+00  1.5660208726035361e+00  1.5651681834760554e+00  1.4754983853333010e+00  1.4489082752584210e+00  1.4169779786624204e+00  1.1321870892928569e+00  1.1313147054831179e+00  1.1005416544902682e+00  1.1271647294085321e+00  1.1562304867291895e+00  1.1799267864003788e+00  1.2336289788399970e+00  1.2374505712262467e+00  1.2961452865836933e+00  1.3439014429807929e+00  1.3350043905101157e+00  1.4923259638373263e+00  1.4468092838854241e+00  1.5393105244741945e+00  1.4544600356816066e+00  1.6004383386164902e+00  1.4284135790988897e+00  1.0991745429963089e+00  1.0805359832746813e+00  1.0814498323842328e+00  1.0693767562434744e+00  1.0657832609148008e+00  1.0488492061828965e+00  1.0424615934736527e+00  1.9549855066381050e+00  2.1115539745717538e+00  1.6470858217063100e+00  1.4739804199383408e+00  1.4193789994868931e+00  1.4955961643789186e+00  1.5206978714997754e+00  1.1238216110682446e+00  1.1356182220596394e+00  1.0998420356351450e+00  1.0787628909729692e+00  1.0717386295308784e+00  1.0727129313540322e+00  1.0696909333422293e+00  1.0618067474511976e+00  1.0506690032418642e+00  1.0410999331342115e+00  1.1204663439653550e+00  1.1669563819719033e+00  1.2003204496634527e+00  1.1791828300420188e+00  1.2534823181363857e+00  1.3187530103923102e+00  1.3684729083605442e+00  1.4243938668909273e+00  1.4351433637238069e+00  1.6025722745419246e+00  1.5673937219963943e+00  1.4975770092199798e+00  1.5114522725992845e+00  1.9069924581242430e+00  1.8776863564447623e+00  1.6352875880549091e+00  1.1574944633434507e+00  1.1384893533651919e+00  1.1423764576462156e+00  1.1321994782312903e+00  1.0889050353367498e+00  1.0773573196147286e+00  1.0659844207067850e+00  1.0632594602092742e+00  1.0493663157970177e+00  1.0451376537328088e+00  1.0484249423342780e+00  1.0478866274623229e+00  1.2156394968185549e+00  1.1890577292585633e+00  1.1482446907754111e+00  1.2201249190124523e+00  1.2752370721136392e+00  1.4262811810182734e+00  1.4558429400440593e+00  1.6668845777026224e+00  1.6330008165445267e+00  1.4729571397159895e+00  1.5070095683125602e+00  1.5835687005552734e+00  1.5724440535962694e+00  1.1696931760174538e+00  1.2382583227933599e+00  1.1446510827475913e+00  1.1462099769049690e+00  1.2112234798717370e+00  1.2974931149381312e+00  1.4095583150346418e+00  1.5574151638331897e+00  1.4812182260065809e+00  1.5490914046790447e+00  1.6912455217197315e+00  1.5850330114475757e+00  1.5182729615081298e+00  1.5435652001847433e+00  1.1632378650360715e+00  1.1533278670137248e+00  1.1600921406838864e+00  1.1200123198553071e+00  1.0925732339061900e+00  1.0714981209185241e+00  1.0585900316476300e+00  1.0501039965806811e+00  1.0397306859088056e+00  1.0397604099910054e+00  1.0399833115046224e+00  1.0497272322235220e+00  1.0645193591132562e+00  1.2221762338718636e+00  1.1850476430938843e+00  1.1737338793122525e+00  1.2130131992481890e+00  1.2441773775872078e+00  1.5479753874447439e+00  1.7065427624054588e+00  1.5721097476503059e+00  1.7309762786870679e+00  1.8941975632867996e+00  1.7523641893528019e+00  1.1546889787522938e+00  1.1723870877269003e+00  1.1670350545044834e+00  1.1526226987673112e+00  1.1172235946891960e+00  1.0962566859658809e+00  1.0727418776274498e+00  1.0539251138219488e+00  1.0475977024231589e+00  1.0446780446929493e+00  1.0417977345367289e+00  1.0407733066945024e+00  1.0485626057321409e+00  1.0379526684811573e+00  1.2082635239869775e+00  1.1580744075364211e+00  1.1390121813848628e+00  1.1551535111559379e+00  1.1829637171585425e+00  1.1668422371074729e+00  1.1054778026143735e+00  1.0619058369743160e+00  1.0494885824696230e+00  1.0438391669442570e+00  1.0434646665060758e+00  1.0476617072026693e+00  1.0461488908838186e+00  1.0449053332840215e+00  1.0460416402745614e+00  1.2638179850731124e+00  1.2941334813199217e+00  1.2680871595986658e+00  1.4934111719993424e+00  1.6243239024948992e+00  1.6943895864184673e+00  2.1968458900156320e+00  2.2105992109211079e+00  1.8634544405626845e+00  1.1831729785425176e+00  1.1735889811656104e+00  1.1397971426238382e+00  1.1752308000202698e+00  1.2252840204816431e+00  1.1751331729081433e+00  1.1593090182943817e+00  1.1193442351574250e+00  1.0693885060439685e+00  1.0621748365072179e+00  1.0518795079734669e+00  1.0459158168393863e+00  1.0382321857664312e+00  1.0375262234908844e+00  1.0398286253264903e+00  1.0433221330216158e+00  1.0348729938382761e+00  1.0364693614334091e+00  1.0419289565767400e+00  1.2700642075109452e+00  1.2712679817355410e+00  1.3096722020561440e+00  1.3279493510084783e+00  1.4008256266739889e+00  1.5598729946731615e+00  2.4653026852371918e+00  3.1253121327491908e+00  2.8965263929045961e+00  1.1382605968917974e+00  1.1675673239745419e+00  1.1361960290839777e+00  1.1623049847875944e+00  1.1494225114949352e+00  1.1106290837752579e+00  1.0781446310608285e+00  1.0650312363063181e+00  1.0581686669152963e+00  1.0596660498842929e+00  1.0426749932100390e+00  1.0370415254140726e+00  1.0352355274645924e+00  1.0381358236280058e+00  1.0403183794343747e+00  1.0319019547415038e+00  1.0264209043025165e+00  1.1956848842062291e+00  1.1982785550840063e+00  1.2546943994085928e+00  1.3808099174489932e+00  1.3560120781570344e+00  1.4605566993890942e+00  2.3164805477733958e+00  2.9814422944542733e+00  2.1683264986531250e+00  1.9855757313211113e+00  1.1531805276986067e+00  1.1588648587955037e+00  1.1895133781354608e+00  1.1988259997684125e+00  1.2538621079942194e+00  1.4626058592473672e+00  1.5354186932321707e+00  1.9786267241713773e+00  2.1692351817298654e+00  1.8865262233688265e+00  1.4956802939938809e+00  1.5191503299329316e+00  1.1713261221425966e+00  1.1249120557814132e+00  1.1136546834224741e+00  1.1150678107938865e+00  1.0884332142332400e+00  1.0671725490071620e+00  1.0733718032958071e+00  1.0553416089417766e+00  1.0503812049762284e+00  1.0616559569988835e+00  1.0524223061852973e+00  1.0477928513725296e+00  1.0433564281396730e+00  1.0313958860028054e+00  1.0324489534664312e+00  1.0289360355688169e+00  1.0249238179054934e+00  1.0233544340143150e+00  1.0429673031819438e+00  1.1607817751909586e+00  1.2060076213297215e+00  1.1576985678056713e+00  1.1013794518981683e+00  1.0920831681396501e+00  1.0717521554938982e+00  1.0518796864105786e+00  1.0502423440122359e+00  1.0437670218825295e+00  1.0422582317505169e+00  1.0469567424282822e+00  1.0450204467626789e+00  1.0470443458433560e+00  1.0378158674526885e+00  1.0347298077248197e+00  1.0301672986108292e+00  1.0287404629495096e+00  1.0279391622796477e+00  1.0215895291661974e+00  1.0208362202400143e+00  1.2171438252455349e+00  1.2240329214233341e+00  1.3340481094746772e+00  1.2790396332572067e+00  1.3938209080757875e+00  1.4957080808724847e+00  1.5462285777492371e+00  1.7598671750668593e+00  1.7619343698805572e+00  1.6529562675355474e+00  1.4650020590828217e+00  1.3644204532897475e+00  1.3165874891499079e+00  1.1573984944251607e+00  1.1519963761965748e+00  1.1964523217938716e+00  1.3116734106853898e+00  1.3688714654669629e+00  1.3566242136556479e+00  1.3751860176232196e+00  1.5850274577271692e+00  1.7918367333320924e+00  1.7154342683209347e+00  1.6094428672040018e+00  1.6061693406800011e+00  1.5057397048239574e+00  1.5261051734134374e+00  1.5327468570918130e+00  1.3236841101123615e+00  1.2808637173154804e+00  1.1023247149298341e+00  1.1234223250399935e+00  1.0852441323394182e+00  1.0657938007661270e+00  1.0577761969785437e+00  1.0467121769859451e+00  1.0427797227547784e+00  1.0453847554672175e+00  1.0503383899759471e+00  1.0419042844063242e+00  1.0421983185060060e+00  1.0411864943931000e+00  1.0378297966688133e+00  1.0335325621271507e+00  1.0309497292133549e+00  1.0292453249461559e+00  1.0281116366712955e+00  1.0268136390623548e+00  1.0225925295836069e+00  1.0203457145454311e+00  1.1270711963165641e+00  1.1369146228732416e+00  1.1739337332979825e+00  1.2128812649906724e+00  1.2412902739672165e+00  1.3263569668677848e+00  1.3158898951839242e+00  1.3300816292131137e+00  1.3801673472385840e+00  1.5211348081890221e+00  1.4622759560768892e+00  1.5256296573204435e+00  1.4560349555121144e+00  1.5300000296952792e+00  1.5134192600473795e+00  1.3258807291691770e+00  1.2026756137800758e+00  1.1018996645727863e+00  1.0794098830450762e+00  1.0890676829123029e+00  1.0563707822973236e+00  1.0462780272353744e+00  1.0534832208642659e+00  1.0616284421802678e+00  1.0615542000950755e+00  1.0451616967076003e+00  1.0491771903356972e+00  1.0365270068060786e+00  1.0363108747375642e+00  1.0306934023364238e+00  1.0273969755446848e+00  1.0251248969066353e+00  1.0243813072845922e+00  1.0218149857029457e+00  1.1159359645471614e+00  1.1132377390156269e+00  1.1346735781163864e+00  1.1634648348401899e+00  1.1985148197188706e+00  1.1942208959568315e+00  1.2290342424331588e+00  1.2869439253502668e+00  1.3120196750147746e+00  1.3365824664791266e+00  1.3548427260123070e+00  1.3213958085495463e+00  1.2649548128776440e+00  1.2848790512775039e+00  1.3480579067412515e+00  1.3023665234422186e+00  1.2948209985353982e+00  1.2082247649851219e+00  1.1786461255684388e+00  1.1066387564310267e+00  1.0854004764780703e+00  1.0804024629803328e+00  1.0608013245999066e+00  1.0625066611289675e+00  1.0553642162716641e+00  1.0458492759667988e+00  1.0411947302162807e+00  1.0332797193189445e+00  1.0328875300669174e+00  1.0307564694550966e+00  1.0227911599055666e+00  1.0201593615979190e+00  1.0241995342650159e+00  1.0241270925185817e+00  1.1088929400804666e+00  1.1325968305220639e+00  1.1495084762607362e+00  1.1368439160457424e+00  1.1164478135633265e+00  1.0837265615302702e+00  1.0741112462569669e+00  1.0810405643747425e+00  1.0782744761160037e+00  1.0788145982232651e+00  1.0775719329112772e+00  1.0622051398980110e+00  1.0578030540006753e+00  1.0456128014745851e+00  1.0379809564092266e+00  1.0310309160573599e+00  1.0309009579762447e+00  1.0366783623450231e+00  1.0264124470741807e+00  1.0193780386068685e+00  1.0169177878149676e+00  1.0164704009346612e+00  1.0197429167603196e+00  1.1740673250928271e+00  1.1931648131025383e+00  1.1768225155537162e+00  1.1912994757165420e+00  1.2083678737859374e+00  1.2200859449536159e+00  1.2492393560512367e+00  1.2629127050399993e+00  1.2703137496124415e+00  1.2522232630633852e+00  1.2147247304033371e+00  1.1969137687473088e+00  1.2246089580638531e+00  1.2741403953662367e+00  1.2546309638711159e+00  1.2116613340449183e+00  1.2056099354606291e+00  1.0370185830949794e+00  1.1616344475189480e+00  1.1078461806970448e+00  1.0676361258625942e+00  1.0657674565947550e+00  1.0698315768909672e+00  1.0688147937087582e+00  1.0668210505944913e+00  1.0664910892064956e+00  1.0721078732598543e+00  1.0714911473226245e+00  1.0611531981625681e+00  1.0484901574078345e+00  1.0350116472935449e+00  1.0250316734569123e+00  1.0246251983031274e+00  1.0246701914915171e+00  1.0283044681275826e+00  1.0242036044951446e+00  1.0245627541402924e+00  1.0191529391479794e+00  1.0163077845022752e+00  1.0146243053144324e+00  1.0153521023708347e+00  1.1937550558897709e+00  1.1652405570700792e+00  1.1332019999117036e+00  1.1645892584342117e+00  1.1856260845602757e+00  1.1857431854931049e+00  1.1984048094126303e+00  1.2182556991437623e+00  1.2598418033218621e+00  1.2769208683698214e+00  1.2296671874443172e+00  1.2004236523574292e+00  1.1908693420968404e+00  1.2090135233127779e+00  1.3117979374583579e+00  1.2894953845669808e+00  1.2646003356367763e+00  1.2479467219807789e+00  1.1479793148609165e+00  1.1271359661579776e+00  1.1447107316181686e+00  1.1336308994719582e+00  1.1088489464174882e+00  1.1264795167913098e+00  1.1610933571615889e+00  1