<?xml version="1.0"?>
<VTKFile type="UnstructuredGrid"  version="0.1"  >
<UnstructuredGrid>
<Piece  NumberOfPoints="1237" NumberOfCells="2335">
<Points>
<DataArray  type="Float64"  NumberOfComponents="3"  format="ascii">-1 3.09081664739187e-17 0  -0.9843750000000001 0.02706329386826373 0  -0.9586042096960951 -0.0236073080308172 0  -0.9687500000000001 -0.05412658773652738 0  -0.9687499999999999 0.05412658773652741 0  -0.9472957560052226 0.006184170637571083 0  -0.9267582714381279 -0.04141318421241193 0  -0.9316799261084423 -0.07502217834255943 0  -0.9375000000000001 -0.1082531754730548 0  -0.9304535526187879 0.02123269309792843 0  -0.9155919293475937 -0.02097532195701668 0  -0.8901898660228655 -0.05879793213392052 0  -0.8961407092258983 -0.08791682354371629 0  -0.9041593017321125 -0.1150769371767221 0  -0.9062500000000001 -0.1623797632095822 0  -0.9531250000000001 0.08118988160479108 0  -0.890147330991285 -0.0122086527191084 0  -0.8576709175674995 -0.04850009197978337 0  -0.8494979525438807 -0.09201284187231788 0  -0.8688087259335305 -0.1227339854926646 0  -0.8657397003544938 -0.1744307530448399 0  -0.875 -0.2165063509461097 0  -0.9191385500632976 0.05668682295204934 0  -0.9374999999999999 0.1082531754730548 0  -0.8414732086268925 -0.02979075402072296 0  -0.8838615846104741 0.03281364894932847 0  -0.9025993020289615 0.08399522279934024 0  -0.9218749999999999 0.1353164693413185 0  -0.8069091517126806 -0.1063797548106189 0  -0.8227041474082361 -0.1554136366367828 0  -0.8450362008579381 -0.1636153151676399 0  -0.824611073526637 -0.2087806554713395 0  -0.8432447828874938 -0.2299625171474235 0  -0.8437500000000001 -0.270632938682637 0  -0.8074688489602485 -0.04534311577063995 0  -0.7748599739446962 -0.09147609870793595 0  -0.7599743974004342 -0.1515693530204255 0  -0.7874243887323827 -0.1486997295560047 0  -0.7740096897566618 -0.1902442517032015 0  -0.7982566063220082 -0.2018609305277571 0  -0.7939958243211587 -0.243248178868526 0  -0.8033953092403587 -0.2739516347679044 0  -0.8125000000000002 -0.3247595264191645 0  -0.8481685757897792 0.03463580614500975 0  -0.8763526826359844 0.09829521691979071 0  -0.9062500000000001 0.1623797632095823 0  -0.7872217742390745 -0.03024195936296309 0  -0.7565548600439893 -0.06556774174670035 0  -0.7280367863186943 -0.1046281989307924 0  -0.7428557301118698 -0.1326576576268934 0  -0.7130575397441211 -0.2080743084118526 0  -0.7425045269468755 -0.2040970945489534 0  -0.7674851701419854 -0.2290293682917657 0  -0.7599986833552189 -0.2682349390602705 0  -0.7616526459078594 -0.3305135978123668 0  -0.7812500000000001 -0.378886114155692 0  -0.816253599818404 0.01031925268654644 0  -0.8190007077644565 0.05195524742955143 0  -0.8424384387483641 0.09512493014350837 0  -0.8689593925676488 0.1377994471097691 0  -0.890625 0.1894430570778459 0  -0.7410175419981699 -0.05005547045971393 0  -0.6820539222728559 -0.1168108160858607 0  -0.6757831681120814 -0.161343132024619 0  -0.7066615444436462 -0.1644905737066079 0  -0.6637898688950368 -0.220644916152676 0  -0.6744004859163939 -0.2587362859831477 0  -0.7325446303104611 -0.2447371505997974 0  -0.7216022609970536 -0.292027783035909 0  -0.7407903637588057 -0.3123505827564781 0  -0.7035881363438097 -0.356533874799312 0  -0.7288120197725808 -0.392133095104917 0  -0.75 -0.4330127018922193 0  -0.7897359628532806 0.006725954256448229 0  -0.7972623766874077 0.06341714755367762 0  -0.8304362309430872 0.1129567769931919 0  -0.8421684945059275 0.1611058176776091 0  -0.8750000000000001 0.2165063509461097 0  -0.7637447900489446 0.0084055150883772 0  -0.7027910536312951 -0.05387662733901926 0  -0.6399011514174923 -0.1176136647146791 0  -0.6199508075525719 -0.1685360793359413 0  -0.6333977552331249 -0.1967451137076092 0  -0.619216095826812 -0.2480485729726879 0  -0.6276040039072337 -0.2883488704175591 0  -0.6261231993592246 -0.3335289324385786 0  -0.6865068439078151 -0.2949080438254524 0  -0.6907604947283688 -0.3285687191624082 0  -0.6650087872471667 -0.3699552850214223 0  -0.6798435707998647 -0.4026405874050478 0  -0.7050830176678921 -0.447022367558788 0  -0.7187499999999999 -0.4871392896287467 0  -0.7723498686347566 0.07044317118097282 0  -0.8017262003913778 0.122128289958322 0  -0.8169126563784805 0.1693170073489986 0  -0.8593750000000001 0.2435696448143733 0  -0.7259809026153086 0.008482836968837627 0  -0.6740418109022589 -0.02450688559989462 0  -0.7223115334823216 0.04936346203485886 0  -0.7572899881178878 0.1097950588389946 0  -0.7734646598732114 0.1561617258837397 0  -0.8083562768108126 0.2049421991290764 0  -0.84375 0.270632938682637 0  -0.6660887510003569 -0.06759964205641175 0  -0.6171961871067949 -0.09908864551504318 0  -0.5833829368075305 -0.1731805645520128 0  -0.5851671105835449 -0.224515763015499 0  -0.5727138940289876 -0.2779087493001106 0  -0.5801058985757366 -0.3174797115370438 0  -0.57948544680462 -0.3632267691333948 0  -0.6267964734590343 -0.3775121834136309 0  -0.6398433230386719 -0.4169421315431633 0  -0.6616426493335408 -0.4488274832297308 0  -0.6803761222242836 -0.4915582867438201 0  -0.6875 -0.5412658773652741 0  -0.6566148164134606 -0.3360342982328451 0  -0.6542800869698886 0.003633874519227934 0  -0.6158214682809207 -0.05883418227773253 0  -0.5750967197363078 -0.0918766710651954 0  -0.5702619644256461 -0.1314570888217494 0  -0.5310796517017504 -0.1985334532999667 0  -0.5379237787887492 -0.2420866834293268 0  -0.5516118004787688 -0.2643356959406811 0  -0.5219299366261414 -0.3074188372821275 0  -0.5441569679299709 -0.3203940814531961 0  -0.544846265790987 -0.3611331944285065 0  -0.5114751055162018 -0.4066686830605467 0  -0.5298500409650213 -0.4384707797967484 0  -0.5794737256993363 -0.4086737180861368 0  -0.6054298025247353 -0.4197528954248557 0  -0.592710431245361 -0.4609848902618885 0  -0.6134133603589965 -0.4927681039827594 0  -0.6393590131426583 -0.5198261223711328 0  -0.6438736370520471 -0.5600300692022314 0  -0.65625 -0.5953924651018015 0  -0.6961199877549025 0.06467019448070167 0  -0.7322688722710476 0.1241970790870847 0  -0.7614677067674487 0.1843417562313635 0  -0.7982098286578407 0.241597904092872 0  -0.828125 0.2976962325509007 0  -0.6121569899603913 -0.02049935287448479 0  -0.5680093344887456 -0.06210558644879417 0  -0.5296938028141881 -0.1373067408269198 0  -0.4901525291003586 -0.1955789237044915 0  -0.4746183446720159 -0.2428634803524866 0  -0.4858590591960716 -0.2715088080329482 0  -0.4715952226353661 -0.3270718944547512 0  -0.4874270099800481 -0.3483793786947822 0  -0.480078652051836 -0.4044778124091272 0  -0.5107966792581313 -0.3607592194079098 0  -0.6351984073276686 0.03037645136060999 0  -0.6919512395101405 0.1148619971399276 0  -0.7371035741994222 0.1934824949257085 0  -0.7677243675294183 0.2452436239691324 0  -0.8125000000000001 0.3247595264191646 0  -0.5070956227453038 -0.2856926586873541 0  -0.4592753826052925 -0.4489578951960593 0  -0.4551538480224278 -0.4879280476876971 0  -0.4870834355975865 -0.4924138429753193 0  -0.5543645851211818 -0.4600201827899537 0  -0.5636063113133203 -0.5062314567180716 0  -0.5722394951023636 -0.540723915347752 0  -0.6004398475588687 -0.5639514773360513 0  -0.6165119354103209 -0.6003123312214718 0  -0.625 -0.6495190528383291 0  -0.5850968043587489 -0.01747042289921243 0  -0.5715475053296581 0.003755875240688324 0  -0.632542541699327 0.08118252107995054 0  -0.6715186710197373 0.1292199759178416 0  -0.6982974014086432 0.1789827939308964 0  -0.7309041627521532 0.2234419242184485 0  -0.760853516405614 0.2792464453234507 0  -0.7607023230601084 0.3093962646126385 0  -0.7968750000000001 0.3518228202874282 0  -0.5264933157473631 -0.08231084764042879 0  -0.493638060994832 -0.1339939179799725 0  -0.4589626054281711 -0.1957888821520802 0  -0.438352019728192 -0.2427967943470546 0  -0.4349603537871217 -0.2905998917905525 0  -0.4340727913783781 -0.3307406261902842 0  -0.3931940322566967 -0.3797355265396843 0  -0.4328932475453516 -0.4073381105917769 0  -0.415502513600294 -0.4580373266102869 0  -0.385415281901366 -0.511073437509846 0  -0.3881529845957117 -0.5477450464703199 0  -0.4322278898459536 -0.5328927439743946 0  -0.4708621541874918 -0.5447008496340244 0  -0.5212781730861482 -0.509033783025311 0  -0.5273194299998638 -0.5485603521097303 0  -0.5234826944144788 -0.5932528774620949 0  -0.5625853138775753 -0.5789028834579788 0  -0.5740199804033532 -0.6134996816985621 0  -0.5765847191201461 -0.6564593508420057 0  -0.59375 -0.7036456405748563 0  -0.5800862410227176 0.06953847272188511 0  -0.62345922728912 0.1087748024732029 0  -0.6592027535596012 0.1483415294528432 0  -0.7030117102084296 0.2220614128747072 0  -0.7211245865447338 0.2726260665754737 0  -0.7293612713284667 0.3214771290950779 0  -0.7890625000000001 0.3653544672215601 0  -0.5497332796675871 0.02526608106074905 0  -0.53018493643993 -0.01879708202667862 0  -0.5023738120312831 -0.06929095084794874 0  -0.4543086626793323 -0.1501783646722772 0  -0.4248556544311721 -0.2001778118037034 0  -0.3836034551939345 -0.2834399929263637 0  -0.3735195503155113 -0.3423773121212576 0  -0.3164083588907829 -0.4085503075097236 0  -0.3374441431234344 -0.4358308634994116 0  -0.3563643403403329 -0.4652367397589351 0  -0.3293009761387771 -0.5276556289563349 0  -0.3139040252508816 -0.5855140438576723 0  -0.366730554445017 -0.5948349816197472 0  -0.4217402740883738 -0.5900354366832488 0  -0.4753932323153703 -0.5864582514369745 0  -0.4778516850572023 -0.6318307895279576 0  -0.5087154203841168 -0.6499046400010015 0  -0.5448706663656597 -0.6492816546120687 0  -0.529090650986931 -0.6944022548983919 0  -0.5447409078977913 -0.7268187065901833 0  -0.5625000000000001 -0.7577722283113839 0  -0.5918572054463975 0.1338101643626165 0  -0.6347680448791199 0.1520640736039057 0  -0.6649299767989149 0.2164013530528183 0  -0.6741572651241856 0.2686102951723429 0  -0.6789476455262888 0.321375691006909 0  -0.7254508777365434 0.3530655186058727 0  -0.7812499999999999 0.3788861141556918 0  -0.5377716048704266 0.05272672813330151 0  -0.5104530844077947 -0.001526069099174808 0  -0.46319401157798
[...]
<PointData  Scalars="w"> 
<DataArray  type="Float64"  Name="w"  format="ascii">1.0115723589479713e+00  1.0105003052659158e+00  1.0109575778712894e+00  1.0114112554315831e+00  1.0091515812019782e+00  1.0104790928845364e+00  1.0118992513902230e+00  1.0115808800424302e+00  1.0117300869687853e+00  1.0114736811953580e+00  1.0140970621444787e+00  1.0167451515594965e+00  1.0144632250965682e+00  1.0135181380599609e+00  1.0152441938936838e+00  1.0094574529346882e+00  1.0210705476141249e+00  1.0262158832271193e+00  1.0247402026002370e+00  1.0177522497766456e+00  1.0177666276086601e+00  1.0172995261993283e+00  1.0120628255783544e+00  1.0110711140115447e+00  1.0288794699240591e+00  1.0208709185427531e+00  1.0140631188277613e+00  1.0148411012119636e+00  1.0302785827959835e+00  1.0236459076499096e+00  1.0210215740696920e+00  1.0198477395617931e+00  1.0193614086025213e+00  1.0240891519235773e+00  1.0293816048212954e+00  1.0298154964956419e+00  1.0278117950804140e+00  1.0264040954322287e+00  1.0249323071921548e+00  1.0235316613514116e+00  1.0259011368842375e+00  1.0311422072612377e+00  1.0513029346015468e+00  1.0285558348861559e+00  1.0188637433196477e+00  1.0211235725705110e+00  1.0308575924995043e+00  1.0341200139896423e+00  1.0380218801326280e+00  1.0320041317885449e+00  1.0394797413384587e+00  1.0301305770989435e+00  1.0269252669762299e+00  1.0343948858398231e+00  1.0527173087371617e+00  1.0687479575178513e+00  1.0293137139282624e+00  1.0269203875573856e+00  1.0225215310345486e+00  1.0244213118138106e+00  1.0279449261422133e+00  1.0410472082770603e+00  1.0573793145433312e+00  1.0566987646021864e+00  1.0432956375044153e+00  1.0569470116526720e+00  1.0602576501073295e+00  1.0352707387671827e+00  1.0363085063010395e+00  1.0439341059413347e+00  1.0517768907031895e+00  1.0731728089161068e+00  1.0745860061456605e+00  1.0335645773230007e+00  1.0318613933965159e+00  1.0264107148542891e+00  1.0317338306983452e+00  1.0293479719724914e+00  1.0423974945533909e+00  1.0564478042984209e+00  1.0630219244064103e+00  1.0752076117554576e+00  1.0667622069459950e+00  1.0553259684739771e+00  1.0559159276956198e+00  1.0496699395315501e+00  1.0418510894009576e+00  1.0383263182146139e+00  1.0457319830024541e+00  1.0682391824464892e+00  1.0794391069233007e+00  1.0778531770610544e+00  1.0441323683399300e+00  1.0378712906790808e+00  1.0379011368345512e+00  1.0278906773629606e+00  1.0604646619556113e+00  1.0667137000871334e+00  1.0697461093749179e+00  1.0503032123351450e+00  1.0484642093826213e+00  1.0381134924625577e+00  1.0255075184504212e+00  1.0612099419169987e+00  1.0631985606550522e+00  1.0766806077397248e+00  1.0562235021826885e+00  1.0487029157744150e+00  1.0581325314983225e+00  1.0695162431135978e+00  1.0493217536732886e+00  1.0632531230952458e+00  1.0791796834223428e+00  1.0882138763953566e+00  1.0915998262014361e+00  1.0392189588532792e+00  1.0763425992460547e+00  1.0672604174759663e+00  1.0728974473876327e+00  1.0705452025978424e+00  1.0840899730250417e+00  1.0576021623634557e+00  1.0486059969916977e+00  1.0492987441541912e+00  1.0500047317395427e+00  1.0648326024261781e+00  1.1139655948839591e+00  1.1237825776252910e+00  1.0804868682678006e+00  1.0672930718778224e+00  1.0762864752625414e+00  1.0836557595796548e+00  1.0916153145709322e+00  1.0845483636719737e+00  1.0802882848034070e+00  1.0749395506151012e+00  1.0576282704124664e+00  1.0510839165392789e+00  1.0301652580877163e+00  1.0207720735110355e+00  1.0722291027841677e+00  1.0784566273591805e+00  1.0796114093784244e+00  1.0798428312000525e+00  1.0803648931988210e+00  1.0667498458896876e+00  1.1036804789495005e+00  1.0847485025330237e+00  1.1541907454189160e+00  1.0680563126652545e+00  1.0789099181715347e+00  1.0709237975310648e+00  1.0436645853856039e+00  1.0281390705951967e+00  1.0218264720793946e+00  1.0547475565812747e+00  1.2656847381715475e+00  1.2992812442663064e+00  1.2156427455011725e+00  1.0944988270185925e+00  1.0911910189729082e+00  1.0932644738673101e+00  1.0970467811916829e+00  1.0917463103591576e+00  1.1000349543375951e+00  1.0830526338172004e+00  1.0827665726474285e+00  1.0871534886598369e+00  1.0677127801932818e+00  1.0476249299605127e+00  1.0360624899371036e+00  1.0283457273622176e+00  1.0278192230795824e+00  1.0249400075951969e+00  1.0861788065063118e+00  1.0807989635399966e+00  1.0818882305882236e+00  1.1002098016140944e+00  1.1287524837826557e+00  1.1649438026185701e+00  1.2713034464685198e+00  1.2382586054545071e+00  1.2961588641996149e+00  1.3384345040545780e+00  1.3322025156111452e+00  1.2892063290532498e+00  1.1980712961568332e+00  1.1302486707691723e+00  1.1148816715857930e+00  1.1381124018376645e+00  1.1152542829324235e+00  1.1365769674606438e+00  1.1260691243913572e+00  1.1403597213074224e+00  1.0693436613688880e+00  1.0763077623280766e+00  1.0603045428167548e+00  1.0433018674928154e+00  1.0377566888001337e+00  1.0335223190343277e+00  1.0269818245890934e+00  1.0688557188950019e+00  1.0806105188734589e+00  1.0981467532598490e+00  1.0838360060820493e+00  1.0926590470203006e+00  1.1595258638951846e+00  1.2192452097815925e+00  1.2640717379770725e+00  1.2312604154673308e+00  1.2378127734237054e+00  1.3221614377243553e+00  1.3831480594584769e+00  1.3164742492742574e+00  1.2465708969252469e+00  1.1752905524635204e+00  1.2086160650405453e+00  1.2030508492971854e+00  1.1715430009474754e+00  1.1921308706430143e+00  1.1789576328093236e+00  1.1965692937525307e+00  1.0696215836819718e+00  1.0688973790812946e+00  1.0643456149415660e+00  1.0562366090472151e+00  1.0496786961204474e+00  1.0385726029434812e+00  1.0294581226101804e+00  1.0630250947045876e+00  1.0812276983008631e+00  1.1232727273395138e+00  1.0987009140348796e+00  1.1107057339276702e+00  1.1743113620428305e+00  1.1747119239055668e+00  1.2072520893420338e+00  1.2515115052357384e+00  1.2878542670150199e+00  1.2897033941302412e+00  1.2762985995550915e+00  1.5584879281113078e+00  1.5488406669564057e+00  1.3889920912781000e+00  1.4335626510933452e+00  1.4771704652465354e+00  1.2794563325847503e+00  1.2972971448778039e+00  1.2559888838220112e+00  1.2294305890008144e+00  1.2763939002969058e+00  1.3639957685238098e+00  1.0717132289213291e+00  1.0781589870631405e+00  1.0758049482551013e+00  1.0547093333082809e+00  1.0472688214056920e+00  1.0362586250823613e+00  1.0722907445953687e+00  1.0669242441449556e+00  1.0693824484223364e+00  1.0890308188208644e+00  1.1559061694826605e+00  1.1535830220958485e+00  1.1083775993798197e+00  1.1315581840575410e+00  1.2145943163016619e+00  1.2261346469722660e+00  1.2048616195401767e+00  1.2356358665300227e+00  1.2938176234606356e+00  1.2951730655426368e+00  1.4150295729206703e+00  1.4639602458967136e+00  1.5386355495749215e+00  1.4950020046756585e+00  1.4930080200783034e+00  1.5720019679840822e+00  1.5091579613861836e+00  1.4493048206526606e+00  1.5345647954536714e+00  1.4481110552260470e+00  1.3615154254525061e+00  1.2839137645424672e+00  1.2925359060804160e+00  1.4237807391993598e+00  1.4885749505062953e+00  1.0689288747417081e+00  1.0866290361145656e+00  1.1090903113724033e+00  1.1059367839630607e+00  1.0767120592667534e+00  1.0870597049397765e+00  1.1290582709745376e+00  1.1577504525203435e+00  1.1879730774222643e+00  1.1296982192260963e+00  1.1021209069474021e+00  1.0632902513873004e+00  1.0473811631476933e+00  1.0459915210828827e+00  1.0414530018820620e+00  1.2370421653591881e+00  1.3967849606832978e+00  1.2775169928535222e+00  1.2928728076042693e+00  1.4973375474713519e+00  1.6423282513684625e+00  1.4771735987887633e+00  1.4990088403371169e+00  1.6088265179004397e+00  1.6040409243401683e+00  1.4792722508905483e+00  1.5119975548264530e+00  1.4146891309572502e+00  1.4038883815416301e+00  1.4869605016319551e+00  1.4370476197568891e+00  1.5242254502346411e+00  1.3935169593143044e+00  1.3203992448261606e+00  1.3663789726905535e+00  1.4287241223760370e+00  1.1159409208009086e+00  1.0921513489798531e+00  1.0663975012951665e+00  1.0500381750031320e+00  1.0470846799631481e+00  1.0434511127355088e+00  1.0395631672974290e+00  1.0346993676062402e+00  1.1140130505921693e+00  1.0846675788822842e+00  1.1142410863642669e+00  1.1453117841828095e+00  1.1700386823854836e+00  1.4418106368061407e+00  1.5024985506814088e+00  1.3800299762123154e+00  1.3829866410062557e+00  1.4372665306153196e+00  1.5927268334435198e+00  1.5731119224995949e+00  1.5333170929072895e+00  1.7456662610933726e+00  1.9287757872393898e+00  2.0764279410556097e+00  1.6833415119480974e+00  1.5395990094239740e+00  1.4961919375055477e+00  1.5091901041394025e+00  1.4834954392297006e+00  1.4145442097902279e+00  1.5283862753084114e+00  1.5799572835406532e+00  1.5760728736152230e+00  1.4652699026080647e+00  1.4358606477488198e+00  1.5654730825044205e+00  1.1030447196996145e+00  1.1060379596531595e+00  1.0906841057273986e+00  1.1239276324829717e+00  1.1616838944529344e+00  1.1928945164074050e+00  1.2670678750415405e+00  1.2871597220753344e+00  1.3600590516648832e+00  1.4325044007084109e+00  1.4372434944741099e+00  1.6681817350854453e+00  1.6355045760382296e+00  1.7871918256426014e+00  1.6600607750067455e+00  1.8243780963358949e+00  1.5715470646007139e+00  1.0747225542987495e+00  1.0615449553103529e+00  1.0562739459928758e+00  1.0496000115725186e+00  1.0489379791892257e+00  1.0356631241820204e+00  1.0301748706625176e+00  2.2619978726908592e+00  2.4528211459445211e+00  1.8248222151971893e+00  1.5973616891149769e+00  1.5173808785032126e+00  1.5290052648768049e+00  1.5335204514177314e+00  1.1080849777967672e+00  1.1208937454398491e+00  1.0821761215324173e+00  1.0625116356139896e+00  1.0565922421593690e+00  1.0533133836392319e+00  1.0517326981193795e+00  1.0458586233059610e+00  1.0370654546285634e+00  1.0284992002672542e+00  1.1149431527716529e+00  1.1688069134438257e+00  1.2056405372247907e+00  1.2132580075422901e+00  1.3295999670969445e+00  1.4293570604816614e+00  1.4905107731879015e+00  1.6048543843820691e+00  1.6485831038724357e+00  1.9058508815846231e+00  1.8790267840209138e+00  1.7356260867024718e+00  1.7615461643944541e+00  2.2811381704382536e+00  2.2873929848237151e+00  1.8344278477208888e+00  1.1503953424923503e+00  1.1331651914714891e+00  1.1285136401498157e+00  1.1121581174341315e+00  1.0729698943910502e+00  1.0650610083762042e+00  1.0520574918862895e+00  1.0478253013434287e+00  1.0361222659937523e+00  1.0324685214223754e+00  1.0336418019568152e+00  1.0310737498612077e+00  1.2143760608508563e+00  1.2106256804551556e+00  1.1985776706781008e+00  1.3008973440424467e+00  1.3826963912970403e+00  1.5956720921883449e+00  1.7014081952932396e+00  2.0238984411908625e+00  1.9759073151051381e+00  1.7014944477495351e+00  1.7740714992300608e+00  1.8445393566079278e+00  1.8512714358909999e+00  1.1679914160632434e+00  1.2472053439747000e+00  1.1903581315210228e+00  1.2185722064906916e+00  1.3166092962361853e+00  1.4363001383063103e+00  1.5866345409414808e+00  1.8123520697859115e+00  1.7310587119271990e+00  1.8469169895455124e+00  2.0718279642876141e+00  1.9273703369368913e+00  1.8403526501952632e+00  1.8015213136797021e+00  1.1686385817732143e+00  1.1445326018299016e+00  1.1416261212749050e+00  1.1062326818766373e+00  1.0875553781750200e+00  1.0608262063094243e+00  1.0450665076539605e+00  1.0367668152817460e+00  1.0280541326012906e+00  1.0281014678001774e+00  1.0267636103699049e+00  1.0312873737342674e+00  1.0508302352190642e+00  1.2368981387490672e+00  1.2178763948290905e+00  1.2477873739991563e+00  1.3467551661470798e+00  1.3837685457323583e+00  1.7988229895493566e+00  2.0050092367722359e+00  1.8539726682658000e+00  2.1758056208094447e+00  2.4662591401311151e+00  2.2777880492715581e+00  1.1853678476566958e+00  1.1689196190004854e+00  1.1650362080763976e+00  1.1402647553266096e+00  1.1096772457974868e+00  1.0908080047742370e+00  1.0686054523436748e+00  1.0446399789235017e+00  1.0359057982696993e+00  1.0321584297228841e+00  1.0276914836815594e+00  1.0261431283620499e+00  1.0300323895769279e+00  1.0255242040938721e+00  1.2425737049707739e+00  1.2009062982295342e+00  1.1806829361172060e+00  1.1704051505996809e+00  1.1883026455572232e+00  1.1568451330136844e+00  1.0966104185582564e+00  1.0563379321345432e+00  1.0415172633397023e+00  1.0339605798756981e+00  1.0316349249033774e+00  1.0327065933140853e+00  1.0306618854779175e+00  1.0285542409065851e+00  1.0285589577678849e+00  1.3821257464260397e+00  1.4600879297547606e+00  1.4317998154299227e+00  1.7401334463475324e+00  1.9166619312097521e+00  1.9891213445791034e+00  3.0368382805396927e+00  3.1743562297332693e+00  2.3174014326654562e+00  1.2353315457364862e+00  1.2437597866664230e+00  1.1959210774969276e+00  1.2039497090340170e+00  1.2292758205064547e+00  1.1974073051290417e+00  1.1422715419783260e+00  1.1023982404987089e+00  1.0597213690817311e+00  1.0545336671556513e+00  1.0427241439358297e+00  1.0346065058472069e+00  1.0275054077765600e+00  1.0270354035946538e+00  1.0285249177390197e+00  1.0294466277332412e+00  1.0234779641476968e+00  1.0237223522172034e+00  1.0308807493522367e+00  1.3979750702492442e+00  1.4239237049348128e+00  1.4959732950358446e+00  1.5356532880128326e+00  1.6498810722758108e+00  1.8159383722193700e+00  3.1283450061864078e+00  4.5347650566777702e+00  4.2757182064097199e+00  1.1897916929916348e+00  1.1983585000232422e+00  1.1551209784775940e+00  1.1738960760050432e+00  1.1384904428494318e+00  1.0985075458153304e+00  1.0667482419286265e+00  1.0519579271047264e+00  1.0473240445105980e+00  1.0460765703117532e+00  1.0314413787173771e+00  1.0269047338326276e+00  1.0256863924546433e+00  1.0279927065759427e+00  1.0296985509284404e+00  1.0227720703674414e+00  1.0181897917907081e+00  1.2884316217865868e+00  1.3028932729534766e+00  1.3969726678019387e+00  1.6010465105759835e+00  1.6004238627567229e+00  1.7303764623894147e+00  2.8941389815011269e+00  4.2866077174671062e+00  3.0567728862639396e+00  2.7640227415271830e+00  1.2178014026960804e+00  1.2073800080305801e+00  1.2587781066132087e+00  1.2856114203870377e+00  1.3885453396024707e+00  1.6730767118060148e+00  1.8415223842627204e+00  2.3763242384369305e+00  2.8310268586243246e+00  2.5675356814724788e+00  1.9954570302186543e+00  1.9281869221452734e+00  1.1940874132466730e+00  1.1275257497752469e+00  1.1246561721049713e+00  1.1206106677927539e+00  1.0893015496746226e+00  1.0620623712892927e+00  1.0648277992088178e+00  1.0472854367392779e+00  1.0401978644947159e+00  1.0479901807852035e+00  1.0394611079088989e+00  1.0347848592976305e+00  1.0315539692727578e+00  1.0234396802700538e+00  1.0238481834005559e+00  1.0213012730325381e+00  1.0180556131724372e+00  1.0164964366319591e+00  1.0311527529689042e+00  1.2272235940847620e+00  1.2460004690030049e+00  1.1613151962520936e+00  1.1021628140504132e+00  1.0948745545689265e+00  1.0699839649457734e+00  1.0461860323347689e+00  1.0434294788862570e+00  1.0348093323016383e+00  1.0323600748766417e+00  1.0362833115111418e+00  1.0340594147099809e+00  1.0346331908836690e+00  1.0284786167266211e+00  1.0260172801827609e+00  1.0229119286861923e+00  1.0218535711982331e+00  1.0203253408850321e+00  1.0158022374214062e+00  1.0150055098363890e+00  1.2875024752398434e+00  1.2959695366229715e+00  1.4035739774692186e+00  1.3958053507645998e+00  1.5423636918978838e+00  1.7001942288477467e+00  1.8193830002461804e+00  2.0495669159022381e+00  2.1138945968206966e+00  2.1373920116739247e+00  1.9091047552931300e+00  1.7869300691479129e+00  1.6173613103094326e+00  1.1809020822268559e+00  1.1882499331695817e+00  1.2492891643464012e+00  1.3564284797810822e+00  1.4554796079128924e+00  1.4661620747383162e+00  1.5039612760734149e+00  1.8091876863876366e+00  2.0932787267105621e+00  1.9909720315891528e+00  1.8702989762785753e+00  1.9333678811909931e+00  1.9383162384455719e+00  2.0060013078266024e+00  2.0539823235343477e+00  1.7299922083502315e+00  1.6411742072435793e+00  1.1053545440278718e+00  1.1306288319846005e+00  1.0843172078071797e+00  1.0624249353432336e+00  1.0521024907252656e+00  1.0388767087203374e+00  1.0335224027063086e+00  1.0335626149116708e+00  1.0365353630299203e+00  1.0313198476463892e+00  1.0311726068092240e+00  1.0299095360412138e+00  1.0274607501859205e+00  1.0254701368856136e+00  1.0234167982582365e+00  1.0222968806510524e+00  1.0215224349566248e+00  1.0199919534963895e+00  1.0168885974183957e+00  1.0151755593618614e+00  1.1378467609046612e+00  1.1592406999393290e+00  1.2040612227233929e+00  1.2290249699397482e+00  1.2689131067603860e+00  1.4033439992441779e+00  1.3956728101928009e+00  1.4278000786737977e+00  1.5119291304876756e+00  1.7102165005789813e+00  1.6485945351373574e+00  1.7784283451724741e+00  1.7405099340619541e+00  1.9509793978028172e+00  1.9675293115537538e+00  1.7136120310115246e+00  1.4076072650436589e+00  1.0985718305567731e+00  1.0757909835695814e+00  1.0795992168112447e+00  1.0459601990201779e+00  1.0353771872839641e+00  1.0377251465901882e+00  1.0434513428541197e+00  1.0433035258802195e+00  1.0327413092565985e+00  1.0341915320815493e+00  1.0264180534326288e+00  1.0268758197681145e+00  1.0234827595506075e+00  1.0215441471665869e+00  1.0194864679853679e+00  1.0185525903286616e+00  1.0166516002732622e+00  1.1208422386165713e+00  1.1129661110247440e+00  1.1383068240045020e+00  1.1664065019927921e+00  1.1939287971289561e+00  1.1947515935546100e+00  1.2507392014172503e+00  1.3274025508045628e+00  1.3850471837654872e+00  1.4448077023754622e+00  1.4975698658734553e+00  1.4661977441965457e+00  1.4136945698298009e+00  1.4678974053096769e+00  1.5795216307222033e+00  1.5429357869777804e+00  1.5801054701604160e+00  1.3919040166056902e+00  1.3303544353371675e+00  1.0964734052760576e+00  1.0654795562895936e+00  1.0600330091366623e+00  1.0443374544443171e+00  1.0442486558484061e+00  1.0406064599131082e+00  1.0340997479592240e+00  1.0294356442168247e+00  1.0244213931698227e+00  1.0247414750701371e+00  1.0239941740213099e+00  1.0182802502627182e+00  1.0162287050750336e+00  1.0189987650259265e+00  1.0185640319860632e+00  1.0959216710809192e+00  1.1265836381001413e+00  1.1392936363711672e+00  1.1276884224329031e+00  1.0976474673121028e+00  1.0664185524076182e+00  1.0602356467293363e+00  1.0614786714862514e+00  1.0574065982135696e+00  1.0575950235703875e+00  1.0564763216913713e+00  1.0448932992676176e+00  1.0413214599984124e+00  1.0342501199281064e+00  1.0298913051809837e+00  1.0236711573562829e+00  1.0233095611445961e+00  1.0278367104137864e+00  1.0207358085169487e+00  1.0158174040327195e+00  1.0138882680440640e+00  1.0135406965707106e+00  1.0159536008389320e+00  1.1501469873597649e+00  1.1736913300627834e+00  1.1646618321646445e+00  1.1891596628285792e+00  1.2090195791377172e+00  1.2323818799497752e+00  1.2966936965467122e+00  1.3395763292760392e+00  1.3713632151629331e+00  1.3669290942914945e+00  1.3305844493175865e+00  1.2951161942533536e+00  1.3423010225699992e+00  1.4465521190917114e+00  1.4474159240037809e+00  1.3791936032267982e+00  1.3395283869814787e+00  1.0277191596278861e+00  1.1304277585224236e+00  1.0798066070066079e+00  1.0509360096774127e+00  1.0478882258885809e+00  1.0499926668054331e+00  1.0482924824816002e+00  1.0472129715736354e+00  1.0447452222078730e+00  1.0495193512582606e+00  1.0499374474149372e+00  1.0411231683709252e+00  1.0348698072842391e+00  1.0263181820694505e+00  1.0191908951771120e+00  1.0191473119618999e+00  1.0187814417099321e+00  1.0219985305094457e+00  1.0194611201159427e+00  1.0202768754746807e+00  1.0158788911861458e+00  1.0135235558701476e+00  1.0122081082193870e+00  1.0127569546757857e+00  1.1393360090196107e+00  1.1318537470341745e+00  1.1147128751559456e+00  1.1513949347325914e+00  1.1760154435643744e+00  1.1895225727600789e+00  1.2193908098792461e+00  1.2546544303638461e+00  1.3307738042783088e+00  1.3379986515682665e+00  1.3287576745386340e+00  1.2781798268760836e+00  1.2728893779235144e+00  1.3135376810491795e+00  1.5178602138909816e+00  1.4916966188584251e+00  1.4227528357827899e+00  1.3889516244192226e+00  1.1052151275401481e+00  1.0886630999968796e+00  1.1080803671436850e+00  1.1008833566236857e+00  1.0877826295152844e+00  1.1124063128997252e+00  1.1450387733258813e+00  1