<?xml version="1.0"?>
<VTKFile type="UnstructuredGrid"  version="0.1"  >
<UnstructuredGrid>
<Piece  NumberOfPoints="1237" NumberOfCells="2335">
<Points>
<DataArray  type="Float64"  NumberOfComponents="3"  format="ascii">-1 3.09081664739187e-17 0  -0.9843750000000001 0.02706329386826373 0  -0.9586042096960951 -0.0236073080308172 0  -0.9687500000000001 -0.05412658773652738 0  -0.9687499999999999 0.05412658773652741 0  -0.9472957560052226 0.006184170637571083 0  -0.9267582714381279 -0.04141318421241193 0  -0.9316799261084423 -0.07502217834255943 0  -0.9375000000000001 -0.1082531754730548 0  -0.9304535526187879 0.02123269309792843 0  -0.9155919293475937 -0.02097532195701668 0  -0.8901898660228655 -0.05879793213392052 0  -0.8961407092258983 -0.08791682354371629 0  -0.9041593017321125 -0.1150769371767221 0  -0.9062500000000001 -0.1623797632095822 0  -0.9531250000000001 0.08118988160479108 0  -0.890147330991285 -0.0122086527191084 0  -0.8576709175674995 -0.04850009197978337 0  -0.8494979525438807 -0.09201284187231788 0  -0.8688087259335305 -0.1227339854926646 0  -0.8657397003544938 -0.1744307530448399 0  -0.875 -0.2165063509461097 0  -0.9191385500632976 0.05668682295204934 0  -0.9374999999999999 0.1082531754730548 0  -0.8414732086268925 -0.02979075402072296 0  -0.8838615846104741 0.03281364894932847 0  -0.9025993020289615 0.08399522279934024 0  -0.9218749999999999 0.1353164693413185 0  -0.8069091517126806 -0.1063797548106189 0  -0.8227041474082361 -0.1554136366367828 0  -0.8450362008579381 -0.1636153151676399 0  -0.824611073526637 -0.2087806554713395 0  -0.8432447828874938 -0.2299625171474235 0  -0.8437500000000001 -0.270632938682637 0  -0.8074688489602485 -0.04534311577063995 0  -0.7748599739446962 -0.09147609870793595 0  -0.7599743974004342 -0.1515693530204255 0  -0.7874243887323827 -0.1486997295560047 0  -0.7740096897566618 -0.1902442517032015 0  -0.7982566063220082 -0.2018609305277571 0  -0.7939958243211587 -0.243248178868526 0  -0.8033953092403587 -0.2739516347679044 0  -0.8125000000000002 -0.3247595264191645 0  -0.8481685757897792 0.03463580614500975 0  -0.8763526826359844 0.09829521691979071 0  -0.9062500000000001 0.1623797632095823 0  -0.7872217742390745 -0.03024195936296309 0  -0.7565548600439893 -0.06556774174670035 0  -0.7280367863186943 -0.1046281989307924 0  -0.7428557301118698 -0.1326576576268934 0  -0.7130575397441211 -0.2080743084118526 0  -0.7425045269468755 -0.2040970945489534 0  -0.7674851701419854 -0.2290293682917657 0  -0.7599986833552189 -0.2682349390602705 0  -0.7616526459078594 -0.3305135978123668 0  -0.7812500000000001 -0.378886114155692 0  -0.816253599818404 0.01031925268654644 0  -0.8190007077644565 0.05195524742955143 0  -0.8424384387483641 0.09512493014350837 0  -0.8689593925676488 0.1377994471097691 0  -0.890625 0.1894430570778459 0  -0.7410175419981699 -0.05005547045971393 0  -0.6820539222728559 -0.1168108160858607 0  -0.6757831681120814 -0.161343132024619 0  -0.7066615444436462 -0.1644905737066079 0  -0.6637898688950368 -0.220644916152676 0  -0.6744004859163939 -0.2587362859831477 0  -0.7325446303104611 -0.2447371505997974 0  -0.7216022609970536 -0.292027783035909 0  -0.7407903637588057 -0.3123505827564781 0  -0.7035881363438097 -0.356533874799312 0  -0.7288120197725808 -0.392133095104917 0  -0.75 -0.4330127018922193 0  -0.7897359628532806 0.006725954256448229 0  -0.7972623766874077 0.06341714755367762 0  -0.8304362309430872 0.1129567769931919 0  -0.8421684945059275 0.1611058176776091 0  -0.8750000000000001 0.2165063509461097 0  -0.7637447900489446 0.0084055150883772 0  -0.7027910536312951 -0.05387662733901926 0  -0.6399011514174923 -0.1176136647146791 0  -0.6199508075525719 -0.1685360793359413 0  -0.6333977552331249 -0.1967451137076092 0  -0.619216095826812 -0.2480485729726879 0  -0.6276040039072337 -0.2883488704175591 0  -0.6261231993592246 -0.3335289324385786 0  -0.6865068439078151 -0.2949080438254524 0  -0.6907604947283688 -0.3285687191624082 0  -0.6650087872471667 -0.3699552850214223 0  -0.6798435707998647 -0.4026405874050478 0  -0.7050830176678921 -0.447022367558788 0  -0.7187499999999999 -0.4871392896287467 0  -0.7723498686347566 0.07044317118097282 0  -0.8017262003913778 0.122128289958322 0  -0.8169126563784805 0.1693170073489986 0  -0.8593750000000001 0.2435696448143733 0  -0.7259809026153086 0.008482836968837627 0  -0.6740418109022589 -0.02450688559989462 0  -0.7223115334823216 0.04936346203485886 0  -0.7572899881178878 0.1097950588389946 0  -0.7734646598732114 0.1561617258837397 0  -0.8083562768108126 0.2049421991290764 0  -0.84375 0.270632938682637 0  -0.6660887510003569 -0.06759964205641175 0  -0.6171961871067949 -0.09908864551504318 0  -0.5833829368075305 -0.1731805645520128 0  -0.5851671105835449 -0.224515763015499 0  -0.5727138940289876 -0.2779087493001106 0  -0.5801058985757366 -0.3174797115370438 0  -0.57948544680462 -0.3632267691333948 0  -0.6267964734590343 -0.3775121834136309 0  -0.6398433230386719 -0.4169421315431633 0  -0.6616426493335408 -0.4488274832297308 0  -0.6803761222242836 -0.4915582867438201 0  -0.6875 -0.5412658773652741 0  -0.6566148164134606 -0.3360342982328451 0  -0.6542800869698886 0.003633874519227934 0  -0.6158214682809207 -0.05883418227773253 0  -0.5750967197363078 -0.0918766710651954 0  -0.5702619644256461 -0.1314570888217494 0  -0.5310796517017504 -0.1985334532999667 0  -0.5379237787887492 -0.2420866834293268 0  -0.5516118004787688 -0.2643356959406811 0  -0.5219299366261414 -0.3074188372821275 0  -0.5441569679299709 -0.3203940814531961 0  -0.544846265790987 -0.3611331944285065 0  -0.5114751055162018 -0.4066686830605467 0  -0.5298500409650213 -0.4384707797967484 0  -0.5794737256993363 -0.4086737180861368 0  -0.6054298025247353 -0.4197528954248557 0  -0.592710431245361 -0.4609848902618885 0  -0.6134133603589965 -0.4927681039827594 0  -0.6393590131426583 -0.5198261223711328 0  -0.6438736370520471 -0.5600300692022314 0  -0.65625 -0.5953924651018015 0  -0.6961199877549025 0.06467019448070167 0  -0.7322688722710476 0.1241970790870847 0  -0.7614677067674487 0.1843417562313635 0  -0.7982098286578407 0.241597904092872 0  -0.828125 0.2976962325509007 0  -0.6121569899603913 -0.02049935287448479 0  -0.5680093344887456 -0.06210558644879417 0  -0.5296938028141881 -0.1373067408269198 0  -0.4901525291003586 -0.1955789237044915 0  -0.4746183446720159 -0.2428634803524866 0  -0.4858590591960716 -0.2715088080329482 0  -0.4715952226353661 -0.3270718944547512 0  -0.4874270099800481 -0.3483793786947822 0  -0.480078652051836 -0.4044778124091272 0  -0.5107966792581313 -0.3607592194079098 0  -0.6351984073276686 0.03037645136060999 0  -0.6919512395101405 0.1148619971399276 0  -0.7371035741994222 0.1934824949257085 0  -0.7677243675294183 0.2452436239691324 0  -0.8125000000000001 0.3247595264191646 0  -0.5070956227453038 -0.2856926586873541 0  -0.4592753826052925 -0.4489578951960593 0  -0.4551538480224278 -0.4879280476876971 0  -0.4870834355975865 -0.4924138429753193 0  -0.5543645851211818 -0.4600201827899537 0  -0.5636063113133203 -0.5062314567180716 0  -0.5722394951023636 -0.540723915347752 0  -0.6004398475588687 -0.5639514773360513 0  -0.6165119354103209 -0.6003123312214718 0  -0.625 -0.6495190528383291 0  -0.5850968043587489 -0.01747042289921243 0  -0.5715475053296581 0.003755875240688324 0  -0.632542541699327 0.08118252107995054 0  -0.6715186710197373 0.1292199759178416 0  -0.6982974014086432 0.1789827939308964 0  -0.7309041627521532 0.2234419242184485 0  -0.760853516405614 0.2792464453234507 0  -0.7607023230601084 0.3093962646126385 0  -0.7968750000000001 0.3518228202874282 0  -0.5264933157473631 -0.08231084764042879 0  -0.493638060994832 -0.1339939179799725 0  -0.4589626054281711 -0.1957888821520802 0  -0.438352019728192 -0.2427967943470546 0  -0.4349603537871217 -0.2905998917905525 0  -0.4340727913783781 -0.3307406261902842 0  -0.3931940322566967 -0.3797355265396843 0  -0.4328932475453516 -0.4073381105917769 0  -0.415502513600294 -0.4580373266102869 0  -0.385415281901366 -0.511073437509846 0  -0.3881529845957117 -0.5477450464703199 0  -0.4322278898459536 -0.5328927439743946 0  -0.4708621541874918 -0.5447008496340244 0  -0.5212781730861482 -0.509033783025311 0  -0.5273194299998638 -0.5485603521097303 0  -0.5234826944144788 -0.5932528774620949 0  -0.5625853138775753 -0.5789028834579788 0  -0.5740199804033532 -0.6134996816985621 0  -0.5765847191201461 -0.6564593508420057 0  -0.59375 -0.7036456405748563 0  -0.5800862410227176 0.06953847272188511 0  -0.62345922728912 0.1087748024732029 0  -0.6592027535596012 0.1483415294528432 0  -0.7030117102084296 0.2220614128747072 0  -0.7211245865447338 0.2726260665754737 0  -0.7293612713284667 0.3214771290950779 0  -0.7890625000000001 0.3653544672215601 0  -0.5497332796675871 0.02526608106074905 0  -0.53018493643993 -0.01879708202667862 0  -0.5023738120312831 -0.06929095084794874 0  -0.4543086626793323 -0.1501783646722772 0  -0.4248556544311721 -0.2001778118037034 0  -0.3836034551939345 -0.2834399929263637 0  -0.3735195503155113 -0.3423773121212576 0  -0.3164083588907829 -0.4085503075097236 0  -0.3374441431234344 -0.4358308634994116 0  -0.3563643403403329 -0.4652367397589351 0  -0.3293009761387771 -0.5276556289563349 0  -0.3139040252508816 -0.5855140438576723 0  -0.366730554445017 -0.5948349816197472 0  -0.4217402740883738 -0.5900354366832488 0  -0.4753932323153703 -0.5864582514369745 0  -0.4778516850572023 -0.6318307895279576 0  -0.5087154203841168 -0.6499046400010015 0  -0.5448706663656597 -0.6492816546120687 0  -0.529090650986931 -0.6944022548983919 0  -0.5447409078977913 -0.7268187065901833 0  -0.5625000000000001 -0.7577722283113839 0  -0.5918572054463975 0.1338101643626165 0  -0.6347680448791199 0.1520640736039057 0  -0.6649299767989149 0.2164013530528183 0  -0.6741572651241856 0.2686102951723429 0  -0.6789476455262888 0.321375691006909 0  -0.7254508777365434 0.3530655186058727 0  -0.7812499999999999 0.3788861141556918 0  -0.5377716048704266 0.05272672813330151 0  -0.5104530844077947 -0.001526069099174808 0  -0.46319401157798
[...]
<PointData  Scalars="w"> 
<DataArray  type="Float64"  Name="w"  format="ascii">1.0145179334596137e+00  1.0134241691585815e+00  1.0144762480456422e+00  1.0150225817509941e+00  1.0119543277420444e+00  1.0142232996479144e+00  1.0168533893060323e+00  1.0162426272943645e+00  1.0166513208320476e+00  1.0160022253275662e+00  1.0205150805876564e+00  1.0248644460283078e+00  1.0212255240229691e+00  1.0197231270546363e+00  1.0228429928991045e+00  1.0123383337906093e+00  1.0315936552731138e+00  1.0398258839706871e+00  1.0375407453679715e+00  1.0267933098248139e+00  1.0272945820202819e+00  1.0267463903534331e+00  1.0163827133777192e+00  1.0151969910936782e+00  1.0434891472051075e+00  1.0297114307629338e+00  1.0199597109869665e+00  1.0219862532909003e+00  1.0461681842757748e+00  1.0377948634804885e+00  1.0331196581961406e+00  1.0318727112456192e+00  1.0311625852445196e+00  1.0410857698494458e+00  1.0442033182885873e+00  1.0460547774332252e+00  1.0438814510755101e+00  1.0420047745288419e+00  1.0411029490827217e+00  1.0387501171787332e+00  1.0438640947606894e+00  1.0545972828779848e+00  1.0952748032463520e+00  1.0414849454901698e+00  1.0290881560979463e+00  1.0327141627947116e+00  1.0477629985504344e+00  1.0531151972962913e+00  1.0579811164904327e+00  1.0490254321478591e+00  1.0611456166125663e+00  1.0485602415505468e+00  1.0452891382842626e+00  1.0591275960949449e+00  1.0976191389681822e+00  1.1279449090079219e+00  1.0441691837771854e+00  1.0428570348405075e+00  1.0372233441320229e+00  1.0385620926900148e+00  1.0445527034775077e+00  1.0637491301905433e+00  1.0851698344230940e+00  1.0836368859759828e+00  1.0646159388949510e+00  1.0877868412949672e+00  1.0972578582840140e+00  1.0588549451414435e+00  1.0634655669777970e+00  1.0798568348536650e+00  1.0940966178838862e+00  1.1337481105590088e+00  1.1357445773955723e+00  1.0531744572518629e+00  1.0532037396912437e+00  1.0454129524944902e+00  1.0542193137288645e+00  1.0505822015260988e+00  1.0672611246456012e+00  1.0848539326350000e+00  1.0946837195864048e+00  1.1100704626101530e+00  1.0987615358522986e+00  1.0849277119197180e+00  1.0869624082413303e+00  1.0796899970716218e+00  1.0706898554850586e+00  1.0676545108382907e+00  1.0792213955888517e+00  1.1207683904349575e+00  1.1429478707695984e+00  1.1391887790657838e+00  1.0747004230198565e+00  1.0681557375470758e+00  1.0694323625503126e+00  1.0481314187743844e+00  1.0942446501857834e+00  1.1040470215502833e+00  1.1153620961712127e+00  1.0905654223833592e+00  1.0890059374339012e+00  1.0684690140674618e+00  1.0427284643853525e+00  1.0932085151227975e+00  1.0922402614439506e+00  1.1036727308458139e+00  1.0810423136506000e+00  1.0705849591002294e+00  1.0838023580667020e+00  1.1039675950659853e+00  1.0786641597976305e+00  1.1009843772644656e+00  1.1375456300968894e+00  1.1545136639210143e+00  1.1589076836511725e+00  1.0662577448640289e+00  1.1213746933852460e+00  1.0971491659223025e+00  1.0953299002538981e+00  1.0915162940150138e+00  1.1005703522803694e+00  1.0750590503318327e+00  1.0677762262319126e+00  1.0667987367108358e+00  1.0697054266949033e+00  1.0890709430015788e+00  1.1410632988093481e+00  1.1690302672195128e+00  1.1192510493586505e+00  1.1016084948588380e+00  1.1178967689403381e+00  1.1404037381702623e+00  1.1576618045670810e+00  1.1432325519368141e+00  1.1332303349252371e+00  1.1248960713513889e+00  1.1008036298774506e+00  1.0927230524121494e+00  1.0527467161570121e+00  1.0352386788201566e+00  1.1042053930167774e+00  1.1011313218469012e+00  1.0958131361896981e+00  1.0931409560175285e+00  1.0932717321663623e+00  1.0814475457488799e+00  1.1234781751003222e+00  1.1015658432454554e+00  1.1763645097535671e+00  1.0853525985492578e+00  1.1218388552660159e+00  1.1194340852656917e+00  1.0778142072368333e+00  1.0496458291017357e+00  1.0381209513579033e+00  1.0713398471220148e+00  1.3002554360727254e+00  1.3425941380930431e+00  1.2720122056932524e+00  1.1408952283104052e+00  1.1443172013168523e+00  1.1473171073047936e+00  1.1535644116082473e+00  1.1419285606552043e+00  1.1521998393974082e+00  1.1106338891512175e+00  1.1054604444421521e+00  1.1315245596163499e+00  1.1104524133640390e+00  1.0798771365221889e+00  1.0634262423861445e+00  1.0512138331798975e+00  1.0504766429378056e+00  1.0450618555454503e+00  1.1016164619854176e+00  1.0923598801103487e+00  1.0916252638412736e+00  1.1083680980500112e+00  1.1438652637754099e+00  1.1872922114198907e+00  1.2944012665419815e+00  1.2617585353364440e+00  1.3249168737929227e+00  1.3642432353064695e+00  1.3627562421431592e+00  1.3260075246228382e+00  1.2543914017923183e+00  1.1839836929347849e+00  1.1657893497377121e+00  1.1827991285110460e+00  1.1607904826535755e+00  1.1885266137161377e+00  1.1775380282641401e+00  1.1978457984839608e+00  1.0924591224760203e+00  1.1090255342478692e+00  1.0961910477383590e+00  1.0746046081051057e+00  1.0657581234254578e+00  1.0598139370099213e+00  1.0493321940087497e+00  1.0865752286554036e+00  1.0958171282877434e+00  1.1165049245888654e+00  1.0962557687099477e+00  1.1015637412815638e+00  1.1663704721528347e+00  1.2380094719066865e+00  1.2481490017260515e+00  1.2254855357814602e+00  1.2402943906335941e+00  1.3082582908221623e+00  1.3769544052528604e+00  1.3506881841818619e+00  1.3024046781533103e+00  1.2347943018308800e+00  1.2670034716497975e+00  1.2603413267088321e+00  1.2281846617223424e+00  1.2499047208333041e+00  1.2355948995121886e+00  1.2518532261751900e+00  1.0944072608887272e+00  1.1075494854152388e+00  1.1075943935123098e+00  1.0909708450493831e+00  1.0824356514839251e+00  1.0675461797420964e+00  1.0536080871845377e+00  1.0815130297048285e+00  1.0980252658263467e+00  1.1505862539764440e+00  1.1166529036476380e+00  1.1217883669314417e+00  1.1753567280532349e+00  1.1746183754174979e+00  1.2070366118462554e+00  1.2280208985527838e+00  1.2584951363468038e+00  1.2653672933734488e+00  1.2583338439031404e+00  1.4966863283845442e+00  1.4683181596928421e+00  1.3830789170377180e+00  1.4424214804344855e+00  1.5359195935414947e+00  1.3390028978558777e+00  1.3486886078256455e+00  1.3136945912412401e+00  1.2897278673414723e+00  1.3302383654482559e+00  1.4135626491792299e+00  1.1056001197795269e+00  1.1214685214884648e+00  1.1220931176046374e+00  1.0876115226327414e+00  1.0784926393073850e+00  1.0625435084539658e+00  1.1016546886211762e+00  1.0901006912849969e+00  1.0900406476296942e+00  1.1061880823856933e+00  1.1858952065624149e+00  1.1848651406023010e+00  1.1247717296425721e+00  1.1323929124223522e+00  1.1988085368796759e+00  1.2018665855167390e+00  1.1927892821620318e+00  1.2090820468838961e+00  1.2462327765261874e+00  1.2522151457952031e+00  1.3541855068745119e+00  1.4204486784556150e+00  1.4885085384706700e+00  1.4270031301357964e+00  1.4109252572346491e+00  1.4682251029922953e+00  1.4170858171568763e+00  1.4037319772524333e+00  1.5658892696535427e+00  1.4863666786038658e+00  1.3851939669848561e+00  1.3389373341404993e+00  1.3508489449028291e+00  1.4672717630003784e+00  1.5278899268440844e+00  1.1093189753281172e+00  1.1278206184298785e+00  1.1653367835209294e+00  1.1497918320809331e+00  1.1028920498333230e+00  1.1040782998918786e+00  1.1483266071507332e+00  1.1653722715110657e+00  1.1771522823123728e+00  1.1416808400124949e+00  1.1558203389550579e+00  1.0998728878491617e+00  1.0691601916246887e+00  1.0716422373930634e+00  1.0664219234170960e+00  1.2182277182555694e+00  1.3441786829138471e+00  1.2387758541121132e+00  1.2432034438595079e+00  1.3834227109262971e+00  1.4866958079467680e+00  1.3799634184256351e+00  1.4112710127849910e+00  1.5097859591315805e+00  1.4913862250809033e+00  1.3966783604785180e+00  1.4320662234834869e+00  1.3664895665145729e+00  1.3758843476124194e+00  1.4699680067766270e+00  1.4428205577832500e+00  1.5184554522978577e+00  1.4059500019727569e+00  1.3651934601845814e+00  1.4039937542527812e+00  1.4642841697482856e+00  1.1696185648087598e+00  1.1236596640282752e+00  1.0979852499063054e+00  1.0718660143565137e+00  1.0632581266665622e+00  1.0581213124863855e+00  1.0568757080616606e+00  1.0512246574649449e+00  1.1465212989181250e+00  1.1034346741546777e+00  1.1256408231069275e+00  1.1460822411938341e+00  1.1600696332795084e+00  1.3894756494765297e+00  1.4284020829043262e+00  1.3014508440548316e+00  1.3282080555869082e+00  1.3879331466812330e+00  1.4314747909735961e+00  1.4257324449218500e+00  1.4255006968667956e+00  1.5802292977362931e+00  1.7229901159980785e+00  1.8354290346171920e+00  1.5462006740090513e+00  1.4464080349946873e+00  1.4534866633507788e+00  1.4563294097800239e+00  1.4580204160352370e+00  1.3852567745689817e+00  1.4992424557231423e+00  1.5676742312018213e+00  1.5662205876513799e+00  1.4759524796700727e+00  1.4493069296094978e+00  1.4200812380758601e+00  1.1299841944962783e+00  1.1293208208352294e+00  1.0994577794377400e+00  1.1260630992102116e+00  1.1555466057633961e+00  1.1795173307443443e+00  1.2335188152515990e+00  1.2378588987984820e+00  1.2966351404145715e+00  1.3448150879778820e+00  1.3366659801494831e+00  1.4962698987115410e+00  1.4517553292231213e+00  1.5474777485498181e+00  1.4616781372317098e+00  1.6063369081288941e+00  1.4331795489079373e+00  1.0973361375624451e+00  1.0789904450790715e+00  1.0797495366629783e+00  1.0681516072839854e+00  1.0646647757916563e+00  1.0478332217382453e+00  1.0415326394467455e+00  1.9614393782347939e+00  2.1194890173341965e+00  1.6524221132078847e+00  1.4788599983791886e+00  1.4241744197672430e+00  1.4987068781847979e+00  1.5230083502645684e+00  1.1222613331973905e+00  1.1338904430198580e+00  1.0981846212189934e+00  1.0772211217979601e+00  1.0701665889374186e+00  1.0712358493110172e+00  1.0684065588822909e+00  1.0606904639933799e+00  1.0496681457196884e+00  1.0402004410061378e+00  1.1193093144031263e+00  1.1659919166351815e+00  1.1995441220652008e+00  1.1795476357198531e+00  1.2542029185982411e+00  1.3204260722712737e+00  1.3706354742111631e+00  1.4299257702686765e+00  1.4425215292797984e+00  1.6142228676442418e+00  1.5810864314754804e+00  1.5062819807534351e+00  1.5199744067104470e+00  1.9149429936901396e+00  1.8893015047584187e+00  1.6414920187197737e+00  1.1559341449661240e+00  1.1370457610657823e+00  1.1404970170219235e+00  1.1299690727115785e+00  1.0870962996409537e+00  1.0757298383311638e+00  1.0646140237549004e+00  1.0618810178076936e+00  1.0483270998115479e+00  1.0442075346718098e+00  1.0473877919771928e+00  1.0466898781258711e+00  1.2143427045929360e+00  1.1887535483461720e+00  1.1486909610387628e+00  1.2209612250720547e+00  1.2769364432661854e+00  1.4315633064795763e+00  1.4655698162049164e+00  1.6836172538323415e+00  1.6512026268046216e+00  1.4866581211652423e+00  1.5190735309460297e+00  1.5935119582223418e+00  1.5854601638142161e+00  1.1680840542555886e+00  1.2371247980667806e+00  1.1447795766560629e+00  1.1467569231932286e+00  1.2128701479969977e+00  1.3004631078172122e+00  1.4146738421310650e+00  1.5643080410709562e+00  1.4903255297657148e+00  1.5624227287556842e+00  1.7100581955509229e+00  1.6088649195584406e+00  1.5449709220819077e+00  1.5610270358201277e+00  1.1617548911371816e+00  1.1515203197540931e+00  1.1577776603027932e+00  1.1181920114336481e+00  1.0913564859072811e+00  1.0701121078036939e+00  1.0572370654084682e+00  1.0489361165954807e+00  1.0388153137809402e+00  1.0388733847549299e+00  1.0389986553358945e+00  1.0483820458521973e+00  1.0630970471571339e+00  1.2208156849617910e+00  1.1844930409689696e+00  1.1739702780214945e+00  1.2141402471935523e+00  1.2467354902092520e+00  1.5546536157852688e+00  1.7150000066867899e+00  1.5836401676992564e+00  1.7528632660120900e+00  1.9338258923745961e+00  1.7947350935667628e+00  1.1543140570183996e+00  1.1706126432982700e+00  1.1653776969232577e+00  1.1507081702286825e+00  1.1157259464193825e+00  1.0950090060753510e+00  1.0718033541226262e+00  1.0528772259172667e+00  1.0465218683681063e+00  1.0436430636243339e+00  1.0407178272369151e+00  1.0396450846430967e+00  1.0471767719519305e+00  1.0370058044541914e+00  1.2074173556849317e+00  1.1579804123027606e+00  1.1390298541102468e+00  1.1542078367209765e+00  1.1813282369638181e+00  1.1648556315686216e+00  1.1039536931945546e+00  1.0610088102251205e+00  1.0485903525749449e+00  1.0429091533737787e+00  1.0424823935753735e+00  1.0464842388013080e+00  1.0449488362617689e+00  1.0436239094771067e+00  1.0446749324466094e+00  1.2642826118301309e+00  1.2952061628544171e+00  1.2706289112240494e+00  1.4994774614260344e+00  1.6320027188407327e+00  1.7036196423455716e+00  2.2431623655689426e+00  2.2845955454026390e+00  1.8829506995173799e+00  1.1829407423067071e+00  1.1738077532031019e+00  1.1399673390820624e+00  1.1741806676607822e+00  1.2229791732443065e+00  1.1739988406804989e+00  1.1568459224301770e+00  1.1172367907505432e+00  1.0681668122935430e+00  1.0611554292558198e+00  1.0509009898949437e+00  1.0448863368569756e+00  1.0373286819637497e+00  1.0366792667918112e+00  1.0389377278684371e+00  1.0422625044933584e+00  1.0339726226179251e+00  1.0354469715388166e+00  1.0409649298320747e+00  1.2706865684871600e+00  1.2723162347778840e+00  1.3117565405847520e+00  1.3316975928756907e+00  1.4061502955899305e+00  1.5662911978285932e+00  2.4994560013962448e+00  3.2215348449316994e+00  2.9979651465169797e+00  1.1381205516039128e+00  1.1665068217391050e+00  1.1351785539491834e+00  1.1608613997189512e+00  1.1472044268577093e+00  1.1087497642552189e+00  1.0766968874418623e+00  1.0636870912853607e+00  1.0570293725462325e+00  1.0584130435988146e+00  1.0416989349060164e+00  1.0361898481879650e+00  1.0344495233601645e+00  1.0373059666610678e+00  1.0394839085594720e+00  1.0311879369308468e+00  1.0257600344794058e+00  1.1960991243592034e+00  1.1987114200107654e+00  1.2557043719398167e+00  1.3842325808021607e+00  1.3605839276176594e+00  1.4658125555493982e+00  2.3435931062313022e+00  3.0691598469133861e+00  2.2246032837411192e+00  2.0371503458575213e+00  1.1533485820136082e+00  1.1583460038410263e+00  1.1891775155473241e+00  1.1988114001156602e+00  1.2548064272591977e+00  1.4659907882919923e+00  1.5408215795934004e+00  1.9921103521568304e+00  2.2013197360802588e+00  1.9237417280558096e+00  1.5186080669118929e+00  1.5447696506143180e+00  1.1698369786130143e+00  1.1232315779128732e+00  1.1125530981861207e+00  1.1138060178509255e+00  1.0872845752649913e+00  1.0660867939100487e+00  1.0720856927023474e+00  1.0542860681758153e+00  1.0493072842483910e+00  1.0603591749407391e+00  1.0512618340063442e+00  1.0466831014466627e+00  1.0423734575670058e+00  1.0307352472208688e+00  1.0317395534781075e+00  1.0283213542774585e+00  1.0243744245674211e+00  1.0228016163387874e+00  1.0419788870009505e+00  1.1608051398371952e+00  1.2045271749524156e+00  1.1556334861760311e+00  1.0998920031447146e+00  1.0908125508124669e+00  1.0706820938142418e+00  1.0509393811787793e+00  1.0492755419485511e+00  1.0427985328860405e+00  1.0412958212788446e+00  1.0459364946215874e+00  1.0440247852795979e+00  1.0459670295815113e+00  1.0370155639594509e+00  1.0339999496693575e+00  1.0295646998117634e+00  1.0281756902859451e+00  1.0273090753941185e+00  1.0211147101489786e+00  1.0203598476810303e+00  1.2165775479504846e+00  1.2236096095384430e+00  1.3329963374061358e+00  1.2794865152140420e+00  1.3961150093245833e+00  1.4994880036381151e+00  1.5518474275562433e+00  1.7702803922219583e+00  1.7776817312572426e+00  1.6756799575337524e+00  1.4830586015774361e+00  1.3799229601440883e+00  1.3328722625880811e+00  1.1560720535803102e+00  1.1512149243131238e+00  1.1958605510368643e+00  1.3102696654120185e+00  1.3681911344546971e+00  1.3569519325294497e+00  1.3761974187277146e+00  1.5889878952756995e+00  1.8019557759521110e+00  1.7247181800460887e+00  1.6202375757280301e+00  1.6206042713733722e+00  1.5222761273249319e+00  1.5430647081057547e+00  1.5513429486561201e+00  1.3384388990159037e+00  1.2947474577949016e+00  1.1009892122205043e+00  1.1219925284506564e+00  1.0839319657299851e+00  1.0647605659105213e+00  1.0568002886450083e+00  1.0457370993834709e+00  1.0417865693993567e+00  1.0442552507446416e+00  1.0490838716156132e+00  1.0409395212807342e+00  1.0412280567064609e+00  1.0402070376128856e+00  1.0369497052343206e+00  1.0328519047041596e+00  1.0303334471835228e+00  1.0286866505439425e+00  1.0275905541340467e+00  1.0262603247540625e+00  1.0221322691975883e+00  1.0199266005034537e+00  1.1257799635812638e+00  1.1358728711304720e+00  1.1728612090072248e+00  1.2110079434845946e+00  1.2400954519445628e+00  1.3256374723350635e+00  1.3154438797571608e+00  1.3304635284983268e+00  1.3819335850844250e+00  1.5239810382288528e+00  1.4684978460794189e+00  1.5364404202974393e+00  1.4661336483111096e+00  1.5448729307897782e+00  1.5299035476933049e+00  1.3398246694585387e+00  1.2112780326778398e+00  1.1003910990555532e+00  1.0782606020639431e+00  1.0875344834359644e+00  1.0551758655691590e+00  1.0451552357754976e+00  1.0520222927606839e+00  1.0599862793247965e+00  1.0599638137910570e+00  1.0440706312879418e+00  1.0478867442453954e+00  1.0356797089120466e+00  1.0355365931312954e+00  1.0301223736335627e+00  1.0269469513066141e+00  1.0246924864237035e+00  1.0239249094489740e+00  1.0214091978500919e+00  1.1145962208706144e+00  1.1117383619292076e+00  1.1330908082046796e+00  1.1614119303291268e+00  1.1959283608291857e+00  1.1925454321336875e+00  1.2280298974061332e+00  1.2860117909056099e+00  1.3119314146477425e+00  1.3378437608608154e+00  1.3593382495316637e+00  1.3270303467838354e+00  1.2701337077694141e+00  1.2911343552992567e+00  1.3562794419712061e+00  1.3112893062631441e+00  1.3057518213412354e+00  1.2155466613650727e+00  1.1848004059597681e+00  1.1047928776501696e+00  1.0833636094188150e+00  1.0784441151750810e+00  1.0592317489274752e+00  1.0608404063806234e+00  1.0540579644467831e+00  1.0448429070100163e+00  1.0401964258282455e+00  1.0325432802239425e+00  1.0322295184069734e+00  1.0302307192858866e+00  1.0224488981763558e+00  1.0198653371841857e+00  1.0238079059719516e+00  1.0236996357812838e+00  1.1069483389462176e+00  1.1307135017772358e+00  1.1473011158148261e+00  1.1348024729007038e+00  1.1141579474234338e+00  1.0819092851333028e+00  1.0725140762117706e+00  1.0790193194969564e+00  1.0762825043033983e+00  1.0768805295565309e+00  1.0756322575260528e+00  1.0606591950062993e+00  1.0563706174018643e+00  1.0446418803336428e+00  1.0373084722979560e+00  1.0304217065979016e+00  1.0302840149478458e+00  1.0359760849412416e+00  1.0259726287109825e+00  1.0191104256928865e+00  1.0166932175671011e+00  1.0162551791248575e+00  1.0194625102565571e+00  1.1709653693502140e+00  1.1901785171608619e+00  1.1746378930119117e+00  1.1897580142782265e+00  1.2065015161437980e+00  1.2185345256310343e+00  1.2489434641252677e+00  1.2640461248677211e+00  1.2733801252746535e+00  1.2561441330083551e+00  1.2185424992671898e+00  1.2001701089637453e+00  1.2285585252325943e+00  1.2802131505710761e+00  1.2618519427124912e+00  1.2181178942116200e+00  1.2109059362349923e+00  1.0362351941711134e+00  1.1583880680741585e+00  1.1052991930207223e+00  1.0660594248607493e+00  1.0640499939575208e+00  1.0679484965643076e+00  1.0669504621280066e+00  1.0650856648049754e+00  1.0646119531315961e+00  1.0701432185422426e+00  1.0696106889517401e+00  1.0594447486096672e+00  1.0473274863742608e+00  1.0342838023598080e+00  1.0245452739269685e+00  1.0241749987665441e+00  1.0241958593784817e+00  1.0278091952316908e+00  1.0238395837279373e+00  1.0242384562283848e+00  1.0189092554836330e+00  1.0161023567481444e+00  1.0144483543842597e+00  1.0151634639578258e+00  1.1893346651891945e+00  1.1619145752596691e+00  1.1310622869956395e+00  1.1626038011554822e+00  1.1835911753746806e+00  1.1842464588981230e+00  1.1976698472521536e+00  1.2184006198148283e+00  1.2613679695665054e+00  1.2779744643343827e+00  1.2327828653247381e+00  1.2033756451245918e+00  1.1937973755254025e+00  1.2125499328227045e+00  1.3192509190541089e+00  1.2970270089244300e+00  1.2703785287246265e+00  1.2535870983619652e+00  1.1444461414848761e+00  1.1240549030130240e+00  1.1416117790336235e+00  1.1308416427326493e+00  1.1067944447472291e+00  1.1246114885643346e+00  1.1591602631304374e+00  1