<?xml version="1.0"?>
<VTKFile type="UnstructuredGrid"  version="0.1"  >
<UnstructuredGrid>
<Piece  NumberOfPoints="1237" NumberOfCells="2335">
<Points>
<DataArray  type="Float64"  NumberOfComponents="3"  format="ascii">-1 3.09081664739187e-17 0  -0.9843750000000001 0.02706329386826373 0  -0.9586042096960951 -0.0236073080308172 0  -0.9687500000000001 -0.05412658773652738 0  -0.9687499999999999 0.05412658773652741 0  -0.9472957560052226 0.006184170637571083 0  -0.9267582714381279 -0.04141318421241193 0  -0.9316799261084423 -0.07502217834255943 0  -0.9375000000000001 -0.1082531754730548 0  -0.9304535526187879 0.02123269309792843 0  -0.9155919293475937 -0.02097532195701668 0  -0.8901898660228655 -0.05879793213392052 0  -0.8961407092258983 -0.08791682354371629 0  -0.9041593017321125 -0.1150769371767221 0  -0.9062500000000001 -0.1623797632095822 0  -0.9531250000000001 0.08118988160479108 0  -0.890147330991285 -0.0122086527191084 0  -0.8576709175674995 -0.04850009197978337 0  -0.8494979525438807 -0.09201284187231788 0  -0.8688087259335305 -0.1227339854926646 0  -0.8657397003544938 -0.1744307530448399 0  -0.875 -0.2165063509461097 0  -0.9191385500632976 0.05668682295204934 0  -0.9374999999999999 0.1082531754730548 0  -0.8414732086268925 -0.02979075402072296 0  -0.8838615846104741 0.03281364894932847 0  -0.9025993020289615 0.08399522279934024 0  -0.9218749999999999 0.1353164693413185 0  -0.8069091517126806 -0.1063797548106189 0  -0.8227041474082361 -0.1554136366367828 0  -0.8450362008579381 -0.1636153151676399 0  -0.824611073526637 -0.2087806554713395 0  -0.8432447828874938 -0.2299625171474235 0  -0.8437500000000001 -0.270632938682637 0  -0.8074688489602485 -0.04534311577063995 0  -0.7748599739446962 -0.09147609870793595 0  -0.7599743974004342 -0.1515693530204255 0  -0.7874243887323827 -0.1486997295560047 0  -0.7740096897566618 -0.1902442517032015 0  -0.7982566063220082 -0.2018609305277571 0  -0.7939958243211587 -0.243248178868526 0  -0.8033953092403587 -0.2739516347679044 0  -0.8125000000000002 -0.3247595264191645 0  -0.8481685757897792 0.03463580614500975 0  -0.8763526826359844 0.09829521691979071 0  -0.9062500000000001 0.1623797632095823 0  -0.7872217742390745 -0.03024195936296309 0  -0.7565548600439893 -0.06556774174670035 0  -0.7280367863186943 -0.1046281989307924 0  -0.7428557301118698 -0.1326576576268934 0  -0.7130575397441211 -0.2080743084118526 0  -0.7425045269468755 -0.2040970945489534 0  -0.7674851701419854 -0.2290293682917657 0  -0.7599986833552189 -0.2682349390602705 0  -0.7616526459078594 -0.3305135978123668 0  -0.7812500000000001 -0.378886114155692 0  -0.816253599818404 0.01031925268654644 0  -0.8190007077644565 0.05195524742955143 0  -0.8424384387483641 0.09512493014350837 0  -0.8689593925676488 0.1377994471097691 0  -0.890625 0.1894430570778459 0  -0.7410175419981699 -0.05005547045971393 0  -0.6820539222728559 -0.1168108160858607 0  -0.6757831681120814 -0.161343132024619 0  -0.7066615444436462 -0.1644905737066079 0  -0.6637898688950368 -0.220644916152676 0  -0.6744004859163939 -0.2587362859831477 0  -0.7325446303104611 -0.2447371505997974 0  -0.7216022609970536 -0.292027783035909 0  -0.7407903637588057 -0.3123505827564781 0  -0.7035881363438097 -0.356533874799312 0  -0.7288120197725808 -0.392133095104917 0  -0.75 -0.4330127018922193 0  -0.7897359628532806 0.006725954256448229 0  -0.7972623766874077 0.06341714755367762 0  -0.8304362309430872 0.1129567769931919 0  -0.8421684945059275 0.1611058176776091 0  -0.8750000000000001 0.2165063509461097 0  -0.7637447900489446 0.0084055150883772 0  -0.7027910536312951 -0.05387662733901926 0  -0.6399011514174923 -0.1176136647146791 0  -0.6199508075525719 -0.1685360793359413 0  -0.6333977552331249 -0.1967451137076092 0  -0.619216095826812 -0.2480485729726879 0  -0.6276040039072337 -0.2883488704175591 0  -0.6261231993592246 -0.3335289324385786 0  -0.6865068439078151 -0.2949080438254524 0  -0.6907604947283688 -0.3285687191624082 0  -0.6650087872471667 -0.3699552850214223 0  -0.6798435707998647 -0.4026405874050478 0  -0.7050830176678921 -0.447022367558788 0  -0.7187499999999999 -0.4871392896287467 0  -0.7723498686347566 0.07044317118097282 0  -0.8017262003913778 0.122128289958322 0  -0.8169126563784805 0.1693170073489986 0  -0.8593750000000001 0.2435696448143733 0  -0.7259809026153086 0.008482836968837627 0  -0.6740418109022589 -0.02450688559989462 0  -0.7223115334823216 0.04936346203485886 0  -0.7572899881178878 0.1097950588389946 0  -0.7734646598732114 0.1561617258837397 0  -0.8083562768108126 0.2049421991290764 0  -0.84375 0.270632938682637 0  -0.6660887510003569 -0.06759964205641175 0  -0.6171961871067949 -0.09908864551504318 0  -0.5833829368075305 -0.1731805645520128 0  -0.5851671105835449 -0.224515763015499 0  -0.5727138940289876 -0.2779087493001106 0  -0.5801058985757366 -0.3174797115370438 0  -0.57948544680462 -0.3632267691333948 0  -0.6267964734590343 -0.3775121834136309 0  -0.6398433230386719 -0.4169421315431633 0  -0.6616426493335408 -0.4488274832297308 0  -0.6803761222242836 -0.4915582867438201 0  -0.6875 -0.5412658773652741 0  -0.6566148164134606 -0.3360342982328451 0  -0.6542800869698886 0.003633874519227934 0  -0.6158214682809207 -0.05883418227773253 0  -0.5750967197363078 -0.0918766710651954 0  -0.5702619644256461 -0.1314570888217494 0  -0.5310796517017504 -0.1985334532999667 0  -0.5379237787887492 -0.2420866834293268 0  -0.5516118004787688 -0.2643356959406811 0  -0.5219299366261414 -0.3074188372821275 0  -0.5441569679299709 -0.3203940814531961 0  -0.544846265790987 -0.3611331944285065 0  -0.5114751055162018 -0.4066686830605467 0  -0.5298500409650213 -0.4384707797967484 0  -0.5794737256993363 -0.4086737180861368 0  -0.6054298025247353 -0.4197528954248557 0  -0.592710431245361 -0.4609848902618885 0  -0.6134133603589965 -0.4927681039827594 0  -0.6393590131426583 -0.5198261223711328 0  -0.6438736370520471 -0.5600300692022314 0  -0.65625 -0.5953924651018015 0  -0.6961199877549025 0.06467019448070167 0  -0.7322688722710476 0.1241970790870847 0  -0.7614677067674487 0.1843417562313635 0  -0.7982098286578407 0.241597904092872 0  -0.828125 0.2976962325509007 0  -0.6121569899603913 -0.02049935287448479 0  -0.5680093344887456 -0.06210558644879417 0  -0.5296938028141881 -0.1373067408269198 0  -0.4901525291003586 -0.1955789237044915 0  -0.4746183446720159 -0.2428634803524866 0  -0.4858590591960716 -0.2715088080329482 0  -0.4715952226353661 -0.3270718944547512 0  -0.4874270099800481 -0.3483793786947822 0  -0.480078652051836 -0.4044778124091272 0  -0.5107966792581313 -0.3607592194079098 0  -0.6351984073276686 0.03037645136060999 0  -0.6919512395101405 0.1148619971399276 0  -0.7371035741994222 0.1934824949257085 0  -0.7677243675294183 0.2452436239691324 0  -0.8125000000000001 0.3247595264191646 0  -0.5070956227453038 -0.2856926586873541 0  -0.4592753826052925 -0.4489578951960593 0  -0.4551538480224278 -0.4879280476876971 0  -0.4870834355975865 -0.4924138429753193 0  -0.5543645851211818 -0.4600201827899537 0  -0.5636063113133203 -0.5062314567180716 0  -0.5722394951023636 -0.540723915347752 0  -0.6004398475588687 -0.5639514773360513 0  -0.6165119354103209 -0.6003123312214718 0  -0.625 -0.6495190528383291 0  -0.5850968043587489 -0.01747042289921243 0  -0.5715475053296581 0.003755875240688324 0  -0.632542541699327 0.08118252107995054 0  -0.6715186710197373 0.1292199759178416 0  -0.6982974014086432 0.1789827939308964 0  -0.7309041627521532 0.2234419242184485 0  -0.760853516405614 0.2792464453234507 0  -0.7607023230601084 0.3093962646126385 0  -0.7968750000000001 0.3518228202874282 0  -0.5264933157473631 -0.08231084764042879 0  -0.493638060994832 -0.1339939179799725 0  -0.4589626054281711 -0.1957888821520802 0  -0.438352019728192 -0.2427967943470546 0  -0.4349603537871217 -0.2905998917905525 0  -0.4340727913783781 -0.3307406261902842 0  -0.3931940322566967 -0.3797355265396843 0  -0.4328932475453516 -0.4073381105917769 0  -0.415502513600294 -0.4580373266102869 0  -0.385415281901366 -0.511073437509846 0  -0.3881529845957117 -0.5477450464703199 0  -0.4322278898459536 -0.5328927439743946 0  -0.4708621541874918 -0.5447008496340244 0  -0.5212781730861482 -0.509033783025311 0  -0.5273194299998638 -0.5485603521097303 0  -0.5234826944144788 -0.5932528774620949 0  -0.5625853138775753 -0.5789028834579788 0  -0.5740199804033532 -0.6134996816985621 0  -0.5765847191201461 -0.6564593508420057 0  -0.59375 -0.7036456405748563 0  -0.5800862410227176 0.06953847272188511 0  -0.62345922728912 0.1087748024732029 0  -0.6592027535596012 0.1483415294528432 0  -0.7030117102084296 0.2220614128747072 0  -0.7211245865447338 0.2726260665754737 0  -0.7293612713284667 0.3214771290950779 0  -0.7890625000000001 0.3653544672215601 0  -0.5497332796675871 0.02526608106074905 0  -0.53018493643993 -0.01879708202667862 0  -0.5023738120312831 -0.06929095084794874 0  -0.4543086626793323 -0.1501783646722772 0  -0.4248556544311721 -0.2001778118037034 0  -0.3836034551939345 -0.2834399929263637 0  -0.3735195503155113 -0.3423773121212576 0  -0.3164083588907829 -0.4085503075097236 0  -0.3374441431234344 -0.4358308634994116 0  -0.3563643403403329 -0.4652367397589351 0  -0.3293009761387771 -0.5276556289563349 0  -0.3139040252508816 -0.5855140438576723 0  -0.366730554445017 -0.5948349816197472 0  -0.4217402740883738 -0.5900354366832488 0  -0.4753932323153703 -0.5864582514369745 0  -0.4778516850572023 -0.6318307895279576 0  -0.5087154203841168 -0.6499046400010015 0  -0.5448706663656597 -0.6492816546120687 0  -0.529090650986931 -0.6944022548983919 0  -0.5447409078977913 -0.7268187065901833 0  -0.5625000000000001 -0.7577722283113839 0  -0.5918572054463975 0.1338101643626165 0  -0.6347680448791199 0.1520640736039057 0  -0.6649299767989149 0.2164013530528183 0  -0.6741572651241856 0.2686102951723429 0  -0.6789476455262888 0.321375691006909 0  -0.7254508777365434 0.3530655186058727 0  -0.7812499999999999 0.3788861141556918 0  -0.5377716048704266 0.05272672813330151 0  -0.5104530844077947 -0.001526069099174808 0  -0.46319401157798
[...]
<PointData  Scalars="w"> 
<DataArray  type="Float64"  Name="w"  format="ascii">1.0141924647375617e+00  1.0127947745030568e+00  1.0131704889909117e+00  1.0137145717390279e+00  1.0110550176854096e+00  1.0124501757094362e+00  1.0138530942066113e+00  1.0135047623506646e+00  1.0135724835955850e+00  1.0134646978692645e+00  1.0162130857100493e+00  1.0190367659047577e+00  1.0164590624272678e+00  1.0153895559753234e+00  1.0170243587125891e+00  1.0114512024733646e+00  1.0238575788862190e+00  1.0293472498552170e+00  1.0275435644809725e+00  1.0197099129030378e+00  1.0193947183450234e+00  1.0188043534338254e+00  1.0143062381555172e+00  1.0132743959619355e+00  1.0321860328776300e+00  1.0239788478475516e+00  1.0165572920647454e+00  1.0174487158515464e+00  1.0331783683347058e+00  1.0248701159367717e+00  1.0223921156618603e+00  1.0207874320956856e+00  1.0202844953092947e+00  1.0238568021596555e+00  1.0320461341584222e+00  1.0315342500406754e+00  1.0289976018920843e+00  1.0277471190040528e+00  1.0256197329420853e+00  1.0241177194461819e+00  1.0258228282798358e+00  1.0299245127218633e+00  1.0459467099482593e+00  1.0320996678931760e+00  1.0216348433135720e+00  1.0245032419740558e+00  1.0324552422886377e+00  1.0350545528690172e+00  1.0383327344908233e+00  1.0330271386675782e+00  1.0400230202237239e+00  1.0307746724986473e+00  1.0271794911729049e+00  1.0334940754885615e+00  1.0468033333006099e+00  1.0605657924710017e+00  1.0318378306288256e+00  1.0291932621485411e+00  1.0247559480693811e+00  1.0279559949227295e+00  1.0321455216946116e+00  1.0415739236312049e+00  1.0561330797165467e+00  1.0561245233674177e+00  1.0439427704490423e+00  1.0564212585402812e+00  1.0581168957047300e+00  1.0348822129873192e+00  1.0338024550436462e+00  1.0396341573078984e+00  1.0459894977555086e+00  1.0647116452172740e+00  1.0659149266326950e+00  1.0347960287056066e+00  1.0339132103260018e+00  1.0286128810991810e+00  1.0349175326621072e+00  1.0326883385093530e+00  1.0435602547131038e+00  1.0567607149314444e+00  1.0595430067324672e+00  1.0731617349303588e+00  1.0652708449142330e+00  1.0540497695171591e+00  1.0543912940792664e+00  1.0458562512058778e+00  1.0391542535012452e+00  1.0346691042668856e+00  1.0418305759877120e+00  1.0615752419203510e+00  1.0699492948201663e+00  1.0674056610254927e+00  1.0466467881426660e+00  1.0396075801411195e+00  1.0398871624450472e+00  1.0310387034915534e+00  1.0616233878171335e+00  1.0640502360621429e+00  1.0698052190313183e+00  1.0512016407447220e+00  1.0495062701518922e+00  1.0405861692849707e+00  1.0291104917705995e+00  1.0586594699768230e+00  1.0594406137718826e+00  1.0777747590575830e+00  1.0545546022210184e+00  1.0460525099902471e+00  1.0558019851248373e+00  1.0620369367928748e+00  1.0459299037832377e+00  1.0607955976583667e+00  1.0709768737119520e+00  1.0766126211113007e+00  1.0786369396228104e+00  1.0359444413768324e+00  1.0730864051510431e+00  1.0640828518736032e+00  1.0708765306469843e+00  1.0708586639744726e+00  1.0897633048405089e+00  1.0574893169314128e+00  1.0459871297632393e+00  1.0458357679758759e+00  1.0473213866509938e+00  1.0629472435684544e+00  1.1193610965944791e+00  1.1186993667927823e+00  1.0736857021470436e+00  1.0642758106296142e+00  1.0710530226007779e+00  1.0734150613071440e+00  1.0789791228408980e+00  1.0736472357501945e+00  1.0711744610891270e+00  1.0736519908647282e+00  1.0579591708665785e+00  1.0523118169316079e+00  1.0330940865127312e+00  1.0238255602614126e+00  1.0689888508299228e+00  1.0768406110516016e+00  1.0812430846877696e+00  1.0805224706146022e+00  1.0781772264219676e+00  1.0630224871140954e+00  1.1004525024483909e+00  1.0853982465926824e+00  1.1663257648532532e+00  1.0692881878689822e+00  1.0756968065096537e+00  1.0703253521023408e+00  1.0448344894618626e+00  1.0304294238648546e+00  1.0249225780382847e+00  1.0509589777871327e+00  1.2953879147658727e+00  1.3316980768760014e+00  1.2214297880638847e+00  1.0856881399564988e+00  1.0820611487926270e+00  1.0863291799214614e+00  1.0904741810606524e+00  1.0873732059600030e+00  1.0933735514352756e+00  1.0813752455291683e+00  1.0843491593223953e+00  1.0864401788152556e+00  1.0682224490182812e+00  1.0489789527581312e+00  1.0376771234766773e+00  1.0309527141810619e+00  1.0309071652255668e+00  1.0282139699729602e+00  1.0882492035346758e+00  1.0842642977741639e+00  1.0849048153893546e+00  1.1025044664514849e+00  1.1249568675215185e+00  1.1603371201193808e+00  1.2811062814700809e+00  1.2526424701889505e+00  1.3309214645673053e+00  1.3942829012226727e+00  1.3881965527675209e+00  1.3211397859616087e+00  1.2039839631709417e+00  1.1253071302343067e+00  1.1126891305508135e+00  1.1500156479313510e+00  1.1211933778557908e+00  1.1422778262976279e+00  1.1263215127356963e+00  1.1322013500781083e+00  1.0731198324578741e+00  1.0807028457371073e+00  1.0622211144677991e+00  1.0449483751493913e+00  1.0408011002591349e+00  1.0372620311661722e+00  1.0304734825008939e+00  1.0717431913624598e+00  1.0836774360187935e+00  1.0976667553258386e+00  1.0846636116979700e+00  1.0940101051210325e+00  1.1645219562654638e+00  1.2250922338610080e+00  1.3065385798138411e+00  1.2784236648030634e+00  1.2936562627635402e+00  1.4762357616414377e+00  1.6076742591854707e+00  1.3943683921853893e+00  1.2741067394984289e+00  1.1811041008515257e+00  1.2302717076905645e+00  1.2237462058337596e+00  1.1818738631803662e+00  1.2003985520688918e+00  1.1759912181304473e+00  1.1937531536394221e+00  1.0770041446682328e+00  1.0719093597898879e+00  1.0666164622587815e+00  1.0607581174243410e+00  1.0545897054084410e+00  1.0431206551453325e+00  1.0332715560664556e+00  1.0659573777605691e+00  1.0816769430829509e+00  1.1142714330820576e+00  1.0925999775427560e+00  1.1057033219139456e+00  1.1788467830056364e+00  1.1858180244205239e+00  1.2264846339118542e+00  1.3088668551949354e+00  1.4387227033176406e+00  1.4391771212230913e+00  1.4199476191718912e+00  2.1352020054775944e+00  2.1461146468674577e+00  1.6335361839613105e+00  1.6694000939246145e+00  1.5952942634136666e+00  1.3243578901209929e+00  1.3501039185433745e+00  1.2893465311452055e+00  1.2346814583683279e+00  1.2820210300131758e+00  1.3838416135412661e+00  1.0773255688984471e+00  1.0831971018550726e+00  1.0804897883128521e+00  1.0606693624408801e+00  1.0532195644213305e+00  1.0412342888629942e+00  1.0778512811085461e+00  1.0707229284657434e+00  1.0712862840711990e+00  1.0891902962355207e+00  1.1441641010038461e+00  1.1401607440015871e+00  1.1003071604377213e+00  1.1351829120884103e+00  1.2389959178259276e+00  1.2706978187475169e+00  1.2366719171452982e+00  1.2937411022272824e+00  1.4894606889335844e+00  1.5409792576176975e+00  1.9128878485441219e+00  1.8883178452568838e+00  2.0252450719681505e+00  1.9771683333672634e+00  2.1015234222532557e+00  2.2637897341456288e+00  2.0895876795965616e+00  1.8633199054828835e+00  1.7239911894215327e+00  1.5545182632859043e+00  1.4245087722908394e+00  1.2977065267669152e+00  1.2945535509619686e+00  1.4492992226211927e+00  1.5220793943388229e+00  1.0731182105708823e+00  1.0915101314126889e+00  1.1123843893119902e+00  1.1104942993783582e+00  1.0789231600136471e+00  1.0882415738012190e+00  1.1238425626083328e+00  1.1499828301954551e+00  1.2034004516132779e+00  1.1222124796419608e+00  1.1066375498482712e+00  1.0685326853047923e+00  1.0547584813712576e+00  1.0527668971260085e+00  1.0478171404546348e+00  1.2636125469194182e+00  1.4761512823548604e+00  1.3529879739689077e+00  1.4367000187401717e+00  1.9292688669945988e+00  2.4456688352554634e+00  2.1056791501239971e+00  2.0368528193805848e+00  2.1189407198051087e+00  2.6097543232128659e+00  2.2521071072368071e+00  3.4816605966885570e+00  1.8466497421471753e+00  1.7046467261839984e+00  1.6907168667088168e+00  1.5621177631223395e+00  1.6636901485649518e+00  1.4844242039173281e+00  1.3533767865523338e+00  1.4143023569683713e+00  1.4809188317162321e+00  1.1196193647737434e+00  1.1013812137775485e+00  1.0723763966972315e+00  1.0571631689810790e+00  1.0557561113972043e+00  1.0520431566296644e+00  1.0466909680102021e+00  1.0409871680444125e+00  1.1201140764121469e+00  1.0882522355195678e+00  1.1155304021566190e+00  1.1451497366844203e+00  1.1805236680629563e+00  1.5108548992283488e+00  1.6098801199738331e+00  1.5685930871754079e+00  1.4851312485912731e+00  1.5060656595786963e+00  2.1891727560866325e+00  2.1645504046011128e+00  2.0281136775701496e+00  2.8577310101764417e+00  3.3604299244610183e+00  6.3009762885688199e+00  6.3124873048866510e+00  9.2120551956008043e+00  6.5448465815298178e+00  2.7755078379283602e+00  1.8678290269060418e+00  1.6595364619536193e+00  1.7118667664049620e+00  1.7294963551522242e+00  1.7653161015738488e+00  1.6396686299353977e+00  1.5680218487895663e+00  1.9877249711380642e+00  1.1056223556817666e+00  1.1098821361630502e+00  1.0970612601980323e+00  1.1287743228120775e+00  1.1651621774767358e+00  1.2022260092029295e+00  1.3075345637548903e+00  1.3400514082070893e+00  1.4356734309970676e+00  1.5547639736267631e+00  1.6353479135978981e+00  2.0964610667229739e+00  2.1991770747614465e+00  2.5086236935872139e+00  2.4570196885168074e+00  5.7988781006522592e+00  2.1587487189738290e+00  1.0797222686735155e+00  1.0689842119272468e+00  1.0627272370891632e+00  1.0575471772542060e+00  1.0586582775016411e+00  1.0432501020791540e+00  1.0365844256682175e+00  9.7478352402878805e+00  3.1035227613968289e+01  1.6127352002969680e+01  1.9277249578737710e+01  1.9309629859275496e+01  2.4717629411754705e+00  1.7088091582523981e+00  1.1121976484369895e+00  1.1267317364367326e+00  1.0865811133537910e+00  1.0685592718147672e+00  1.0644958491083583e+00  1.0606977654677414e+00  1.0612361873862690e+00  1.0550807501377273e+00  1.0448459752463117e+00  1.0346975868715200e+00  1.1208501548273053e+00  1.1703232773777346e+00  1.2072231436687832e+00  1.2418789548948794e+00  1.4143501379465619e+00  1.5806983911502133e+00  1.7055850899614069e+00  2.0609531647791881e+00  2.2920579887271164e+00  2.8374404293009539e+00  3.4362926400381633e+00  4.0598993052558461e+00  1.0053536114634841e+01  2.6773932109699132e+01  3.7149796745403144e+01  3.9472957924504861e+01  1.1529420034896398e+00  1.1410893669221223e+00  1.1354183109375220e+00  1.1186008077282648e+00  1.0800805815640095e+00  1.0754353009276123e+00  1.0603787397533679e+00  1.0562287677514575e+00  1.0431683152724882e+00  1.0392007888643005e+00  1.0408792408619556e+00  1.0374094983280717e+00  1.2138745572465834e+00  1.2278514824223608e+00  1.2473451925805137e+00  1.3908718738319878e+00  1.5198191273642461e+00  1.9336385885006708e+00  2.3611490783345186e+00  3.1265955980324471e+00  4.0138955293082361e+00  1.0523968522174849e+01  5.8959243450890417e+00  2.2191318731021173e+01  3.5347307707153874e+01  1.1752804912199917e+00  1.2564410225587688e+00  1.2349505714940636e+00  1.3032333793416873e+00  1.4630333402069777e+00  1.6565341389288002e+00  1.9256388837358638e+00  2.4146461490326079e+00  2.3333281113313906e+00  2.6296529541284266e+00  3.2400090278850944e+00  3.5985507092707967e+00  7.7617476885767402e+00  2.5073128448623617e+01  1.1842460877666332e+00  1.1525447377867144e+00  1.1481247871740390e+00  1.1182414895645445e+00  1.1039715663199521e+00  1.0716308379023822e+00  1.0525182743963584e+00  1.0434997355316593e+00  1.0335771931136277e+00  1.0338043014426930e+00  1.0322727066468154e+00  1.0374643091090661e+00  1.0592171072458574e+00  1.2608635313267860e+00  1.2511310051014315e+00  1.3340105402558047e+00  1.5506074971373596e+00  1.6117785238395372e+00  2.2923620384995012e+00  2.7274940965853522e+00  2.4974184819680652e+00  3.1530681284643052e+00  3.5749396228450654e+00  3.7078665646855447e+00  1.2177400423925209e+00  1.1802731839706677e+00  1.1784570406086141e+00  1.1518470826045817e+00  1.1240909602884452e+00  1.1048120859856794e+00  1.0827305461757419e+00  1.0529560694436348e+00  1.0422406799563797e+00  1.0382112165980941e+00  1.0332316602829390e+00  1.0313294044765517e+00  1.0358314105774744e+00  1.0306893480564376e+00  1.2765467171809046e+00  1.2406920702463007e+00  1.2210348819018921e+00  1.1929250597265928e+00  1.2084734750628248e+00  1.1708933070272018e+00  1.1088303006768494e+00  1.0661165245670756e+00  1.0492253785506207e+00  1.0401443878834928e+00  1.0376746051366244e+00  1.0392523860126539e+00  1.0369087141987172e+00  1.0342422925765691e+00  1.0341149328129884e+00  1.5278440610974344e+00  1.6940606018598314e+00  1.7081063359759039e+00  2.2084231859165295e+00  2.5592630608456561e+00  2.6826516847992958e+00  4.9858581437819591e+00  4.5483544569572558e+00  3.3036694184024942e+00  1.2868466184508969e+00  1.3141542249256548e+00  1.2483402760167466e+00  1.2403250787201474e+00  1.2544481171986750e+00  1.2295813641057280e+00  1.1535277400571815e+00  1.1109510771603581e+00  1.0676181172884716e+00  1.0627306945841657e+00  1.0496972676664769e+00  1.0405293842529701e+00  1.0326965022000780e+00  1.0327228555581458e+00  1.0348537996883038e+00  1.0358084102393534e+00  1.0285976209534673e+00  1.0286839959697482e+00  1.0364619688455159e+00  1.5551398571121664e+00  1.6329853827051024e+00  1.7929118418752290e+00  1.9145731828518397e+00  2.1687194313532352e+00  2.4428994571162286e+00  4.6330806601131158e+00  7.2324386432878516e+00  6.5879498866031145e+00  1.2381484665163507e+00  1.2347697754943929e+00  1.1838257794517419e+00  1.2005964228818176e+00  1.1523825823567635e+00  1.1082523997386786e+00  1.0755601031276110e+00  1.0599443949748291e+00  1.0546013726563823e+00  1.0537374724863569e+00  1.0371932417141279e+00  1.0322380948617349e+00  1.0311733728055819e+00  1.0343900395905876e+00  1.0366939470966914e+00  1.0281090713013272e+00  1.0223282972908692e+00  1.3930123653623334e+00  1.4359529695438797e+00  1.5934829484791146e+00  1.9636091843595556e+00  2.0757431804146913e+00  2.3315035665210666e+00  4.2170036874280541e+00  6.7538738991120182e+00  4.6806004964248968e+00  4.1009106071690331e+00  1.2801134526848155e+00  1.2548526296541784e+00  1.3341353594926209e+00  1.4061291800976345e+00  1.5782070409130478e+00  2.0157753061338806e+00  2.4975437941829028e+00  3.3975235356207225e+00  4.3013929370416255e+00  3.9244827705707435e+00  2.9615321832527561e+00  2.6946425459128420e+00  1.2265057106003425e+00  1.1438307437034383e+00  1.1471348259961889e+00  1.1409864109646977e+00  1.1042600052513700e+00  1.0718921996984501e+00  1.0738833785635089e+00  1.0548417756524953e+00  1.0466910050682359e+00  1.0559517169485373e+00  1.0467646382412097e+00  1.0415851555627791e+00  1.0381980495284309e+00  1.0289573269377430e+00  1.0294536792426467e+00  1.0264779517132614e+00  1.0224144121839973e+00  1.0203757997464478e+00  1.0374918868754108e+00  1.2942605200631430e+00  1.2988605215830875e+00  1.1805403789317581e+00  1.1164740089729912e+00  1.1104913664989724e+00  1.0820865137862674e+00  1.0545795624735541e+00  1.0506657452175048e+00  1.0403110147231038e+00  1.0379334778976537e+00  1.0426348162343766e+00  1.0404824510829782e+00  1.0416249405821085e+00  1.0346932006230030e+00  1.0318871027032228e+00  1.0283379321695494e+00  1.0272063701642955e+00  1.0252120851587609e+00  1.0196693019600891e+00  1.0186200747832270e+00  1.3695562558837475e+00  1.3953963964184202e+00  1.5106846071841231e+00  1.5770748565072819e+00  1.8123610805106138e+00  2.0770956899892807e+00  2.3770724703320769e+00  2.7262975265823326e+00  2.8204943934524462e+00  3.1633045111098821e+00  2.8682631034043484e+00  2.7114138305151303e+00  2.1777748225743729e+00  1.2186405237137556e+00  1.2364171897006679e+00  1.3170018555338616e+00  1.4242834274253375e+00  1.5875978081966358e+00  1.6291547308717809e+00  1.7067600643283829e+00  2.2242254236176238e+00  2.6919621006874408e+00  2.5146273668490067e+00  2.3761452642276724e+00  2.6081320277383910e+00  2.9195348271176469e+00  3.0992405530864193e+00  3.2022147481389647e+00  2.6075404637938155e+00  2.3926613018427294e+00  1.1219268942114708e+00  1.1510124344637467e+00  1.0978283659839492e+00  1.0742449738660704e+00  1.0628052802877823e+00  1.0457670012570539e+00  1.0389095598105005e+00  1.0390141905122852e+00  1.0429707860169559e+00  1.0371514312413455e+00  1.0373100096177328e+00  1.0358882837061083e+00  1.0332077209591835e+00  1.0312774689745454e+00  1.0289351631436698e+00  1.0277470684914425e+00  1.0269012378827305e+00  1.0249512853971261e+00  1.0210963044456767e+00  1.0189464887994812e+00  1.1630509660240482e+00  1.1954094566632725e+00  1.2471572896637051e+00  1.2604000139881633e+00  1.3142754704427648e+00  1.5063521833438096e+00  1.4922686047068283e+00  1.5680434013791489e+00  1.7325359003684393e+00  2.0497746963638290e+00  2.0261957526462204e+00  2.2901720772782133e+00  2.3543170836474032e+00  2.8707483604332622e+00  2.9695895824931799e+00  2.5560814750558860e+00  1.8125423995933998e+00  1.1142875485106476e+00  1.0922726200456783e+00  1.0965987060101916e+00  1.0545294671332786e+00  1.0412726826455114e+00  1.0435660162278890e+00  1.0508947901231442e+00  1.0511908837968689e+00  1.0389471670748121e+00  1.0405413547066975e+00  1.0319880724252357e+00  1.0329345883940642e+00  1.0292429491328878e+00  1.0270758692090702e+00  1.0244768629844430e+00  1.0232521066607116e+00  1.0208801392559852e+00  1.1410253839424549e+00  1.1304771763527390e+00  1.1606175191092736e+00  1.1923257465501451e+00  1.2130639290536469e+00  1.2126810240292216e+00  1.2880371019331651e+00  1.3778303031451884e+00  1.4773137105383833e+00  1.6118182520557542e+00  1.7802937799355387e+00  1.7734739940100661e+00  1.7191857203600136e+00  1.8648031022019058e+00  2.1082198154567604e+00  2.1318048346950893e+00  2.2268316599947555e+00  1.8486081820831051e+00  1.7102661015319445e+00  1.1173332173404422e+00  1.0767767290042525e+00  1.0702789156000041e+00  1.0515247761659383e+00  1.0514724485562856e+00  1.0484989391221751e+00  1.0412139995735235e+00  1.0353154483211791e+00  1.0297357887419998e+00  1.0305721980335105e+00  1.0300682904293881e+00  1.0230671099029816e+00  1.0205163831851054e+00  1.0239335395787912e+00  1.0233132956242579e+00  1.1107033657859284e+00  1.1439079841698494e+00  1.1581630177433067e+00  1.1457233939036855e+00  1.1103619110197882e+00  1.0757280721520717e+00  1.0713215234407218e+00  1.0716765793197396e+00  1.0665350986398741e+00  1.0673814122515493e+00  1.0660496623096858e+00  1.0529834559870046e+00  1.0490945025892988e+00  1.0415470414257058e+00  1.0369188124395452e+00  1.0291155525379641e+00  1.0287961448129042e+00  1.0346551629775691e+00  1.0260665852063655e+00  1.0200605819894812e+00  1.0176224366929714e+00  1.0171942101561771e+00  1.0202002021620131e+00  1.1623844175202884e+00  1.1838909164007692e+00  1.1760136287183667e+00  1.2038285654629843e+00  1.2223405591538929e+00  1.2528057684707676e+00  1.3533348303133650e+00  1.4464174139875725e+00  1.5403860481629235e+00  1.6009254336430558e+00  1.5756449548560856e+00  1.5230117663065796e+00  1.6194067824729512e+00  1.8201584126725696e+00  1.9437195660270106e+00  1.8530744601223081e+00  2.4095397301622845e+00  1.0337319952185091e+00  1.1432272150680483e+00  1.0867760420232901e+00  1.0585336116046284e+00  1.0553093920481811e+00  1.0574459174895696e+00  1.0554304099789040e+00  1.0551466078034129e+00  1.0521469529082148e+00  1.0577760066086708e+00  1.0585259894264845e+00  1.0482445541358847e+00  1.0418422153090512e+00  1.0322299480766777e+00  1.0237866541445426e+00  1.0237632630590863e+00  1.0233965316556932e+00  1.0276751761172007e+00  1.0246271516862078e+00  1.0257898386373163e+00  1.0202076435669363e+00  1.0172074723866964e+00  1.0155494991083236e+00  1.0162356967795072e+00  1.1460892981219297e+00  1.1390050852198597e+00  1.1233150788385653e+00  1.1623138405876059e+00  1.1820540139737108e+00  1.2031294121955092e+00  1.2458016033314803e+00  1.2946753463567264e+00  1.4216852252913192e+00  1.4215173982526177e+00  1.5411400943687728e+00  1.5005865551065327e+00  1.4984828258960583e+00  1.5641854361666063e+00  1.8940777759415162e+00  2.0977293770469316e+00  2.5405190889194968e+00  4.2877128553927060e+00  1.1111150836059243e+00  1.0949076370928106e+00  1.1184652860941364e+00  1.1059902503707759e+00  1.0956119375525082e+00  1.1247255686892292e+00  1.1572982197706871e+00  1