<?xml version="1.0"?>
<VTKFile type="UnstructuredGrid"  version="0.1"  >
<UnstructuredGrid>
<Piece  NumberOfPoints="1237" NumberOfCells="2335">
<Points>
<DataArray  type="Float64"  NumberOfComponents="3"  format="ascii">-1 3.09081664739187e-17 0  -0.9843750000000001 0.02706329386826373 0  -0.9586042096960951 -0.0236073080308172 0  -0.9687500000000001 -0.05412658773652738 0  -0.9687499999999999 0.05412658773652741 0  -0.9472957560052226 0.006184170637571083 0  -0.9267582714381279 -0.04141318421241193 0  -0.9316799261084423 -0.07502217834255943 0  -0.9375000000000001 -0.1082531754730548 0  -0.9304535526187879 0.02123269309792843 0  -0.9155919293475937 -0.02097532195701668 0  -0.8901898660228655 -0.05879793213392052 0  -0.8961407092258983 -0.08791682354371629 0  -0.9041593017321125 -0.1150769371767221 0  -0.9062500000000001 -0.1623797632095822 0  -0.9531250000000001 0.08118988160479108 0  -0.890147330991285 -0.0122086527191084 0  -0.8576709175674995 -0.04850009197978337 0  -0.8494979525438807 -0.09201284187231788 0  -0.8688087259335305 -0.1227339854926646 0  -0.8657397003544938 -0.1744307530448399 0  -0.875 -0.2165063509461097 0  -0.9191385500632976 0.05668682295204934 0  -0.9374999999999999 0.1082531754730548 0  -0.8414732086268925 -0.02979075402072296 0  -0.8838615846104741 0.03281364894932847 0  -0.9025993020289615 0.08399522279934024 0  -0.9218749999999999 0.1353164693413185 0  -0.8069091517126806 -0.1063797548106189 0  -0.8227041474082361 -0.1554136366367828 0  -0.8450362008579381 -0.1636153151676399 0  -0.824611073526637 -0.2087806554713395 0  -0.8432447828874938 -0.2299625171474235 0  -0.8437500000000001 -0.270632938682637 0  -0.8074688489602485 -0.04534311577063995 0  -0.7748599739446962 -0.09147609870793595 0  -0.7599743974004342 -0.1515693530204255 0  -0.7874243887323827 -0.1486997295560047 0  -0.7740096897566618 -0.1902442517032015 0  -0.7982566063220082 -0.2018609305277571 0  -0.7939958243211587 -0.243248178868526 0  -0.8033953092403587 -0.2739516347679044 0  -0.8125000000000002 -0.3247595264191645 0  -0.8481685757897792 0.03463580614500975 0  -0.8763526826359844 0.09829521691979071 0  -0.9062500000000001 0.1623797632095823 0  -0.7872217742390745 -0.03024195936296309 0  -0.7565548600439893 -0.06556774174670035 0  -0.7280367863186943 -0.1046281989307924 0  -0.7428557301118698 -0.1326576576268934 0  -0.7130575397441211 -0.2080743084118526 0  -0.7425045269468755 -0.2040970945489534 0  -0.7674851701419854 -0.2290293682917657 0  -0.7599986833552189 -0.2682349390602705 0  -0.7616526459078594 -0.3305135978123668 0  -0.7812500000000001 -0.378886114155692 0  -0.816253599818404 0.01031925268654644 0  -0.8190007077644565 0.05195524742955143 0  -0.8424384387483641 0.09512493014350837 0  -0.8689593925676488 0.1377994471097691 0  -0.890625 0.1894430570778459 0  -0.7410175419981699 -0.05005547045971393 0  -0.6820539222728559 -0.1168108160858607 0  -0.6757831681120814 -0.161343132024619 0  -0.7066615444436462 -0.1644905737066079 0  -0.6637898688950368 -0.220644916152676 0  -0.6744004859163939 -0.2587362859831477 0  -0.7325446303104611 -0.2447371505997974 0  -0.7216022609970536 -0.292027783035909 0  -0.7407903637588057 -0.3123505827564781 0  -0.7035881363438097 -0.356533874799312 0  -0.7288120197725808 -0.392133095104917 0  -0.75 -0.4330127018922193 0  -0.7897359628532806 0.006725954256448229 0  -0.7972623766874077 0.06341714755367762 0  -0.8304362309430872 0.1129567769931919 0  -0.8421684945059275 0.1611058176776091 0  -0.8750000000000001 0.2165063509461097 0  -0.7637447900489446 0.0084055150883772 0  -0.7027910536312951 -0.05387662733901926 0  -0.6399011514174923 -0.1176136647146791 0  -0.6199508075525719 -0.1685360793359413 0  -0.6333977552331249 -0.1967451137076092 0  -0.619216095826812 -0.2480485729726879 0  -0.6276040039072337 -0.2883488704175591 0  -0.6261231993592246 -0.3335289324385786 0  -0.6865068439078151 -0.2949080438254524 0  -0.6907604947283688 -0.3285687191624082 0  -0.6650087872471667 -0.3699552850214223 0  -0.6798435707998647 -0.4026405874050478 0  -0.7050830176678921 -0.447022367558788 0  -0.7187499999999999 -0.4871392896287467 0  -0.7723498686347566 0.07044317118097282 0  -0.8017262003913778 0.122128289958322 0  -0.8169126563784805 0.1693170073489986 0  -0.8593750000000001 0.2435696448143733 0  -0.7259809026153086 0.008482836968837627 0  -0.6740418109022589 -0.02450688559989462 0  -0.7223115334823216 0.04936346203485886 0  -0.7572899881178878 0.1097950588389946 0  -0.7734646598732114 0.1561617258837397 0  -0.8083562768108126 0.2049421991290764 0  -0.84375 0.270632938682637 0  -0.6660887510003569 -0.06759964205641175 0  -0.6171961871067949 -0.09908864551504318 0  -0.5833829368075305 -0.1731805645520128 0  -0.5851671105835449 -0.224515763015499 0  -0.5727138940289876 -0.2779087493001106 0  -0.5801058985757366 -0.3174797115370438 0  -0.57948544680462 -0.3632267691333948 0  -0.6267964734590343 -0.3775121834136309 0  -0.6398433230386719 -0.4169421315431633 0  -0.6616426493335408 -0.4488274832297308 0  -0.6803761222242836 -0.4915582867438201 0  -0.6875 -0.5412658773652741 0  -0.6566148164134606 -0.3360342982328451 0  -0.6542800869698886 0.003633874519227934 0  -0.6158214682809207 -0.05883418227773253 0  -0.5750967197363078 -0.0918766710651954 0  -0.5702619644256461 -0.1314570888217494 0  -0.5310796517017504 -0.1985334532999667 0  -0.5379237787887492 -0.2420866834293268 0  -0.5516118004787688 -0.2643356959406811 0  -0.5219299366261414 -0.3074188372821275 0  -0.5441569679299709 -0.3203940814531961 0  -0.544846265790987 -0.3611331944285065 0  -0.5114751055162018 -0.4066686830605467 0  -0.5298500409650213 -0.4384707797967484 0  -0.5794737256993363 -0.4086737180861368 0  -0.6054298025247353 -0.4197528954248557 0  -0.592710431245361 -0.4609848902618885 0  -0.6134133603589965 -0.4927681039827594 0  -0.6393590131426583 -0.5198261223711328 0  -0.6438736370520471 -0.5600300692022314 0  -0.65625 -0.5953924651018015 0  -0.6961199877549025 0.06467019448070167 0  -0.7322688722710476 0.1241970790870847 0  -0.7614677067674487 0.1843417562313635 0  -0.7982098286578407 0.241597904092872 0  -0.828125 0.2976962325509007 0  -0.6121569899603913 -0.02049935287448479 0  -0.5680093344887456 -0.06210558644879417 0  -0.5296938028141881 -0.1373067408269198 0  -0.4901525291003586 -0.1955789237044915 0  -0.4746183446720159 -0.2428634803524866 0  -0.4858590591960716 -0.2715088080329482 0  -0.4715952226353661 -0.3270718944547512 0  -0.4874270099800481 -0.3483793786947822 0  -0.480078652051836 -0.4044778124091272 0  -0.5107966792581313 -0.3607592194079098 0  -0.6351984073276686 0.03037645136060999 0  -0.6919512395101405 0.1148619971399276 0  -0.7371035741994222 0.1934824949257085 0  -0.7677243675294183 0.2452436239691324 0  -0.8125000000000001 0.3247595264191646 0  -0.5070956227453038 -0.2856926586873541 0  -0.4592753826052925 -0.4489578951960593 0  -0.4551538480224278 -0.4879280476876971 0  -0.4870834355975865 -0.4924138429753193 0  -0.5543645851211818 -0.4600201827899537 0  -0.5636063113133203 -0.5062314567180716 0  -0.5722394951023636 -0.540723915347752 0  -0.6004398475588687 -0.5639514773360513 0  -0.6165119354103209 -0.6003123312214718 0  -0.625 -0.6495190528383291 0  -0.5850968043587489 -0.01747042289921243 0  -0.5715475053296581 0.003755875240688324 0  -0.632542541699327 0.08118252107995054 0  -0.6715186710197373 0.1292199759178416 0  -0.6982974014086432 0.1789827939308964 0  -0.7309041627521532 0.2234419242184485 0  -0.760853516405614 0.2792464453234507 0  -0.7607023230601084 0.3093962646126385 0  -0.7968750000000001 0.3518228202874282 0  -0.5264933157473631 -0.08231084764042879 0  -0.493638060994832 -0.1339939179799725 0  -0.4589626054281711 -0.1957888821520802 0  -0.438352019728192 -0.2427967943470546 0  -0.4349603537871217 -0.2905998917905525 0  -0.4340727913783781 -0.3307406261902842 0  -0.3931940322566967 -0.3797355265396843 0  -0.4328932475453516 -0.4073381105917769 0  -0.415502513600294 -0.4580373266102869 0  -0.385415281901366 -0.511073437509846 0  -0.3881529845957117 -0.5477450464703199 0  -0.4322278898459536 -0.5328927439743946 0  -0.4708621541874918 -0.5447008496340244 0  -0.5212781730861482 -0.509033783025311 0  -0.5273194299998638 -0.5485603521097303 0  -0.5234826944144788 -0.5932528774620949 0  -0.5625853138775753 -0.5789028834579788 0  -0.5740199804033532 -0.6134996816985621 0  -0.5765847191201461 -0.6564593508420057 0  -0.59375 -0.7036456405748563 0  -0.5800862410227176 0.06953847272188511 0  -0.62345922728912 0.1087748024732029 0  -0.6592027535596012 0.1483415294528432 0  -0.7030117102084296 0.2220614128747072 0  -0.7211245865447338 0.2726260665754737 0  -0.7293612713284667 0.3214771290950779 0  -0.7890625000000001 0.3653544672215601 0  -0.5497332796675871 0.02526608106074905 0  -0.53018493643993 -0.01879708202667862 0  -0.5023738120312831 -0.06929095084794874 0  -0.4543086626793323 -0.1501783646722772 0  -0.4248556544311721 -0.2001778118037034 0  -0.3836034551939345 -0.2834399929263637 0  -0.3735195503155113 -0.3423773121212576 0  -0.3164083588907829 -0.4085503075097236 0  -0.3374441431234344 -0.4358308634994116 0  -0.3563643403403329 -0.4652367397589351 0  -0.3293009761387771 -0.5276556289563349 0  -0.3139040252508816 -0.5855140438576723 0  -0.366730554445017 -0.5948349816197472 0  -0.4217402740883738 -0.5900354366832488 0  -0.4753932323153703 -0.5864582514369745 0  -0.4778516850572023 -0.6318307895279576 0  -0.5087154203841168 -0.6499046400010015 0  -0.5448706663656597 -0.6492816546120687 0  -0.529090650986931 -0.6944022548983919 0  -0.5447409078977913 -0.7268187065901833 0  -0.5625000000000001 -0.7577722283113839 0  -0.5918572054463975 0.1338101643626165 0  -0.6347680448791199 0.1520640736039057 0  -0.6649299767989149 0.2164013530528183 0  -0.6741572651241856 0.2686102951723429 0  -0.6789476455262888 0.321375691006909 0  -0.7254508777365434 0.3530655186058727 0  -0.7812499999999999 0.3788861141556918 0  -0.5377716048704266 0.05272672813330151 0  -0.5104530844077947 -0.001526069099174808 0  -0.46319401157798
[...]
<PointData  Scalars="w"> 
<DataArray  type="Float64"  Name="w"  format="ascii">1.0142325500658047e+00  1.0131355575775520e+00  1.0141271330294681e+00  1.0146665110609507e+00  1.0116657929959632e+00  1.0138439931151007e+00  1.0163479771235406e+00  1.0157729063065679e+00  1.0161559760457499e+00  1.0155319316082601e+00  1.0198490779352929e+00  1.0240187100637741e+00  1.0205303382155655e+00  1.0190920296507118e+00  1.0220710576099843e+00  1.0120245051170662e+00  1.0304835641356684e+00  1.0383867510798437e+00  1.0362003826664432e+00  1.0258600440545733e+00  1.0263187367968094e+00  1.0257828637085091e+00  1.0159157615023455e+00  1.0147203948663586e+00  1.0419300669042288e+00  1.0287636710241803e+00  1.0192831850155391e+00  1.0211366010752700e+00  1.0444834761889772e+00  1.0363094495051146e+00  1.0318639721279173e+00  1.0306261576642557e+00  1.0299501801144222e+00  1.0393347797485728e+00  1.0426007736079039e+00  1.0442941932165206e+00  1.0421574853174698e+00  1.0403459206116161e+00  1.0393878459912287e+00  1.0371542213890279e+00  1.0420002630970249e+00  1.0521755461164246e+00  1.0907519676074104e+00  1.0400687265403366e+00  1.0278786150183945e+00  1.0313167290372034e+00  1.0458971415738965e+00  1.0510318462281194e+00  1.0558236415465343e+00  1.0471928061875209e+00  1.0588752183466774e+00  1.0466131021793599e+00  1.0433635628119857e+00  1.0565742088799257e+00  1.0930256874826436e+00  1.1219746040776220e+00  1.0425254097254366e+00  1.0410327945888815e+00  1.0354939051046508e+00  1.0368484748325912e+00  1.0425196088006161e+00  1.0612537532298971e+00  1.0822222839357938e+00  1.0808048940904298e+00  1.0623563337136497e+00  1.0845903340346890e+00  1.0934620100572805e+00  1.0564051425546350e+00  1.0606862609898271e+00  1.0761757267594012e+00  1.0898662925790663e+00  1.1278041087759270e+00  1.1297892555098377e+00  1.0509738558124562e+00  1.0507047390219346e+00  1.0431561640305225e+00  1.0515053579042071e+00  1.0480172955026807e+00  1.0644617115336956e+00  1.0817884006061218e+00  1.0913140225055955e+00  1.1063941602620508e+00  1.0954259626846841e+00  1.0818876157395654e+00  1.0837415796349643e+00  1.0766846914423218e+00  1.0677580548901600e+00  1.0646954979637964e+00  1.0759347000004178e+00  1.1157088493422922e+00  1.1368798033713365e+00  1.1333792515236025e+00  1.0710812777774534e+00  1.0645554500717751e+00  1.0656595015477084e+00  1.0456824373530103e+00  1.0904900976384704e+00  1.0999792665135146e+00  1.1101837063509550e+00  1.0857956667917825e+00  1.0841710661842416e+00  1.0648271720609306e+00  1.0406174966252226e+00  1.0897674985638917e+00  1.0891039492191210e+00  1.1007696339272097e+00  1.0784695069382484e+00  1.0684034424701117e+00  1.0812804748006206e+00  1.1006973767349406e+00  1.0758451192301197e+00  1.0974390047899341e+00  1.1320514370616828e+00  1.1483695512038947e+00  1.1527916128784508e+00  1.0635466468269614e+00  1.1163468387583049e+00  1.0938246182734817e+00  1.0927401268658907e+00  1.0891699180098577e+00  1.0987301920655748e+00  1.0732284328732593e+00  1.0658314142188867e+00  1.0650902135891827e+00  1.0678068459305341e+00  1.0867989751637401e+00  1.1386070925271190e+00  1.1650853813196194e+00  1.1157397817309365e+00  1.0984636640412979e+00  1.1141328759882438e+00  1.1352189843788172e+00  1.1516663697718772e+00  1.1380163126345586e+00  1.1286100701722070e+00  1.1192003734410529e+00  1.0956885649920938e+00  1.0877274448838294e+00  1.0499891101855054e+00  1.0334038294160761e+00  1.1004981480603051e+00  1.0983227022304647e+00  1.0939139114682477e+00  1.0916842957155959e+00  1.0918361196104207e+00  1.0799207021435351e+00  1.1216612683311011e+00  1.1000072524297955e+00  1.1744401027932609e+00  1.0837433889306385e+00  1.1169807269913781e+00  1.1137255883310435e+00  1.0736673180431364e+00  1.0469705087132135e+00  1.0360038792705655e+00  1.0696742086260549e+00  1.2978496644963966e+00  1.3396169643053697e+00  1.2675594861194834e+00  1.1367949759226754e+00  1.1395667827828133e+00  1.1425480522517706e+00  1.1486698109494906e+00  1.1376950700394901e+00  1.1479541052682336e+00  1.1072796720157789e+00  1.1025588603966172e+00  1.1264078062913316e+00  1.1053675898137174e+00  1.0759478242118887e+00  1.0600304320542822e+00  1.0482911154327128e+00  1.0475289034452258e+00  1.0424125440302558e+00  1.0994396204646781e+00  1.0908854684294713e+00  1.0906071540808822e+00  1.1074294226863926e+00  1.1424037287791089e+00  1.1853617783599406e+00  1.2924350288693145e+00  1.2598151518194647e+00  1.3231788979304477e+00  1.3629543252336860e+00  1.3614367375927163e+00  1.3238056306448120e+00  1.2501261816788667e+00  1.1794153899280793e+00  1.1615521055309364e+00  1.1794104467449888e+00  1.1570840940798575e+00  1.1844019498954814e+00  1.1735216482695361e+00  1.1935032364070310e+00  1.0896360327692682e+00  1.1051535230002691e+00  1.0918330588444842e+00  1.0706975547095385e+00  1.0621848589170075e+00  1.0563526665604295e+00  1.0463677429393841e+00  1.0842595454133392e+00  1.0936071735493060e+00  1.1138489306773345e+00  1.0948754483513339e+00  1.1007116933886389e+00  1.1658259164947016e+00  1.2366598435271554e+00  1.2491823109504256e+00  1.2260332362548436e+00  1.2404585157606640e+00  1.3100552743016680e+00  1.3792214327078498e+00  1.3493595419345779e+00  1.2986170907480503e+00  1.2304358318851119e+00  1.2629015891535615e+00  1.2561690167298665e+00  1.2238943101106765e+00  1.2457103996283150e+00  1.2315355201662108e+00  1.2479488832473609e+00  1.0912781579061013e+00  1.1027882395291890e+00  1.1021831150241930e+00  1.0865498440525141e+00  1.0781061022140614e+00  1.0636655450517662e+00  1.0503812090819744e+00  1.0791553663315074e+00  1.0955955912730366e+00  1.1468062576616531e+00  1.1145509961208306e+00  1.1206429044039425e+00  1.1750764237659783e+00  1.1746710634067419e+00  1.2072520022687616e+00  1.2300811143579422e+00  1.2614687702915603e+00  1.2685702806181538e+00  1.2607616803001231e+00  1.5047897041281577e+00  1.4761476585625528e+00  1.3851379686469856e+00  1.4433787371091311e+00  1.5329846744612483e+00  1.3350430806829334e+00  1.3453345926744338e+00  1.3096874482227274e+00  1.2855450862176148e+00  1.3265844081021565e+00  1.4102851983929034e+00  1.1012484317471676e+00  1.1158868594291327e+00  1.1160073174828109e+00  1.0832007858433461e+00  1.0742491400105623e+00  1.0589714667588468e+00  1.0976457426338777e+00  1.0871060421583800e+00  1.0873355909937092e+00  1.1036182133797567e+00  1.1813364529894326e+00  1.1803194295434758e+00  1.1226723683951318e+00  1.1318855531684837e+00  1.1992682791806601e+00  1.2030848438165620e+00  1.1938683845427447e+00  1.2118919527538301e+00  1.2508759412753545e+00  1.2561971619544907e+00  1.3617334955867750e+00  1.4286879544806834e+00  1.4975563831938952e+00  1.4348587554842263e+00  1.4188742174631015e+00  1.4778243332287295e+00  1.4254982789615762e+00  1.4086895464751834e+00  1.5651938352720738e+00  1.4846336869175745e+00  1.3841956954547692e+00  1.3354050543412896e+00  1.3470102699097681e+00  1.4645045949188809e+00  1.5254447199094550e+00  1.1042167019346969e+00  1.1222364746843381e+00  1.1577512129554557e+00  1.1435493481068073e+00  1.0993667712753719e+00  1.1014532511675177e+00  1.1451487623587517e+00  1.1635116061297459e+00  1.1772928879589781e+00  1.1397545982098083e+00  1.1486353742099373e+00  1.0949597522098140e+00  1.0662190992362524e+00  1.0680712137382473e+00  1.0629552034859964e+00  1.2188164800903665e+00  1.3463542674716731e+00  1.2421584623499504e+00  1.2478427069741287e+00  1.3928599439515341e+00  1.5006238098107503e+00  1.3894748976297135e+00  1.4210065162118901e+00  1.5209653989695500e+00  1.5014158060627860e+00  1.4045291666176893e+00  1.4407880033851546e+00  1.3718374659268282e+00  1.3794019796406547e+00  1.4723719092855680e+00  1.4433824885481754e+00  1.5196743571324729e+00  1.4056271603541513e+00  1.3624088380217068e+00  1.4016687049160992e+00  1.4621133376920354e+00  1.1622253916125620e+00  1.1191519557520593e+00  1.0936081899213705e+00  1.0689295613319987e+00  1.0610515964691241e+00  1.0560075953781065e+00  1.0543595014452258e+00  1.0487966306677154e+00  1.1414224945482847e+00  1.1005400969338830e+00  1.1233071571561779e+00  1.1448403098057116e+00  1.1598711307940075e+00  1.3920755956806532e+00  1.4327435978146894e+00  1.3070164253715806e+00  1.3327146861094246e+00  1.3901193683050603e+00  1.4445992576398070e+00  1.4394786768290524e+00  1.4368654242618324e+00  1.5949359763649760e+00  1.7399016232857754e+00  1.8548559182104276e+00  1.5588430887532996e+00  1.4573440799757529e+00  1.4622566844507832e+00  1.4635562232037365e+00  1.4627380572783470e+00  1.3888524702475544e+00  1.5024561688241787e+00  1.5700635114122659e+00  1.5675998743232784e+00  1.4756437878155764e+00  1.4487772238254255e+00  1.4311349207995745e+00  1.1259393788461352e+00  1.1256624660397461e+00  1.0976835416179531e+00  1.1245802822976643e+00  1.1548522639003229e+00  1.1795486838558824e+00  1.2350133697680863e+00  1.2407953970908241e+00  1.3003172405341108e+00  1.3498839180827673e+00  1.3433367071177649e+00  1.5095492702505888e+00  1.4667526969242957e+00  1.5693250483886858e+00  1.4804876620243530e+00  1.6243729236307236e+00  1.4467222630513163e+00  1.0939837356615569e+00  1.0762440761272007e+00  1.0764044011430478e+00  1.0656088847192684e+00  1.0624410723164359e+00  1.0459260750238570e+00  1.0397414554600435e+00  1.9846917044234769e+00  2.1465653418932451e+00  1.6684146965439106e+00  1.4914592879780391e+00  1.4354512892296254e+00  1.5047941912603024e+00  1.5268718203967691e+00  1.1198007896484601e+00  1.1314187807847329e+00  1.0955356214151344e+00  1.0746934709041709e+00  1.0676238109228533e+00  1.0685317411569666e+00  1.0659684826243401e+00  1.0585338981735133e+00  1.0477590550879072e+00  1.0383939469073131e+00  1.1177579978467476e+00  1.1648761094466347e+00  1.1988060894771535e+00  1.1816503444873834e+00  1.2585701111931018e+00  1.3273277537292023e+00  1.3787799692411224e+00  1.4447590320913573e+00  1.4609084001213843e+00  1.6421846874972559e+00  1.6112257865932842e+00  1.5277001951334501e+00  1.5415539684516559e+00  1.9417165359228346e+00  1.9217013717781335e+00  1.6589840240775404e+00  1.1538817749184289e+00  1.1353747668923868e+00  1.1380164599032809e+00  1.1267731369717213e+00  1.0843544116796755e+00  1.0733461445984780e+00  1.0623891034189281e+00  1.0595601105729016e+00  1.0464596486830107e+00  1.0424471718720787e+00  1.0453229959051509e+00  1.0443060459167017e+00  1.2127346978798750e+00  1.1894105077882409e+00  1.1514349945807694e+00  1.2255064694608082e+00  1.2836343314907497e+00  1.4455115721208125e+00  1.4872883712749978e+00  1.7193559919324108e+00  1.6882217505924082e+00  1.5133761077735961e+00  1.5455323005354591e+00  1.6172195709743560e+00  1.6133703697434014e+00  1.1662865677627787e+00  1.2361857579050226e+00  1.1469532324258838e+00  1.1503851531739997e+00  1.2190631765001845e+00  1.3097737103766247e+00  1.4285952299326563e+00  1.5829199152654241e+00  1.5112426435489961e+00  1.5907652995044961e+00  1.7489527942416354e+00  1.6520694340050421e+00  1.5911789467524629e+00  1.5936073224394272e+00  1.1605704547377551e+00  1.1493420187044929e+00  1.1546869472679266e+00  1.1157805717502602e+00  1.0900351097642120e+00  1.0680982602978664e+00  1.0550474987848175e+00  1.0469613515432419e+00  1.0371531720703675e+00  1.0372331835597310e+00  1.0371249541957495e+00  1.0457503382575910e+00  1.0608322785164206e+00  1.2201571768313932e+00  1.1854271675938635e+00  1.1775815686666042e+00  1.2208073781893978e+00  1.2553244688547525e+00  1.5732956060948811e+00  1.7372196403222713e+00  1.6090391071016152e+00  1.7961812794417036e+00  2.0044589950207738e+00  1.8678311416555993e+00  1.1558368570714637e+00  1.1687422960370111e+00  1.1639554054780996e+00  1.1484103190185810e+00  1.1141063286663606e+00  1.0937188539449627e+00  1.0707638456156265e+00  1.0512858285785849e+00  1.0447348390189701e+00  1.0418292610904729e+00  1.0386994172059263e+00  1.0375357942622208e+00  1.0445112940919765e+00  1.0352365095104661e+00  1.2083198381398883e+00  1.1603734766468090e+00  1.1416717071526945e+00  1.1544152486964547e+00  1.1804141822634597e+00  1.1626345567491136e+00  1.1021842737441623e+00  1.0599342912975807e+00  1.0472685282616734e+00  1.0414046230384646e+00  1.0407808674814776e+00  1.0443263502121829e+00  1.0427176681579409e+00  1.0412449538304938e+00  1.0421215736830658e+00  1.2702432274288777e+00  1.3033903072491635e+00  1.2800348732418090e+00  1.5168333648982548e+00  1.6530408196826984e+00  1.7259667075414566e+00  2.3274885474805553e+00  2.4124845433280950e+00  1.9230422488227550e+00  1.1854618965636947e+00  1.1776489799326546e+00  1.1433389138692573e+00  1.1751015701549945e+00  1.2213224725449272e+00  1.1744732517834586e+00  1.1535866832313248e+00  1.1142917525900073e+00  1.0665450180752147e+00  1.0598457011688305e+00  1.0494797784715375e+00  1.0432066673653497e+00  1.0357626210032342e+00  1.0351559913465624e+00  1.0373011889390751e+00  1.0402664130139079e+00  1.0323018297963440e+00  1.0335566492431150e+00  1.0393413442574901e+00  1.2772713038368209e+00  1.2799949916413509e+00  1.3215616756884929e+00  1.3437525456762149e+00  1.4216932972389507e+00  1.5835461987994131e+00  2.5656681613181278e+00  3.3922617479580968e+00  3.1750329463771596e+00  1.1408255965956817e+00  1.1674491274516121e+00  1.1356183058320328e+00  1.1605027196356907e+00  1.1445559915375909e+00  1.1063281801818121e+00  1.0747664420472607e+00  1.0616847143973391e+00  1.0553699128260008e+00  1.0564214965599485e+00  1.0400460523312982e+00  1.0347001029713478e+00  1.0330433958270147e+00  1.0358099956552260e+00  1.0379462472232148e+00  1.0298576337661427e+00  1.0245342830097059e+00  1.2010026755315908e+00  1.2038674330147587e+00  1.2629176663654726e+00  1.3972301157886167e+00  1.3749401744707954e+00  1.4819524591413287e+00  2.3999358964950832e+00  3.2266627524596734e+00  2.3266362162855114e+00  2.1286347940789501e+00  1.1568861428452513e+00  1.1605019203162195e+00  1.1922852486759605e+00  1.2027007944817050e+00  1.2616575420014986e+00  1.4793354745505307e+00  1.5588846998397330e+00  2.0261441942228537e+00  2.2678184931443166e+00  1.9950726219757016e+00  1.5642049125726079e+00  1.5906913466472528e+00  1.1698167955375667e+00  1.1219532695199428e+00  1.1124529454142738e+00  1.1131944592573000e+00  1.0864896099602541e+00  1.0649002484539931e+00  1.0704819973669935e+00  1.0528924263863719e+00  1.0477077088953475e+00  1.0583142516527020e+00  1.0493410078340326e+00  1.0447606859160947e+00  1.0406245507454637e+00  1.0295378649887883e+00  1.0304551662129398e+00  1.0271917892806517e+00  1.0233556660180381e+00  1.0217755416905994e+00  1.0402333126278438e+00  1.1642145912207618e+00  1.2050933272373845e+00  1.1538322328035528e+00  1.0988085307040898e+00  1.0901405529202304e+00  1.0697849204053231e+00  1.0497855399673135e+00  1.0480288609519928e+00  1.0413507173272918e+00  1.0397568644903994e+00  1.0443085295190131e+00  1.0423751501405891e+00  1.0441197333605599e+00  1.0356220989216731e+00  1.0326962375545448e+00  1.0284727485702969e+00  1.0271376279142346e+00  1.0261546417982175e+00  1.0202377472585149e+00  1.0194774284950798e+00  1.2194016249266899e+00  1.2265861459520386e+00  1.3354215877074085e+00  1.2849672888030461e+00  1.4052456651601204e+00  1.5131510403778219e+00  1.5696698876259991e+00  1.7975919806290366e+00  1.8147577526898353e+00  1.7231480181225003e+00  1.5216703339631705e+00  1.4140390631931121e+00  1.3642401488873404e+00  1.1560207482787836e+00  1.1522525049563141e+00  1.1979058404302767e+00  1.3113725881575391e+00  1.3719375347588754e+00  1.3630317995412831e+00  1.3840837859143291e+00  1.6052179462894804e+00  1.8300876867910840e+00  1.7505191965025753e+00  1.6467532645021994e+00  1.6537326173965643e+00  1.5591727744390080e+00  1.5819782848359323e+00  1.5939975854236783e+00  1.3716923215941608e+00  1.3255235749638894e+00  1.1000707915343346e+00  1.1210767823610470e+00  1.0829507372580867e+00  1.0637246803184170e+00  1.0555911869738410e+00  1.0443624810749286e+00  1.0402746244304555e+00  1.0423930320121464e+00  1.0469386959946754e+00  1.0393167610284264e+00  1.0395642689418436e+00  1.0384999350879989e+00  1.0353774981625623e+00  1.0316430544415136e+00  1.0292073785007956e+00  1.0276519523771137e+00  1.0266150321398486e+00  1.0252325414124976e+00  1.0212764437122421e+00  1.0191486575551920e+00  1.1251426606073864e+00  1.1359859754053649e+00  1.1733816338211449e+00  1.2101290153046840e+00  1.2405300407684405e+00  1.3291925235296358e+00  1.3196142154421153e+00  1.3363054784204020e+00  1.3912345331077458e+00  1.5376155450995361e+00  1.4856088310742619e+00  1.5620322073797763e+00  1.4912844936892520e+00  1.5802347551927440e+00  1.5680495808036092e+00  1.3716480388424883e+00  1.2295813845453065e+00  1.0989081013276314e+00  1.0770594585687876e+00  1.0854791211815822e+00  1.0533924376678492e+00  1.0433768678592337e+00  1.0495310128918653e+00  1.0571172419630004e+00  1.0571370814000778e+00  1.0421728482857435e+00  1.0455862832911478e+00  1.0341423238160785e+00  1.0341194069872710e+00  1.0290566371776557e+00  1.0260944733030490e+00  1.0238698316934995e+00  1.0230634335290045e+00  1.0206453289257535e+00  1.1136462435519279e+00  1.1103665540163499e+00  1.1317443372695697e+00  1.1595218542480250e+00  1.1931146591399431e+00  1.1910048063034069e+00  1.2284099299559836e+00  1.2876693338518523e+00  1.3161594536060479e+00  1.3454208757742927e+00  1.3721473408768909e+00  1.3410792658227824e+00  1.2836230796826846e+00  1.3070805080389010e+00  1.3765442112798418e+00  1.3321166674021534e+00  1.3303391156769795e+00  1.2316774840795237e+00  1.1979641219330657e+00  1.1023068119149118e+00  1.0800726324163843e+00  1.0751917309016354e+00  1.0566092605132231e+00  1.0579617172191538e+00  1.0517534378499060e+00  1.0430350395839025e+00  1.0383922341323957e+00  1.0311959096304630e+00  1.0310100507693321e+00  1.0292388938045245e+00  1.0217958191943224e+00  1.0193003150686351e+00  1.0230564019045829e+00  1.0228858159092848e+00  1.1042028821822440e+00  1.1285274700842045e+00  1.1443957826851903e+00  1.1321525497877936e+00  1.1105573762081478e+00  1.0788830261502336e+00  1.0699428084944063e+00  1.0756764712825400e+00  1.0729140274053002e+00  1.0735409464908432e+00  1.0723187080782388e+00  1.0579505950585599e+00  1.0538081819896872e+00  1.0428923252105724e+00  1.0360766552455367e+00  1.0293036961324513e+00  1.0291405166761787e+00  1.0346572185328684e+00  1.0251385967906965e+00  1.0185968021840222e+00  1.0162599019160905e+00  1.0158378099867580e+00  1.0189201918528945e+00  1.1663517058056714e+00  1.1860111735703820e+00  1.1717624892782588e+00  1.1882164621259370e+00  1.2048358684924685e+00  1.2179254676366673e+00  1.2514940218049992e+00  1.2698348034588500e+00  1.2826624363067149e+00  1.2666283588234604e+00  1.2289250685483954e+00  1.2091686374555988e+00  1.2391769115932381e+00  1.2954738398664136e+00  1.2787465883312574e+00  1.2326333994833614e+00  1.2229937448592294e+00  1.0348124672368506e+00  1.1529552433006800e+00  1.1007890778091700e+00  1.0632947247444542e+00  1.0610861552908821e+00  1.0647067234266410e+00  1.0636915980023895e+00  1.0619960708292548e+00  1.0611898978088730e+00  1.0666072404629350e+00  1.0662491204739915e+00  1.0563188513198019e+00  1.0452186902405523e+00  1.0329459108291887e+00  1.0236414610114231e+00  1.0233420055144611e+00  1.0233080956716927e+00  1.0268710612766796e+00  1.0231455489891275e+00  1.0236170306647749e+00  1.0184396389772350e+00  1.0157050118777915e+00  1.0141058681772761e+00  1.0147956666923135e+00  1.1812232384766195e+00  1.1564363988819408e+00  1.1277427778040552e+00  1.1598384216948012e+00  1.1810930915465589e+00  1.1831373147750759e+00  1.1984066403025218e+00  1.2209986111223066e+00  1.2675358738679887e+00  1.2830654338816458e+00  1.2415551624505738e+00  1.2110869133943620e+00  1.2017846910722059e+00  1.2219868001016396e+00  1.3376143482728244e+00  1.3149492485593137e+00  1.2843726809020095e+00  1.2668600390680724e+00  1.1379437676337598e+00  1.1182676409831649e+00  1.1359837877544372e+00  1.1258710706780715e+00  1.1032986811422927e+00  1.1217887207073787e+00  1.1562717082088134e+00  1