<?xml version="1.0"?>
<VTKFile type="UnstructuredGrid"  version="0.1"  >
<UnstructuredGrid>
<Piece  NumberOfPoints="12545" NumberOfCells="24576">
<Points>
<DataArray  type="Float64"  NumberOfComponents="3"  format="ascii">-0.6034294401033936 0.6034294401033937 0  -0.4357565270979424 0.5810087027972566 0  -0.5810087027972566 0.4357565270979425 0  -0.2790982891699274 0.5581965783398549 0  -0.4099898727970779 0.409989872797078 0  -0.5581965783398549 0.2790982891699275 0  -0.1350496299588063 0.5401985198352254 0  -0.2541416246993262 0.3812124370489895 0  -0.3812124370489894 0.2541416246993263 0  -0.5401985198352254 0.1350496299588064 0  0.6034294401033937 0.6034294401033936 0  0.5332121396478249 -6.101214563956075e-18 0  0.5401985198352254 0.1350496299588063 0  0.5581965783398549 0.2790982891699274 0  0.5810087027972566 0.4357565270979424 0  0.4357565270979425 0.5810087027972566 0  0.2790982891699275 0.5581965783398549 0  0.1350496299588064 0.5401985198352254 0  6.529965400862203e-17 0.5332121396478249 0  -0.1187364032820351 0.3562092098461054 0  -0.2227253679768643 0.2227253679768644 0  -0.3562092098461054 0.1187364032820352 0  -0.5332121396478249 6.529965400862203e-17 0  0.409989872797078 0.4099898727970779 0  0.3458396720045933 -4.235314473385958e-17 0  0.3562092098461054 0.1187364032820351 0  0.3812124370489895 0.2541416246993262 0  0.2541416246993263 0.3812124370489894 0  0.1187364032820352 0.3562092098461054 0  4.235314473385958e-17 0.3458396720045933 0  -0.09549722635189338 0.1909944527037868 0  -0.1909944527037868 0.09549722635189344 0  -0.3458396720045933 4.235314473385958e-17 0  -0.5401985198352254 -0.1350496299588063 0  0.2227253679768644 0.2227253679768643 0  0.1760763556015786 -2.156313452930044e-17 0  0.1909944527037868 0.09549722635189338 0  0.09549722635189344 0.1909944527037868 0  2.156313452930044e-17 0.1760763556015786 0  -0.0663511076611463 0.06635110766114632 0  -0.1760763556015786 2.156313452930044e-17 0  -0.3562092098461054 -0.1187364032820351 0  -0.5581965783398549 -0.2790982891699274 0  0.06635110766114632 0.0663511076611463 0  0.04809765673080336 -5.890264136186648e-18 0  5.890264136186648e-18 0.04809765673080336 0  -0.5810087027972566 -0.4357565270979424 0  -0.04809765673080336 5.890264136186648e-18 0  -0.1909944527037868 -0.09549722635189338 0  -0.3812124370489895 -0.2541416246993262 0  -0.6034294401033937 -0.6034294401033935 0  0 0 0  -0.409989872797078 -0.4099898727970779 0  -0.06635110766114632 -0.0663511076611463 0  -0.2227253679768644 -0.2227253679768643 0  -0.4357565270979425 -0.5810087027972566 0  -5.890264136186648e-18 -0.04809765673080336 0  -0.2541416246993263 -0.3812124370489894 0  -0.09549722635189344 -0.1909944527037868 0  -0.2790982891699275 -0.5581965783398548 0  -2.156313452930044e-17 -0.1760763556015786 0  -0.1187364032820352 -0.3562092098461054 0  -0.1350496299588063 -0.5401985198352252 0  -4.235314473385958e-17 -0.3458396720045933 0  -6.529965400862202e-17 -0.5332121396478248 0  -0.5195929836006681 0.5922190714503252 0  -0.592219071450325 0.5195929836006681 0  -0.5083826149475995 0.5083826149475996 0  -0.3574274081339349 0.5696026405685557 0  -0.4228731999475102 0.4954992877971673 0  -0.4954992877971672 0.4228731999475103 0  -0.5696026405685557 0.357427408133935 0  -0.3445440809835026 0.4840932255684665 0  -0.2070739595643669 0.5491975490875401 0  -0.2666199569346268 0.4697045076944222 0  -0.4840932255684665 0.3445440809835028 0  -0.332065748748202 0.3956011549230338 0  -0.3956011549230337 0.3320657487482022 0  -0.4697045076944222 0.2666199569346269 0  -0.5491975490875401 0.207073959564367 0  -0.1945956273290663 0.4607054784421074 0  -0.06752481497940312 0.5367053297415252 0  -0.1268930166204207 0.4482038648406654 0  -0.3176770308741578 0.3176770308741579 0  -0.1864390139906806 0.3687108234475475 0  -0.2384334963380953 0.301968902512927 0  -0.4607054784421074 0.1945956273290664 0  -0.3019689025129269 0.2384334963380954 0  -0.3687108234475474 0.1864390139906807 0  -0.4482038648406654 0.1268930166204208 0  -0.5367053297415252 0.06752481497940323 0  0.5922190714503252 0.5195929836006681 0  0.5195929836006681 0.592219071450325 0  0.5067096564502359 0.5067096564502358 0  0.5367053297415252 0.06752481497940317 0  0.4395259058262091 -2.422717964890783e-17 0  0.5491975490875401 0.2070739595643669 0  0.4430190959199093 0.06752481497940314 0  0.4482038648406654 0.1268930166204207 0  0.5696026405685557 0.3574274081339349 0  0.4572028940929801 0.1989173462259812 0  0.4697045076944222 0.2666199569346268 0  0.4954992877971673 0.4228731999475102 0  0.4811105699231231 0.3449490758986343 0  0.357427408133935 0.5696026405685557 0  0.4228731999475103 0.4954992877971672 0  0.3449490758986344 0.481110569923123 0  0.207073959564367 0.5491975490875401 0  0.2666199569346269 0.4697045076944222 0  0.1989173462259813 0.4572028940929801 0  0.06752481497940323 0.5367053297415252 0  0.1268930166204208 0.4482038648406654 0  0.06752481497940323 0.4430190959199093 0  -0.05936820164101751 0.4447106747469651 0  5.382639937124081e-17 0.4395259058262091 0  -0.1707308856294497 0.2894672889114849 0  -0.05936820164101752 0.3510244409253493 0  -0.1071168148169642 0.2736018312749461 0  -0.2894672889114849 0.1707308856294498 0  -0.1591112971643789 0.2068599103403256 0  -0.2068599103403256 0.1591112971643789 0  -0.4447106747469651 0.05936820164101762 0  -0.2736018312749461 0.1071168148169643 0  -0.3510244409253493 0.0593682016410176 0  -0.4395259058262091 5.382639937124081e-17 0  -0.5367053297415252 -0.06752481497940313 0  0.3956011549230338 0.332065748748202 0  0.3320657487482022 0.3956011549230337 0  0.3163576203869712 0.3163576203869711 0  0.3510244409253493 0.05936820164101752 0  0.260958013803086 -3.195813963158001e-17 0  0.3687108234475475 0.1864390139906806 0  0.266142782723842 0.05936820164101753 0  0.2736018312749461 0.1071168148169642 0  0.301968902512927 0.2384334963380953 0  0.2861034448763882 0.1748194255256098 0  0.1864390139906807 0.3687108234475474 0  0.2384334963380954 0.3019689025129269 0  0.1748194255256099 0.2861034448763881 0  0.0593682016410176 0.3510244409253493 0  0.1071168148169643 0.2736018312749461 0  0.0593682016410176 0.266142782723842 0  -0.04774861317594667 0.2684170623541901 0  3.195813963158001e-17 0.260958013803086 0  -0.1432458395278401 0.1432458395278401 0  -0.04774861317594668 0.1835354041526827 0  -0.08092416700651983 0.1286727801824666 0  -0.2684170623541901 0.04774861317594674 0  -0.1286727801824666 0.08092416700651989 0  -0.1835354041526827 0.04774861317594673 0  -0.4430190959199093 -0.06752481497940313 0  -0.260958013803086 3.195813963158001e-17 0  -0.3510244409253493 -0.05936820164101753 0  -0.4482038648406654 -0.1268930166204207 0  -0.5491975490875401 -0.2070739595643669 0  0.2068599103403256 0.1591112971643789 0  0.1591112971643789 0.2068599103403256 0  0.1445382378190054 0.1445382378190053 0  0.1835354041526827 0.04774861317594668 0  0.112087006166191 -1.372669933274355e-17 0  0.1286727801824666 0.08092416700651983 0  0.1195460547172951 0.04774861317594669 0  0.04774861317594673 0.1835354041526827 0  0.08092416700651989 0.1286727801824666 0  0.04774861317594672 0.1195460547172951 0  -0.03317555383057313 0.1212137316313625 0  1.372669933274355e-17 0.112087006166191 0  -0.1212137316313625 0.03317555383057318 0  -0.03317555383057315 0.05722438219597484 0  -0.05722438219597482 0.03317555383057316 0  -0.266142782723842 -0.05936820164101754 0  -0.112087006166191 1.372669933274355e-17 0  -0.1835354041526827 -0.04774861317594668 0  -0.4572028940929801 -0.1989173462259813 0  -0.2736018312749461 -0.1071168148169643 0  -0.3687108234475475 -0.1864390139906807 0  -0.5696026405685557 -0.3574274081339349 0  -0.4697045076944222 -0.2666199569346268 0  0.05722438219597484 0.03317555383057315 0  0.03317555383057316 0.05722438219597482 0  0.03317555383057316 0.03317555383057315 0  0.02404882836540168 -2.945132068093324e-18 0  -0.02404882836540168 0.02404882836540168 0  2.945132068093324e-18 0.02404882836540168 0  -0.4811105699231231 -0.3449490758986343 0  -0.5922190714503252 -0.519592983600668 0  -0.4954992877971673 -0.4228731999475102 0  -0.1195460547172951 -0.04774861317594669 0  -0.02404882836540168 2.945132068093324e-18 0  -0.05722438219597484 -0.03317555383057315 0  -0.2861034448763882 -0.1748194255256098 0  -0.1286727801824666 -0.08092416700651983 0  -0.2068599103403256 -0.1591112971643789 0  -0.3956011549230338 -0.332065748748202 0  -0.301968902512927 -0.2384334963380953 0  -0.5067096564502359 -0.5067096564502357 0  -0.5195929836006681 -0.592219071450325 0  -0.03317555383057316 -0.03317555383057315 0  -2.945132068093324e-18 -0.02404882836540168 0  -0.3163576203869712 -0.3163576203869711 0  -0.4228731999475103 -0.4954992877971672 0  -0.3320657487482022 -0.3956011549230337 0  -0.1445382378190054 -0.1445382378190053 0  -0.03317555383057316 -0.05722438219597482 0  -0.08092416700651989 -0.1286727801824666 0  -0.2384334963380954 -0.3019689025129269 0  -0.1591112971643789 -0.2068599103403256 0  -0.3449490758986344 -0.481110569923123 0  -0.357427408133935 -0.5696026405685557 0  -0.04774861317594672 -0.1195460547172951 0  -1.372669933274355e-17 -0.112087006166191 0  -0.1748194255256099 -0.2861034448763881 0  -0.2666199569346269 -0.4697045076944221 0  -0.1864390139906807 -0.3687108234475474 0  -0.04774861317594673 -0.1835354041526827 0  -0.1071168148169643 -0.2736018312749461 0  -0.1989173462259813 -0.4572028940929801 0  -0.2070739595643669 -0.54919754908754 0  -0.0593682016410176 -0.266142782723842 0  -3.195813963158001e-17 -0.260958013803086 0  -0.1268930166204207 -0.4482038648406653 0  -0.0593682016410176 -0.3510244409253493 0  -0.06752481497940319 -0.4430190959199092 0  -0.06752481497940319 -0.536705329741525 0  -5.382639937124079e-17 -0.439525905826209 0  -0.5615112118520309 0.5978242557768594 0  -0.5978242557768594 0.5615112118520309 0  -0.4776747553493053 0.5866138871237909 0  -0.472069571022771 0.5446956588724281 0  -0.3965919676159387 0.5753056716829061 0  -0.4293148635227263 0.
[...]
<PointData  Scalars="f_1129"> 
<DataArray  type="Float64"  Name="f_1129"  format="ascii">8.9969462706592107e-01  8.0435568233018762e-01  8.0435577884142317e-01  7.1354990946536734e-01  6.9063943266737959e-01  7.1355079316689229e-01  6.3336257530910445e-01  5.7642510723110141e-01  5.7980158672333815e-01  6.3337008261565342e-01  4.4985449079841011e-01  -2.8217115993260294e-01  1.1006981226579146e-01  2.2219111832955735e-01  3.3610803860965671e-01  4.6828862101814700e-01  4.9140061707146776e-01  5.2330107328394193e-01  5.6944176717258244e-01  4.7019412052317050e-01  4.3959396224957165e-01  4.8449956293024021e-01  5.6945726387117124e-01  3.1578538279860030e-01  -4.2678326438811587e-01  -1.1732525872543673e-01  1.3025084073666943e-01  3.0813556246148843e-01  3.3037723866803381e-01  3.8492769982053454e-01  3.0453750299318594e-01  3.2318632131296893e-01  4.1711578409519801e-01  5.2332615001182181e-01  1.0400596041815258e-01  -2.7208191868121906e-01  -9.5727719969291511e-02  1.3431233218024693e-01  1.9914883142951068e-01  1.6195376001022721e-01  2.5240992425997444e-01  3.7907537341328224e-01  4.9140126638437315e-01  -2.2297553031473964e-02  -1.1454891013568881e-01  4.7362505923962565e-02  4.6827495111556855e-01  8.8982325536436729e-02  2.2941795183202043e-01  3.5932104107950325e-01  4.4984995101106517e-01  -3.8396111056813705e-03  3.4670020185693906e-01  9.2279812165267150e-02  2.2654004444941381e-01  3.3608776321451528e-01  3.4872681027045271e-05  2.2531730498380712e-01  1.0441329925429689e-01  2.2215686761804748e-01  1.3631693126271673e-05  1.0932495653857670e-01  1.1005052418076769e-01  6.8695219399079339e-06  -4.2602548548073643e-06  8.5221483878950299e-01  8.5221485552478138e-01  8.0170367788415464e-01  7.5893656014660649e-01  7.4828866383178005e-01  7.4842461203655264e-01  7.5893680886350878e-01  6.9868440366057716e-01  6.7308699065366351e-01  6.4644278666868682e-01  6.9931437505822514e-01  6.3456774750837541e-01  6.3548185969112947e-01  6.4832016187556107e-01  6.7308781869477463e-01  6.0048534298307044e-01  6.0062282096813935e-01  5.5369971805094331e-01  5.7462447458920263e-01  5.2413310724143525e-01  5.0876161713158730e-01  6.0447452499172993e-01  5.1206696542167474e-01  5.3166214828752567e-01  5.6118254736101503e-01  6.0061562126675361e-01  3.9398993625840206e-01  4.5821954246308405e-01  3.9436239855151750e-01  5.4917333288325536e-02  -5.0042150279793829e-01  1.6687839614701222e-01  -2.1656605882749363e-01  -5.0519921780704212e-02  2.8012720842508265e-01  8.1603521998594525e-02  1.7227883987340176e-01  3.2589116441275484e-01  2.5503171422903903e-01  4.7880203205419120e-01  3.9621059870192082e-01  3.9667021649776418e-01  5.0619997414804141e-01  4.0411148822614396e-01  4.1195508045345047e-01  5.4528793909457407e-01  4.2966409940384453e-01  4.5016139961134077e-01  5.1463970978295837e-01  4.7924194688586258e-01  4.5020671467624013e-01  4.2730232332241080e-01  3.8896609865974985e-01  4.5951897827875021e-01  3.7460853073981432e-01  3.8103968264676080e-01  5.2635169759036660e-01  4.0772208168848245e-01  4.4959756976938425e-01  4.9589292825091386e-01  5.4528468430388533e-01  2.3157547270691387e-01  3.0825010275147496e-01  2.1473576724384999e-01  -2.6362283152820493e-01  -3.5363766126670360e-01  2.0462904359058533e-02  -2.2233200809337489e-01  -1.2394046428203394e-01  1.0606883180011022e-01  2.6993940101790966e-03  3.1557105997595014e-01  2.1262690071196538e-01  2.1613320291358257e-01  3.5561629051692090e-01  2.3617940674367346e-01  2.5777007119455303e-01  3.3862430699776008e-01  2.9460557759214773e-01  3.0984194476613441e-01  2.5276382821555821e-01  2.3359371408678614e-01  3.7012304323410111e-01  2.4792611003439319e-01  2.8618026925226381e-01  4.7131973820984602e-01  3.3928173861798511e-01  3.9662669079606655e-01  4.5374004347636121e-01  5.0620003451165807e-01  8.0623441871859117e-03  1.1271223466462178e-01  2.5943420593980675e-02  -1.8179954891639266e-01  -2.0132819113041836e-01  -6.7371339072129652e-02  -1.1771147929449279e-01  1.6426607074073132e-01  5.7635112654312544e-02  7.9034788562905980e-02  1.7312872095466350e-01  1.2415578575556369e-01  2.0759288886322178e-01  1.0824010896508141e-01  1.2348481558787085e-01  3.1852860218962670e-01  1.7769972889766286e-01  2.3905686629094547e-01  4.3730946633825662e-01  3.0788241026367025e-01  3.6789687239321789e-01  4.7880407076659259e-01  4.2742681785321662e-01  -6.5737260589941685e-02  8.4826955289986020e-03  -2.8693138742109943e-02  -7.2160623572813928e-02  6.4087435777010704e-02  1.8889625262369453e-02  4.1597168632494275e-01  4.5822231627674453e-01  4.0898729324032773e-01  1.6586419515622233e-01  4.8651235264622512e-02  8.9125765536285553e-02  2.9810355735974531e-01  1.6529992321626713e-01  2.2664655746551171e-01  3.5196330687657357e-01  2.9534506344647521e-01  4.0021350467546274e-01  3.9399412348206203e-01  5.3246819502549843e-02  -6.6114271547427928e-06  2.8998325811696896e-01  3.4058542378322620e-01  2.8754835938007878e-01  1.6581092556391927e-01  4.8484549879767184e-02  9.7655939643597631e-02  2.2499157929654903e-01  1.6776199461093910e-01  2.8344601831201166e-01  2.8013380096906787e-01  5.9246995515496718e-02  -8.8679467866963673e-06  1.6948796350973097e-01  2.2302288132704837e-01  1.6857045806970350e-01  5.3205851754505873e-02  1.0632478204348567e-01  1.6908416393765022e-01  1.6688911331507547e-01  5.9724357660882070e-02  -6.5619244758218978e-06  1.0923909022554489e-01  5.5156854094231961e-02  5.8551696821690376e-02  5.5325969194747977e-02  -4.5560914788021225e-06  8.7601069273752075e-01  8.7601069500708495e-01  8.2832220083889352e-01  8.0235696586855143e-01  7.8165913826050848e-01  7.7654986767826784e-01  8.2832225348349442e-01  8.0237990651581115e-01  7.7662086891722548e-01  7.8165928917750171e-01  7.3622085695718664e-01  7.0525896937226340e-01  6.9324903267420157e-01  6.8040185272173315e-01  7.1962868618670484e-01  7.1976612531036355e-01  6.9381876791278396e-01  6.9422850872596975e-01  6.6284943003980779e-01  6.6316654888098348e-01  7.3622124168384950e-01  7.0578836863881111e-01  6.8130129134419237e-01  6.9324965931649207e-01  6.5311136392535440e-01  6.1581816248865273e-01  6.1681040657018782e-01  5.9401147767783768e-01  5.7599031094081832e-01  6.1175041965608945e-01  6.0576733872082111e-01  5.8733510765746011e-01  5.7459436286379806e-01  5.5049647839958060e-01  5.4284316491858575e-01  6.0766233022521743e-01  6.1451916639927495e-01  5.7640834833424737e-01  5.9151721231404097e-01  5.4646202005765998e-01  5.5566463103629127e-01  6.5311246882882656e-01  6.1846917682433933e-01  5.9772854486424876e-01  6.1681223217097103e-01  5.8065786435423328e-01  4.2216477186003709e-01  4.5384187759088807e-01  4.2435450155850629e-01  2.9789130265866624e-02  -5.3731766887417176e-01  -2.8109319237493596e-01  8.2607324856243322e-02  1.3881056658240398e-01  -3.6339740839884220e-02  2.1646304904216703e-02  7.7793880073667790e-02  1.9471855520949227e-01  2.5139219571126276e-01  1.6301703173555054e-01  1.9769443290339306e-01  2.3401888220033704e-01  3.6530116538682883e-01  3.6331885759465365e-01  3.0835344817530591e-01  3.3131309629970329e-01  3.0043425386958300e-01  4.6301473921811054e-01  4.2985088510656444e-01  4.7329925503874465e-01  4.3314374249403320e-01  4.3496365276002369e-01  4.8481987996849663e-01  4.4324379491184085e-01  4.9852466131801737e-01  4.4859041719724285e-01  4.5257165943327815e-01  5.1445905990769658e-01  4.6795462359825674e-01  5.3403100072228626e-01  4.7689791588910152e-01  4.8601825049734326e-01  5.8482803200960565e-01  5.5709388872743226e-01  5.1118375507507063e-01  5.4077504199058157e-01  5.2465688805649213e-01  5.3766824808564273e-01  5.1240201082051551e-01  4.9734067092994838e-01  4.9100886512066183e-01  4.5905804482719503e-01  4.4871744620293341e-01  4.3001203863336457e-01  4.0685451211207424e-01  4.7429375083433006e-01  4.7648991948682073e-01  4.4371594585893448e-01  4.4877585859199409e-01  4.0768411216498979e-01  4.1032507948246705e-01  5.4592072210304621e-01  5.0789413229569391e-01  5.2350597162218482e-01  4.7151788576960407e-01  5.0515854517052827e-01  4.4691028961726409e-01  4.6677126556811283e-01  4.2851259877995562e-01  5.8481926206697810e-01  5.4782954761361635e-01  5.3319447621708671e-01  5.5709859192222144e-01  5.2074661683910572e-01  3.5846981484045914e-01  3.2047513646988118e-01  2.8293639289572448e-01  3.5722325794104576e-01  3.5501703164376835e-01  2.7533976164362944e-01  3.1127870044368255e-01  2.6794340060122507e-01  -4.6430250953533286e-01  -3.5033016218956986e-01  -3.4412363209850977e-01  -3.9107495385615293e-01  -3.1819162054804273e-01  -1.7046995448459232e-01  -9.5915964318043889e-02  -1.7744133596885942e-02  -1.8758945242017619e-01  -4.4593282501055480e-02  -1.7820909957116365e-01  -1.2609867044647291e-01  -5.6796785828005916e-02  1.0066512812751921e-01  1.4890618359163982e-01  1.9813613192206939e-01  1.8358024557471481e-01  1.7118530001339682e-01  7.8405358787134907e-02  1.1544762575292460e-01  6.5391635659739086e-02  3.5399656217556885e-01  3.5746432544278733e-01  3.6046321451904129e-01  3.0710711954747555e-01  2.6116149037958447e-01  3.1093662800411404e-01  2.6185863439447460e-01  2.6200853957389769e-01  3.7072182323369979e-01  3.8095695950147068e-01  3.9179890283932700e-01  3.2205959933781625e-01  2.7457508655767882e-01  3.4241498966964523e-01  2.8417473941205817e-01  2.9300812874098919e-01  4.1619031031111747e-01  4.5195228096753193e-01  4.3273867487853146e-01  4.0600658247370447e-01  3.6982651256688831e-01  3.2352877573319433e-01  3.6055031609609467e-01  3.4039097784194278e-01  3.4709170230974157e-01  3.4025861365772547e-01  3.1973915256255742e-01  3.0605073267916116e-01  2.7892685787409688e-01  2.6930934474563178e-01  3.5191536005502977e-01  3.6661017263905749e-01  3.1566720025939177e-01  3.4649816696408836e-01  2.8662005717373945e-01  3.0434541884177452e-01  4.7271437729208565e-01  4.3302902938279964e-01  4.5728543942740707e-01  3.9373018940778687e-01  4.4443277846889384e-01  3.7911453614794083e-01  4.0649044977502091e-01  3.6834131410878818e-01  5.3402771564154816e-01  4.9764032334314101e-01  4.8908898644563820e-01  5.1445932480968704e-01  4.8037962690444314e-01  1.5879997633517648e-01  1.0229647825838269e-01  5.3544402200004004e-02  1.6009636509921968e-01  1.6144525600836365e-01  5.7077353530809283e-02  1.0670336960799599e-01  6.2101070349753547e-02  -3.1417737699768311e-01  -2.5244731399795367e-01  -2.2646957626119008e-01  -2.3802465866696873e-01  -1.9401538766456147e-01  -1.5857106729296080e-01  -1.1330319119283537e-01  -5.2029312656190277e-02  -4.2924464695286130e-02  -3.3375544084280319e-02  -1.3816589261838316e-01  -8.3464437194529617e-02  -1.0983764065477727e-01  1.7274272953813263e-01  1.8625890575367621e-01  1.9830211626110261e-01  1.2195616622029165e-01  8.1446351788928908e-02  1.4860717622205713e-01  9.6320436010291485e-02  1.0479833613693353e-01  2.2594429651196862e-01  2.7179149441594014e-01  2.4752061227005090e-01  2.2613455015738007e-01  1.8118290166049886e-01  1.4158889861170126e-01  1.8464947888204197e-01  1.6193653391524593e-01  1.9764179271221188e-01  2.0660658905339155e-01  1.6534210021734805e-01  1.8458313852985403e-01  1.3586528312569204e-01  1.4245040514874002e-01  3.1295894798459439e-01  2.6882862128844315e-01  2.9722529057739189e-01  2.3029275492091283e-01  2.8622477807930441e-01  2.1632135963739155e-01  2.4521332535603788e-01  2.0929859389497835e-01  4.2561601020955958e-01  3.8749909381621084e-01  4.1712735129723333e-01  3.4942784238530328e-01  4.0873367980616604e-01  3.4424753155842336e-01  3.7312204493735202e-01  3.3856019107866442e-01  4.9852491371187524e-01  4.6484108788728024e-01  4.8482160130518198e-01  4.5989129562141745e-01  4.5356741804148493e-01  -2.8069218876150895e-03  -4.7184198585736553e-02  -7.0519735066313816e-02  1.8196334574568811e-02  3.0324272755939553e-02  -4.3642513241968495e-02  -7.8576450016772867e-03  -2.7001111586843429e-02  -1.6091807125166560e-01  -1.1933799292109173e-01  -8.9098027775711103e-02  -6.9863865204026820e-02  -9.4555903940825997e-02  5.8674406016868810e-02  1.1344604884184019e-01  8.5895864774882660e-02  7.8808377963055620e-02  2.6934337266128518e-02  1.0281365252770482e-02  5.4115151055021786e-02  3.3022738661565534e-02  4.7330155097417081e-01  4.4259794122183876e-01  4.6301778808304955e-01  4.3898615086651549e-01  4.3402479876272537e-01  1.5116398846809509e-01  1.0547118414871821e-01  1.3573465498382650e-01  7.6227824617068743e-02  1.2973012391015135e-01  6.9553209570286365e-02  8.8464965577743762e-02  6.9927248031077305e-02  2.7450438842631975e-01  2.3382631482976968e-01  2.6971330694939838e-01  1.9881219628509325e-01  2.6488596410337439e-01  1.9825677708758768e-01  2.2760517424796953e-01  1.9713542895429087e-01  3.9830578115611875e-01  3.6331999425017553e-01  3.9392836188347857e-01  3.8826412376814601e-01  3.2948885160071545e-01  3.5534313458484257e-01  3.2788058352637700e-01  3.2435291324282817e-01  4.5384404373603376e-01  4.2544683351711127e-01  4.2216816519119449e-01  -2.5559294040051264e-02  -4.5466278470028584e-02  3.2148268253705592e-02  5.4122675518771344e-03  2.5571228670847736e-02  2.9833477513189443e-02  -9.5901645188726205e-06  3.8110343553104392e-01  3.7823605791377057e-01  3.4910548489294368e-01  3.7401689355631917e-01  3.1904254793449327e-01  3.4341319032001960e-01  3.1749416988756074e-01  3.1468477038840076e-01  1.2949067627961727e-01  9.0486054174703859e-02  1.3014798611072928e-01  7.3695248841853911e-02  1.3129416403605340e-01  7.0931313576414134e-02  9.4674315176792798e-02  7.4664696030729963e-02  2.6214222007801002e-01  2.2634192569656988e-01  2.6160197017741765e-01  2.5927401950774343e-01  1.9729879415960858e-01  2.2547612242606266e-01  1.9768220539877307e-01  1.9739149621053614e-01  3.6783057834480631e-01  3.6530489666888133e-01  3.3816042147577408e-01  3.1035721005317091e-01  3.0835885710633149e-01  2.6083312253879734e-02  1.2649806102650652e-05  2.4828920022560118e-02  3.2360480979231949e-02  -1.2635703125896182e-05  2.5720263079876915e-01  2.5682930029423995e-01  2.2496584472606956e-01  2.5517626577773361e-01  1.9829009299805567e-01  2.2395961133067524e-01  1.9725562596019866e-01  1.9659592843222559e-01  1.3448609615649146e-01  1.0094833029559935e-01  1.3669241421341297e-01  8.2920328333337651e-02  1.3844435669469385e-01  7.9082481347294883e-02  1.0517441385226962e-01  8.1048104527864484e-02  2.5230653247745544e-01  2.5139979513775507e-01  2.2243702852549765e-01  1.9631543073591173e-01  1.9472618984565826e-01  2.8222346600086094e-02  9.5048081275119954e-06  2.6812489764393592e-02  3.1521841686596691e-02  -8.0566493785454048e-06  1.3863902316535101e-01  1.3925433527326531e-01  1.0773283053325504e-01  1.4020830304981158e-01  8.5473491548291730e-02  1.0915836999468387e-01  8.2398012700070591e-02  8.3122094850302669e-02  1.3888768124705905e-01  1.3866300875545118e-01  1.0954412311306815e-01  8.5016978553499503e-02  8.2783004794528381e-02  2.8741897480236079e-02  6.4747148993889118e-06  2.7672276071268834e-02  3.0344252665219187e-02  -5.2667681263049707e-06  2.8471264509412956e-02  2.7723303284203245e-02  4.3191522412318244e-06  8.5165573264134364e-01  8.2709065957818295e-01  8.2709523335485757e-01  7.7513363465056162e-01  7.7516970228498072e-01  7.5289166033539612e-01  7.2911517207896936e-01  7.4758950807909963e-01  7.2358595410356985e-01  7.5304822496978185e-01  7.2390562359043831e-01  7.2941763470889542e-01  6.7270028075354860e-01  6.6685528951649453e-01  6.5884543000237505e-01  6.3730418579633286e-01  6.3950946474107362e-01  6.2350492285686521e-01  6.6773884302933006e-01  6.7383033945469406e-01  6.3425967059885469e-01  6.0474336083307267e-01  6.4114895314040365e-01  6.0540981465082300e-01  6.6017549211020976e-01  6.2629576785396235e-01  6.3920897237630825e-01  5.7718761268730623e-01  5.6265262406854033e-01  5.5824061061769925e-01  5.3405394322386956e-01  5.4214254748553903e-01  5.4340086351266292e-01  5.1546013413870173e-01  4.8752223156746322e-01  5.0940080289259049e-01  4.7982862264733334e-01  5.6862039716793944e-01  5.8271343322582536e-01  5.2127300043367364e-01  4.8569637067327898e-01  4.9624454565186116e-01  5.4350538803709769e-01  5.6401090645288932e-01  3.9429571518572659e-01  4.2697338297028592e-01  3.6087250238168805e-01  3.9504344483652665e-01  -1.2821054512261110e-01  -3.4726288358312130e-01  1.2330499234287738e-01  -1.2420105230941653e-01  -2.5576098416123616e-01  2.2394636233987391e-02  2.6802864334576953e-01  1.2992142304255888e-01  4.5719227012594857e-02  2.1553248337677886e-01  2.9160226409207540e-01  2.4242025515839183e-01  4.3871894935793565e-01  3.9607384033151927e-01  3.9976518910337616e-01  3.5382654113676698e-01  4.5983260524657088e-01  4.0751511099845072e-01  4.2019900273052013e-01  3.6487049678589412e-01  4.9828306139791295e-01  4.3954381331102482e-01  4.6432042511414579e-01  4.0356666700186755e-01  4.9684119278515726e-01  4.7140741246642170e-01  4.1997725924580559e-01  4.1251219264525790e-01  3.8366486825950480e-01  3.8032111949246844e-01  3.6385945634720923e-01  4.2114347153771908e-01  4.3346260067954395e-01  3.7700868310316737e-01  3.4230013919182706e-01  3.9370115371459674e-01  3.4625870301654471e-01  4.8868615441627938e-01  5.1089580767707510e-01  3.8852868070435176e-01  4.1075926878147911e-01  4.8325305244773148e-01  5.0888979795234679e-01  2.2169024533833992e-01  2.6327916168286369e-01  1.6277949343797113e-01  2.1187951967034904e-01  -2.4680856375369875e-01  -2.8732291762819334e-01  7.0576501101157138e-03  -1.7238463867961620e-01  -2.0505127049666502e-01  -5.8629639715885383e-02  5.6182652276926162e-02  2.0568754285530547e-03  2.6717420016243237e-01  2.1316418705342982e-01  2.2488125482152763e-01  1.6569519774788730e-01  3.0768635376747389e-01  2.4644417817788050e-01  2.7561939869059587e-01  2.1157636204577898e-01  3.1664478183181721e-01  2.9589975536114699e-01  2.7271999932875041e-01  2.7863171009270238e-01  2.4181597799534926e-01  2.1355154859399544e-01  2.3943601027674885e-01  2.0389407586750752e-01  3.2940790357452632e-01  3.5441671718656204e-01  2.6694549262681344e-01  2.2722864880758914e-01  2.4809824466984562e-01  4.3471072511528813e-01  4.6226222148351803e-01  3.2836652732601024e-01  3.5845910421049204e-01  4.4517045622190116e-01  4.7230619774930810e-01  1.5178412809344089e-02  7.0034813887158334e-02  -1.9988346173655643e-02  3.9891197789111120e-02  -1.5129200548952729e-01  -1.5860552826749280e-01  -9.2285470408215373e-02  -9.4511644288708896e-02  1.2247548154884084e-01  6.7800331943032519e-02  1.0084519686351291e-01  4.3817518994276633e-02  1.4898227654151724e-01  1.3992772363580500e-01  1.6751885775314887e-01  1.9231555531304553e-01  1.1518641637250680e-01  8.5932040336621635e-02  9.5069398056304932e-02  2.7999100206426542e-01  3.1291208382188418e-01  1.7100333803343737e-01  2.0351994339391999e-01  4.0322072514745616e-01  4.3211061543890006e-01  3.0254657359456394e-01  3.3367336125214542e-01  4.4781846116338780e-01  4.2139808116320732e-01  -4.7794292798217716e-02  -9.6788511224871338e-03  -4.8850479869669512e-02  -7.0084676772339772e-03  4.2264933173588523e-02  5.5308648737436454e-02  4.1224982918894826e-01  3.8442464637878854e-01  4.2952616642842117e-01  4.0436481891584009e-01  1.2930840440492192e-01  1.6536691550508298e-01  5.0401165498820816e-02  7.1507573501604194e-02  2.6319372569131316e-01  2.9646846463821608e-01  1.6510394799307129e-01  1.9689064366020151e-01  3.2143400749415246e-01  2.9235050366225340e-01  3.9691692095842956e-01  3.7071485494839473e-01  2.7673885400475256e-02  5.0631970647779925e-02  2.8854391905358118e-01  2.5798406450861072e-01  3.1232285340509658e-01  2.8527578052826358e-01  1.3261804762944399e-01  1.6655593772947805e-01  5.3894052753656677e-02  7.8726737393453053e-02  1.9763140946751029e-01  1.6839033176868584e-01  2.8160690432113844e-01  2.5354242622853002e-01  2.9993163435655071e-02  5.5898286146112752e-02  1.6882143130793892e-01  1.3832731392843117e-01  1.9629809916948243e-01  1.6867144636529185e-01  5.6479579141376711e-02  8.3196646889859158e-02  1.6781774805063512e-