<?xml version="1.0"?>
<VTKFile type="UnstructuredGrid"  version="0.1"  >
<UnstructuredGrid>
<Piece  NumberOfPoints="3201" NumberOfCells="6144">
<Points>
<DataArray  type="Float64"  NumberOfComponents="3"  format="ascii">-0.6034294401033936 0.6034294401033937 0  -0.4357565270979424 0.5810087027972566 0  -0.5810087027972566 0.4357565270979425 0  -0.2790982891699274 0.5581965783398549 0  -0.4099898727970779 0.409989872797078 0  -0.5581965783398549 0.2790982891699275 0  -0.1350496299588063 0.5401985198352254 0  -0.2541416246993262 0.3812124370489895 0  -0.3812124370489894 0.2541416246993263 0  -0.5401985198352254 0.1350496299588064 0  0.6034294401033937 0.6034294401033936 0  0.5332121396478249 -6.101214563956075e-18 0  0.5401985198352254 0.1350496299588063 0  0.5581965783398549 0.2790982891699274 0  0.5810087027972566 0.4357565270979424 0  0.4357565270979425 0.5810087027972566 0  0.2790982891699275 0.5581965783398549 0  0.1350496299588064 0.5401985198352254 0  6.529965400862203e-17 0.5332121396478249 0  -0.1187364032820351 0.3562092098461054 0  -0.2227253679768643 0.2227253679768644 0  -0.3562092098461054 0.1187364032820352 0  -0.5332121396478249 6.529965400862203e-17 0  0.409989872797078 0.4099898727970779 0  0.3458396720045933 -4.235314473385958e-17 0  0.3562092098461054 0.1187364032820351 0  0.3812124370489895 0.2541416246993262 0  0.2541416246993263 0.3812124370489894 0  0.1187364032820352 0.3562092098461054 0  4.235314473385958e-17 0.3458396720045933 0  -0.09549722635189338 0.1909944527037868 0  -0.1909944527037868 0.09549722635189344 0  -0.3458396720045933 4.235314473385958e-17 0  -0.5401985198352254 -0.1350496299588063 0  0.2227253679768644 0.2227253679768643 0  0.1760763556015786 -2.156313452930044e-17 0  0.1909944527037868 0.09549722635189338 0  0.09549722635189344 0.1909944527037868 0  2.156313452930044e-17 0.1760763556015786 0  -0.0663511076611463 0.06635110766114632 0  -0.1760763556015786 2.156313452930044e-17 0  -0.3562092098461054 -0.1187364032820351 0  -0.5581965783398549 -0.2790982891699274 0  0.06635110766114632 0.0663511076611463 0  0.04809765673080336 -5.890264136186648e-18 0  5.890264136186648e-18 0.04809765673080336 0  -0.5810087027972566 -0.4357565270979424 0  -0.04809765673080336 5.890264136186648e-18 0  -0.1909944527037868 -0.09549722635189338 0  -0.3812124370489895 -0.2541416246993262 0  -0.6034294401033937 -0.6034294401033935 0  0 0 0  -0.409989872797078 -0.4099898727970779 0  -0.06635110766114632 -0.0663511076611463 0  -0.2227253679768644 -0.2227253679768643 0  -0.4357565270979425 -0.5810087027972566 0  -5.890264136186648e-18 -0.04809765673080336 0  -0.2541416246993263 -0.3812124370489894 0  -0.09549722635189344 -0.1909944527037868 0  -0.2790982891699275 -0.5581965783398548 0  -2.156313452930044e-17 -0.1760763556015786 0  -0.1187364032820352 -0.3562092098461054 0  -0.1350496299588063 -0.5401985198352252 0  -4.235314473385958e-17 -0.3458396720045933 0  -6.529965400862202e-17 -0.5332121396478248 0  -0.5195929836006681 0.5922190714503252 0  -0.592219071450325 0.5195929836006681 0  -0.5083826149475995 0.5083826149475996 0  -0.3574274081339349 0.5696026405685557 0  -0.4228731999475102 0.4954992877971673 0  -0.4954992877971672 0.4228731999475103 0  -0.5696026405685557 0.357427408133935 0  -0.3445440809835026 0.4840932255684665 0  -0.2070739595643669 0.5491975490875401 0  -0.2666199569346268 0.4697045076944222 0  -0.4840932255684665 0.3445440809835028 0  -0.332065748748202 0.3956011549230338 0  -0.3956011549230337 0.3320657487482022 0  -0.4697045076944222 0.2666199569346269 0  -0.5491975490875401 0.207073959564367 0  -0.1945956273290663 0.4607054784421074 0  -0.06752481497940312 0.5367053297415252 0  -0.1268930166204207 0.4482038648406654 0  -0.3176770308741578 0.3176770308741579 0  -0.1864390139906806 0.3687108234475475 0  -0.2384334963380953 0.301968902512927 0  -0.4607054784421074 0.1945956273290664 0  -0.3019689025129269 0.2384334963380954 0  -0.3687108234475474 0.1864390139906807 0  -0.4482038648406654 0.1268930166204208 0  -0.5367053297415252 0.06752481497940323 0  0.5922190714503252 0.5195929836006681 0  0.5195929836006681 0.592219071450325 0  0.5067096564502359 0.5067096564502358 0  0.5367053297415252 0.06752481497940317 0  0.4395259058262091 -2.422717964890783e-17 0  0.5491975490875401 0.2070739595643669 0  0.4430190959199093 0.06752481497940314 0  0.4482038648406654 0.1268930166204207 0  0.5696026405685557 0.3574274081339349 0  0.4572028940929801 0.1989173462259812 0  0.4697045076944222 0.2666199569346268 0  0.4954992877971673 0.4228731999475102 0  0.4811105699231231 0.3449490758986343 0  0.357427408133935 0.5696026405685557 0  0.4228731999475103 0.4954992877971672 0  0.3449490758986344 0.481110569923123 0  0.207073959564367 0.5491975490875401 0  0.2666199569346269 0.4697045076944222 0  0.1989173462259813 0.4572028940929801 0  0.06752481497940323 0.5367053297415252 0  0.1268930166204208 0.4482038648406654 0  0.06752481497940323 0.4430190959199093 0  -0.05936820164101751 0.4447106747469651 0  5.382639937124081e-17 0.4395259058262091 0  -0.1707308856294497 0.2894672889114849 0  -0.05936820164101752 0.3510244409253493 0  -0.1071168148169642 0.2736018312749461 0  -0.2894672889114849 0.1707308856294498 0  -0.1591112971643789 0.2068599103403256 0  -0.2068599103403256 0.1591112971643789 0  -0.4447106747469651 0.05936820164101762 0  -0.2736018312749461 0.1071168148169643 0  -0.3510244409253493 0.0593682016410176 0  -0.4395259058262091 5.382639937124081e-17 0  -0.5367053297415252 -0.06752481497940313 0  0.3956011549230338 0.332065748748202 0  0.3320657487482022 0.3956011549230337 0  0.3163576203869712 0.3163576203869711 0  0.3510244409253493 0.05936820164101752 0  0.260958013803086 -3.195813963158001e-17 0  0.3687108234475475 0.1864390139906806 0  0.266142782723842 0.05936820164101753 0  0.2736018312749461 0.1071168148169642 0  0.301968902512927 0.2384334963380953 0  0.2861034448763882 0.1748194255256098 0  0.1864390139906807 0.3687108234475474 0  0.2384334963380954 0.3019689025129269 0  0.1748194255256099 0.2861034448763881 0  0.0593682016410176 0.3510244409253493 0  0.1071168148169643 0.2736018312749461 0  0.0593682016410176 0.266142782723842 0  -0.04774861317594667 0.2684170623541901 0  3.195813963158001e-17 0.260958013803086 0  -0.1432458395278401 0.1432458395278401 0  -0.04774861317594668 0.1835354041526827 0  -0.08092416700651983 0.1286727801824666 0  -0.2684170623541901 0.04774861317594674 0  -0.1286727801824666 0.08092416700651989 0  -0.1835354041526827 0.04774861317594673 0  -0.4430190959199093 -0.06752481497940313 0  -0.260958013803086 3.195813963158001e-17 0  -0.3510244409253493 -0.05936820164101753 0  -0.4482038648406654 -0.1268930166204207 0  -0.5491975490875401 -0.2070739595643669 0  0.2068599103403256 0.1591112971643789 0  0.1591112971643789 0.2068599103403256 0  0.1445382378190054 0.1445382378190053 0  0.1835354041526827 0.04774861317594668 0  0.112087006166191 -1.372669933274355e-17 0  0.1286727801824666 0.08092416700651983 0  0.1195460547172951 0.04774861317594669 0  0.04774861317594673 0.1835354041526827 0  0.08092416700651989 0.1286727801824666 0  0.04774861317594672 0.1195460547172951 0  -0.03317555383057313 0.1212137316313625 0  1.372669933274355e-17 0.112087006166191 0  -0.1212137316313625 0.03317555383057318 0  -0.03317555383057315 0.05722438219597484 0  -0.05722438219597482 0.03317555383057316 0  -0.266142782723842 -0.05936820164101754 0  -0.112087006166191 1.372669933274355e-17 0  -0.1835354041526827 -0.04774861317594668 0  -0.4572028940929801 -0.1989173462259813 0  -0.2736018312749461 -0.1071168148169643 0  -0.3687108234475475 -0.1864390139906807 0  -0.5696026405685557 -0.3574274081339349 0  -0.4697045076944222 -0.2666199569346268 0  0.05722438219597484 0.03317555383057315 0  0.03317555383057316 0.05722438219597482 0  0.03317555383057316 0.03317555383057315 0  0.02404882836540168 -2.945132068093324e-18 0  -0.02404882836540168 0.02404882836540168 0  2.945132068093324e-18 0.02404882836540168 0  -0.4811105699231231 -0.3449490758986343 0  -0.5922190714503252 -0.519592983600668 0  -0.4954992877971673 -0.4228731999475102 0  -0.1195460547172951 -0.04774861317594669 0  -0.02404882836540168 2.945132068093324e-18 0  -0.05722438219597484 -0.03317555383057315 0  -0.2861034448763882 -0.1748194255256098 0  -0.1286727801824666 -0.08092416700651983 0  -0.2068599103403256 -0.1591112971643789 0  -0.3956011549230338 -0.332065748748202 0  -0.301968902512927 -0.2384334963380953 0  -0.5067096564502359 -0.5067096564502357 0  -0.5195929836006681 -0.592219071450325 0  -0.03317555383057316 -0.03317555383057315 0  -2.945132068093324e-18 -0.02404882836540168 0  -0.3163576203869712 -0.3163576203869711 0  -0.4228731999475103 -0.4954992877971672 0  -0.3320657487482022 -0.3956011549230337 0  -0.1445382378190054 -0.1445382378190053 0  -0.03317555383057316 -0.05722438219597482 0  -0.08092416700651989 -0.1286727801824666 0  -0.2384334963380954 -0.3019689025129269 0  -0.1591112971643789 -0.2068599103403256 0  -0.3449490758986344 -0.481110569923123 0  -0.357427408133935 -0.5696026405685557 0  -0.04774861317594672 -0.1195460547172951 0  -1.372669933274355e-17 -0.112087006166191 0  -0.1748194255256099 -0.2861034448763881 0  -0.2666199569346269 -0.4697045076944221 0  -0.1864390139906807 -0.3687108234475474 0  -0.04774861317594673 -0.1835354041526827 0  -0.1071168148169643 -0.2736018312749461 0  -0.1989173462259813 -0.4572028940929801 0  -0.2070739595643669 -0.54919754908754 0  -0.0593682016410176 -0.266142782723842 0  -3.195813963158001e-17 -0.260958013803086 0  -0.1268930166204207 -0.4482038648406653 0  -0.0593682016410176 -0.3510244409253493 0  -0.06752481497940319 -0.4430190959199092 0  -0.06752481497940319 -0.536705329741525 0  -5.382639937124079e-17 -0.439525905826209 0  -0.5615112118520309 0.5978242557768594 0  -0.5978242557768594 0.5615112118520309 0  -0.4776747553493053 0.5866138871237909 0  -0.472069571022771 0.5446956588724281 0  -0.3965919676159387 0.5753056716829061 0  -0.4293148635227263 0.53
[...]
<PointData  Scalars="f_1101"> 
<DataArray  type="Float64"  Name="f_1101"  format="ascii">8.9969977448048355e-01  8.0435040789886925e-01  8.0435082753265896e-01  7.1354322112466084e-01  6.9063580899283428e-01  7.1354607984822560e-01  6.3334828268170273e-01  5.7640075544739044e-01  5.7977862444536366e-01  6.3336549046153723e-01  4.4988477487382506e-01  -2.8220115667059797e-01  1.1042290837036793e-01  2.2233184715252746e-01  3.3617559643988321e-01  4.6833434881267322e-01  4.9141672294692518e-01  5.2327409354552168e-01  5.6943909211356492e-01  4.7021693261744774e-01  4.3956729660076410e-01  4.8450813991297725e-01  5.6945855538997592e-01  3.1577957230377635e-01  -4.2708527723339151e-01  -1.1726600123397740e-01  1.3027084235208855e-01  3.0811626506827905e-01  3.3038790565328929e-01  3.8489015687766237e-01  3.0448800676333410e-01  3.2315553363415633e-01  4.1709243642027882e-01  5.2332986260944969e-01  1.0402148169197753e-01  -2.7215207807387154e-01  -9.5858931180454174e-02  1.3427515759695058e-01  1.9907974722808608e-01  1.6190684181178319e-01  2.5238148841790586e-01  3.7907039583526336e-01  4.9140864709273602e-01  -2.2320003584918965e-02  -1.1459403447770845e-01  4.7175390969406934e-02  4.6828294177140695e-01  8.8995199774916503e-02  2.2943309323515340e-01  3.5931841397004322e-01  4.4986065324189023e-01  -5.7108398452116521e-03  3.4669489927844899e-01  9.2249196896532923e-02  2.2652604392475942e-01  3.3609617828937927e-01  1.3087740054689657e-04  2.2533197675314742e-01  1.0442352655135906e-01  2.2216642501414408e-01  5.2819552825001024e-05  1.0932279373785875e-01  1.1005873889334380e-01  2.6875402777183093e-05  -1.7327799171006764e-05  8.5221015623728547e-01  8.5221022017559067e-01  8.0170895320951774e-01  7.5893171039462315e-01  7.4828025435179413e-01  7.4841601333422569e-01  7.5893271971732335e-01  6.9868749305917055e-01  6.7308154466369652e-01  6.4642860168418437e-01  6.9931628077099039e-01  6.3455075221413559e-01  6.3546747488798239e-01  6.4830672161495995e-01  6.7308491040148621e-01  6.0047152395869030e-01  6.0065615019424523e-01  5.5372584790196311e-01  5.7461613629317054e-01  5.2415289370293949e-01  5.0873617783488045e-01  6.0446917638453324e-01  5.1203823259869263e-01  5.3166732375710590e-01  5.6119197957306655e-01  6.0062728105293228e-01  3.9398016370000161e-01  4.5820844294782670e-01  3.9441568121341020e-01  5.3618017233385225e-02  -4.9992777147920292e-01  1.6683959833622830e-01  -2.1674457440914502e-01  -5.1037507915108887e-02  2.8010785238845010e-01  8.1676366351609617e-02  1.7214487648154284e-01  3.2585947097225798e-01  2.5509235385151630e-01  4.7879429857577671e-01  3.9617744227813334e-01  3.9670265181913517e-01  5.0620435329752744e-01  4.0409030723096728e-01  4.1195525302640446e-01  5.4530379461113576e-01  4.2966018647757881e-01  4.5014451340182682e-01  5.1461930024674907e-01  4.7926056634317898e-01  4.5019659073385726e-01  4.2732913423277036e-01  3.8898338245171898e-01  4.5950698193855083e-01  3.7456880164913625e-01  3.8100905055831391e-01  5.2634416155853714e-01  4.0770998067880243e-01  4.4960017276260839e-01  4.9588017810783724e-01  5.4529076980089997e-01  2.3152436352077677e-01  3.0820543811847584e-01  2.1475503079423397e-01  -2.6347547547345679e-01  -3.5359535352676968e-01  2.0353057732817943e-02  -2.2240197751063701e-01  -1.2387966698445964e-01  1.0607020262516993e-01  2.5913253363190974e-03  3.1557964241866199e-01  2.1261091407705829e-01  2.1607703696528960e-01  3.5561917874028742e-01  2.3619900192943458e-01  2.5774391252614176e-01  3.3860975669075832e-01  2.9462893965752623e-01  3.0981705093989581e-01  2.5273538155323461e-01  2.3355256435346960e-01  3.7008838489831397e-01  2.4787375798533759e-01  2.8615951109451654e-01  4.7131548696166142e-01  3.3925418120631523e-01  3.9661010039715405e-01  4.5373891765570801e-01  5.0620439554976093e-01  8.1069597726929933e-03  1.1272095201912077e-01  2.5882382436183994e-02  -1.8175707867868282e-01  -2.0133339402436595e-01  -6.7357833806879805e-02  -1.1779230478058213e-01  1.6430881239697681e-01  5.7659150154215570e-02  7.8965865686099576e-02  1.7311416164435353e-01  1.2416313958634950e-01  2.0756184829315585e-01  1.0817277684291049e-01  1.2344455336789860e-01  3.1852291855622078e-01  1.7764422103418107e-01  2.3902707436745932e-01  4.3731212563046595e-01  3.0785798501655970e-01  3.6788929418957222e-01  4.7880245402016319e-01  4.2742172513371368e-01  -6.5762095102556456e-02  8.5141064801400358e-03  -2.8783704631123754e-02  -7.2179186272714163e-02  6.4052607253954008e-02  1.8898454976432996e-02  4.1597082832855947e-01  4.5821960835381115e-01  4.0898431072133357e-01  1.6586439498278979e-01  4.8559370814060407e-02  8.9074442591748570e-02  2.9809828063970345e-01  1.6528225625908510e-01  2.2661837625001952e-01  3.5195030944216360e-01  2.9533583959888376e-01  4.0021858403362037e-01  3.9399695941643043e-01  5.3260123157410195e-02  -2.6826845836212578e-05  2.8998673525714630e-01  3.4058589655694615e-01  2.8753782297553460e-01  1.6583220163286261e-01  4.8446491151390519e-02  9.7618991627932791e-02  2.2498045358508634e-01  1.6773680826420292e-01  2.8346317094244167e-01  2.8013450926258959e-01  5.9263471037470171e-02  -3.7187272620351730e-05  1.6949619174982875e-01  2.2301983896577673e-01  1.6856234245791257e-01  5.3189130133499199e-02  1.0630822933296433e-01  1.6910170438534203e-01  1.6688591191142788e-01  5.9736215022913666e-02  -2.7076453576371760e-05  1.0923648419692192e-01  5.5149508932436461e-02  5.8565320755094484e-02  5.5316430448600559e-02  -1.8647675079868288e-05  8.7600664080187696e-01  8.7600664808501127e-01  8.2831697361921064e-01  8.0236268220822682e-01  7.8165471342577009e-01  7.7654330837110463e-01  8.2831718053506775e-01  8.0238536988401188e-01  7.7661441465700509e-01  7.8165532731339904e-01  7.3621549235791139e-01  7.0526451587046157e-01  6.9324400617998216e-01  6.8039048806258628e-01  7.1961813273120945e-01  7.1975493989140160e-01  6.9381964699214504e-01  6.9422899939130911e-01  6.6283450407010935e-01  6.6315322084510475e-01  7.3621705033033191e-01  7.0579186272825900e-01  6.8129119839123531e-01  6.9324656520896266e-01  6.5310525084720006e-01  6.1580634699691494e-01  6.1680589655213625e-01  5.9403886946523476e-01  5.7600750176630300e-01  6.1173238373835936e-01  6.0574750851267434e-01  5.8731933553104587e-01  5.7458588257571452e-01  5.5051144342603286e-01  5.4281854788842676e-01  6.0764651639859890e-01  6.1450170634968537e-01  5.7639970549742647e-01  5.9150822815863713e-01  5.4643632561667577e-01  5.5566952762092248e-01  6.5310974990775916e-01  6.1845817374686374e-01  5.9773845394759795e-01  6.1681346774241208e-01  5.8066416591049830e-01  4.2215819436744456e-01  4.5383394893013090e-01  4.2440127813513567e-01  3.3007307337326944e-02  -5.4270483678024073e-01  -2.8108656988069891e-01  8.2035039156074352e-02  1.3928605079529957e-01  -3.6347955519234594e-02  2.1095615766884637e-02  7.7593007552927598e-02  1.9469076491032206e-01  2.5136675276635800e-01  1.6315269557447745e-01  1.9760882670403510e-01  2.3402463507431923e-01  3.6528886685073686e-01  3.6333088222744275e-01  3.0834073537593676e-01  3.3129301830576563e-01  3.0051571397251187e-01  4.6300277002513729e-01  4.2985356557473753e-01  4.7329320484462511e-01  4.3311789658091332e-01  4.3500401778123804e-01  4.8481327094963411e-01  4.4324105766564664e-01  4.9852831007586185e-01  4.4857194210287166e-01  4.5258025334912022e-01  5.1446602738939096e-01  4.6794456401133910e-01  5.3404615086952567e-01  4.7689652711405600e-01  4.8600575652529948e-01  5.8486494326857452e-01  5.5708426190535199e-01  5.1118753346554535e-01  5.4075698211950574e-01  5.2464198958218022e-01  5.3769358190803451e-01  5.1239130964562640e-01  4.9731714754944650e-01  4.9099106626249045e-01  4.5905406353412614e-01  4.4871085225971874e-01  4.2998900433763787e-01  4.0687714697805721e-01  4.7426578655381707e-01  4.7645663071282818e-01  4.4370051349922041e-01  4.4876118899983525e-01  4.0764683499223442e-01  4.1029402691723776e-01  5.4593414770909454e-01  5.0787259715907829e-01  5.2349869116719805e-01  4.7150881658634308e-01  5.0514866594700991e-01  4.4688320864151226e-01  4.6676578999200630e-01  4.2851730120916137e-01  5.8483039225239697e-01  5.4781689124777933e-01  5.3318061237601277e-01  5.5710370593106129e-01  5.2074631906457702e-01  3.5852379543948432e-01  3.2044085960495683e-01  2.8291679738142889e-01  3.5718417441906647e-01  3.5500560894347299e-01  2.7527537106046540e-01  3.1125344238062014e-01  2.6797947895557056e-01  -4.6405690383192794e-01  -3.5067168512861230e-01  -3.4397577203015267e-01  -3.9123135251088159e-01  -3.1812240760743499e-01  -1.7041128873097267e-01  -9.6177553015198758e-02  -1.7932233283014382e-02  -1.8765005735344939e-01  -4.4669277516248412e-02  -1.7825903025632164e-01  -1.2603487106974193e-01  -5.6826809330908015e-02  1.0057354568697954e-01  1.4880341651366030e-01  1.9814683828756757e-01  1.8353253692608903e-01  1.7114784475358924e-01  7.8289907877125392e-02  1.1542777690133614e-01  6.5380477684631871e-02  3.5401911773711159e-01  3.5744269606070833e-01  3.6045609508221843e-01  3.0707091728849467e-01  2.6114435652127893e-01  3.1094288108844637e-01  2.6183687789049892e-01  2.6197104171739594e-01  3.7071225776790739e-01  3.8092743187296146e-01  3.9181195076318781e-01  3.2207124683286020e-01  2.7456666235818178e-01  3.4237601549562141e-01  2.8417304797106890e-01  2.9299208778340652e-01  4.1616726718104341e-01  4.5197125486829742e-01  4.3275922113553705e-01  4.0603484363580000e-01  3.6983262750777690e-01  3.2353206032195653e-01  3.6052274749417057e-01  3.4036994064670012e-01  3.4710681075759764e-01  3.4021469887021749e-01  3.1971228929771761e-01  3.0602555730775155e-01  2.7889265904725657e-01  2.6926960678809275e-01  3.5188480581471415e-01  3.6659462109663810e-01  3.1564200240686224e-01  3.4648452835943416e-01  2.8657468780456630e-01  3.0432142307782667e-01  4.7271758151386667e-01  4.3302934413205757e-01  4.5726929824369594e-01  3.9370143097567672e-01  4.4442557928589965e-01  3.7908780445724355e-01  4.0647438339553732e-01  3.6833566748687746e-01  5.3403347192178185e-01  4.9763017736880361e-01  4.8908807986325170e-01  5.1446811788376223e-01  4.8037858972918807e-01  1.5879954932022891e-01  1.0231542017298198e-01  5.3531950323823088e-02  1.6008761814499828e-01  1.6144360363974711e-01  5.7070425860803617e-02  1.0673182197747631e-01  6.2063876530114831e-02  -3.1415171221376015e-01  -2.5253318669275876e-01  -2.2647801787581898e-01  -2.3805783877250131e-01  -1.9402450679038261e-01  -1.5847916275303037e-01  -1.1325401148244564e-01  -5.2152490904745191e-02  -4.2881549992308456e-02  -3.3383121057147164e-02  -1.3811120013134479e-01  -8.3451312570237607e-02  -1.0990662163608556e-01  1.7266644143583801e-01  1.8628361729769177e-01  1.9831013989354795e-01  1.2196362544099218e-01  8.1439067700535911e-02  1.4864928892334872e-01  9.6325374625651064e-02  1.0475641857631754e-01  2.2590363400449748e-01  2.7182154225659788e-01  2.4754686849472540e-01  2.2611294042818467e-01  1.8117573089523123e-01  1.4157700554203367e-01  1.8464337431670133e-01  1.6188396607751948e-01  1.9759453547788358e-01  2.0654225145213717e-01  1.6531364688625999e-01  1.8454822944124480e-01  1.3579717532827559e-01  1.4239510195596605e-01  3.1296299007262390e-01  2.6881094505703823e-01  2.9719309746240674e-01  2.3026567639204909e-01  2.8621716845211814e-01  2.1628189241658152e-01  2.4518238969975159e-01  2.0928309758755756e-01  4.2561412788390007e-01  3.8748244669641013e-01  4.1712783181265789e-01  3.4940933337491165e-01  4.0873550102703421e-01  3.4422712144501716e-01  3.7311393267413689e-01  3.3855044591437539e-01  4.9852909143626994e-01  4.6483659916605546e-01  4.8482006835094815e-01  4.5988707766672454e-01  4.5356254635237075e-01  -2.8962633125007519e-03  -4.7214584191261927e-02  -7.0494533687594771e-02  1.8180327714316130e-02  3.0323151192651571e-02  -4.3645347009004923e-02  -7.8386694540033726e-03  -2.7056215540786497e-02  -1.6093053184251011e-01  -1.1944709237173229e-01  -8.9126224297404383e-02  -6.9899780791968472e-02  -9.4581263621339562e-02  5.8555366220765050e-02  1.1347467753054097e-01  8.5908218307722287e-02  7.8742781336534229e-02  2.6939541595050073e-02  1.0223967168359672e-02  5.4088693051094178e-02  3.2935959145193580e-02  4.7330062535672446e-01  4.4259672456773841e-01  4.6301503866112437e-01  4.3898324486012696e-01  4.3402284246658385e-01  1.5117397233126983e-01  1.0544868555276256e-01  1.3566914582717146e-01  7.6185373041768048e-02  1.2974256112537905e-01  6.9517822580542121e-02  8.8409037526545164e-02  6.9899415841853482e-02  2.7446295557339578e-01  2.3379419045126892e-01  2.6968362385241079e-01  1.9879552219287147e-01  2.6489617405757876e-01  1.9823619233213780e-01  2.2757463977002260e-01  1.9711736638450425e-01  3.9829957375861652e-01  3.6331394491187657e-01  3.9391516568148238e-01  3.8827250540690872e-01  3.2948495616226214e-01  3.5532852163030765e-01  3.2787388415441948e-01  3.2434657127455879e-01  4.5384200183643481e-01  4.2545198160433473e-01  4.2217171493119071e-01  -2.5764018238138661e-02  -4.5516848133552411e-02  3.2147147967936010e-02  5.5508105112538281e-03  2.5418990601776423e-02  2.9893849060111735e-02  -3.3512338106370382e-05  3.8110075100600449e-01  3.7822775556249350e-01  3.4910163004754879e-01  3.7402923821857553e-01  3.1904648419557041e-01  3.4341170043300534e-01  3.1748493219189583e-01  3.1468540583741594e-01  1.2942883267574776e-01  9.0432607152114583e-02  1.3012814906255574e-01  7.3671399610056906e-02  1.3133029030037635e-01  7.0873573223777478e-02  9.4649613367399354e-02  7.4630908027169734e-02  2.6213191161625476e-01  2.2632955711285543e-01  2.6158254335979059e-01  2.5928964616123734e-01  1.9729884488622410e-01  2.2546333380479819e-01  1.9766018974669050e-01  1.9738191635990596e-01  3.6783602039429314e-01  3.6530386310383617e-01  3.3816401045010841e-01  3.1036981073097558e-01  3.0836053060415919e-01  2.6071821153441466e-02  4.8615477358655792e-05  2.4801546897180650e-02  3.2399725712067076e-02  -5.4361575797542421e-05  2.5719885621686861e-01  2.5681834034588108e-01  2.2495841526513105e-01  2.5519285687358689e-01  1.9829649965405721e-01  2.2395457281787179e-01  1.9725003105028391e-01  1.9659609071762491e-01  1.3447255705859995e-01  1.0092691309693909e-01  1.3666653073505905e-01  8.2926290433559410e-02  1.3847102205739079e-01  7.9044473198144297e-02  1.0515361641768771e-01  8.1027133889504444e-02  2.5231283938947424e-01  2.5139758000966034e-01  2.2243737060063962e-01  1.9632845819712330e-01  1.9472352593160075e-01  2.8212908320194893e-02  3.6715601929667571e-05  2.6805839280800964e-02  3.1545115854056699e-02  -3.3725304665705343e-05  1.3863730068353619e-01  1.3924237927832434e-01  1.0772345836562097e-01  1.4022687726330380e-01  8.5481942060015179e-02  1.0917476327494281e-01  8.2410740879505770e-02  8.3116009878043198e-02  1.3888612532147615e-01  1.3868143324171162e-01  1.0954293105539399e-01  8.5028269049160846e-02  8.2774153893548905e-02  2.8732348059313632e-02  2.5227872894007185e-05  2.7665809023570423e-02  3.0359130439056994e-02  -2.1680535558400845e-05  2.8464939448639769e-02  2.7737102524595783e-02  1.6803040863922629e-05  8.5166177607694205e-01  8.2708674640534208e-01  8.2709127305438268e-01  7.7512706219095973e-01  7.7516346213157916e-01  7.5289674157658248e-01  7.2910595431849201e-01  7.4759279571569415e-01  7.2357777233070164e-01  7.5305243942934796e-01  7.2389850911344600e-01  7.2940907727966020e-01  6.7268995755878014e-01  6.6684021307060548e-01  6.5885184844396050e-01  6.3729010019258947e-01  6.3950937514760564e-01  6.2349519135862885e-01  6.6772406066332979e-01  6.7382214518905159e-01  6.3425501917273630e-01  6.0472507749826254e-01  6.4114749532188575e-01  6.0538993081673731e-01  6.6017766864725980e-01  6.2628857227296264e-01  6.3919743923619021e-01  5.7721095397968414e-01  5.6267285569251535e-01  5.5826479178374622e-01  5.3407098165757683e-01  5.4211634821200194e-01  5.4337899179465488e-01  5.1545031678654785e-01  4.8749647272601188e-01  5.0938910301222085e-01  4.7980134290371595e-01  5.6863192274457619e-01  5.8271828858239350e-01  5.2126163691899208e-01  4.8567509720003438e-01  4.9621793609740855e-01  5.4350040006845135e-01  5.6401591076764424e-01  3.9428369279366265e-01  4.2696381973226599e-01  3.6085321083531346e-01  3.9501410762126554e-01  -1.2998738720304931e-01  -3.4674967762746844e-01  1.2312668356901912e-01  -1.2446830216031009e-01  -2.5588010823369395e-01  2.2224752753974310e-02  2.6799311790622010e-01  1.2976434947798818e-01  4.5507383893698093e-02  2.1546260362977887e-01  2.9156625084979065e-01  2.4234000479231982e-01  4.3870984567991789e-01  3.9604149347700907e-01  3.9973597975960073e-01  3.5381118103551784e-01  4.5983546507873646e-01  4.0749704425983874e-01  4.2018678733245030e-01  3.6487464374557349e-01  4.9829333884392774e-01  4.3954202248616164e-01  4.6432377970902516e-01  4.0357665638858853e-01  4.9685893688723537e-01  4.7142764679584070e-01  4.1994978058000904e-01  4.1247755520289581e-01  3.8369428006410178e-01  3.8030658587741711e-01  3.6388148867993170e-01  4.2110661276420758e-01  4.3344277586127133e-01  3.7698488799087682e-01  3.4226450148797821e-01  3.9368493036732288e-01  3.4621715721970686e-01  4.8868933228912043e-01  5.1088952783592090e-01  3.8851448160823049e-01  4.1076143678837562e-01  4.8323886342548777e-01  5.0888878833377749e-01  2.2162306916052013e-01  2.6326562988682845e-01  1.6277328088116849e-01  2.1184049384086315e-01  -2.4679728799720677e-01  -2.8728300650457794e-01  6.9934898466750654e-03  -1.7234748541777858e-01  -2.0506209974947057e-01  -5.8583534305389449e-02  5.6199607113340710e-02  2.0389043050295695e-03  2.6718842113862556e-01  2.1315138636564776e-01  2.2487553097743659e-01  1.6571794582530541e-01  3.0770608622678502e-01  2.4644218825139252e-01  2.7562351870862023e-01  2.1158036681067260e-01  3.1666905842685089e-01  2.9591580981097315e-01  2.7267062838427941e-01  2.7859591206742440e-01  2.4179663048104566e-01  2.1350968580819657e-01  2.3940791316278606e-01  2.0384835542217228e-01  3.2940980110102258e-01  3.5440346168573400e-01  2.6691995534811802e-01  2.2719839461617447e-01  2.4805620489095012e-01  4.3470780505736617e-01  4.6224957754878093e-01  3.2833827161859896e-01  3.5845341494841021e-01  4.4515626899323152e-01  4.7230540899932999e-01  1.5175765163352251e-02  7.0059098770610354e-02  -1.9974141505118864e-02  3.9877281968710418e-02  -1.5132607343088705e-01  -1.5861842647569818e-01  -9.2279724801673887e-02  -9.4552284185491497e-02  1.2248131436699096e-01  6.7796985497992568e-02  1.0082238591857563e-01  4.3803009982711576e-02  1.4899852674912217e-01  1.3991356904446578e-01  1.6751689032188419e-01  1.9229005783728381e-01  1.1513655205996316e-01  8.5880789821001516e-02  9.5010451865854828e-02  2.7997530149048794e-01  3.1289091714157674e-01  1.7095433263410598e-01  2.0350506181277275e-01  4.0321512669168202e-01  4.3209710910285687e-01  3.0252366565086924e-01  3.3366623749634317e-01  4.4781506723654280e-01  4.2138560030883104e-01  -4.7843329887686512e-02  -9.7142803737734623e-03  -4.8907245754370242e-02  -7.1205997362953294e-03  4.2264608796368799e-02  5.5251124643115962e-02  4.1223967304360182e-01  3.8442083286718864e-01  4.2952553697697010e-01  4.0435763093748239e-01  1.2927921049814203e-01  1.6532655114481135e-01  5.0365531341619876e-02  7.1476325187016285e-02  2.6318344513214553e-01  2.9644929666202963e-01  1.6507265829454598e-01  1.9687544866003126e-01  3.2142933126554130e-01  2.9233446367664495e-01  3.9691528896380096e-01  3.7071614724361385e-01  2.7675616588966868e-02  5.0602286191586035e-02  2.8853212449684557e-01  2.5797715883518418e-01  3.1232421484819906e-01  2.8526855402692081e-01  1.3260286521703665e-01  1.6653084144549349e-01  5.3869526718109101e-02  7.8703648627051190e-02  1.9762153361981780e-01  1.6837148374571478e-01  2.8160587268352966e-01  2.5354234864520875e-01  2.9983062525253987e-02  5.5879512490225818e-02  1.6880803381318518e-01  1.3831718117146383e-01  1.9629535487550553e-01  1.6866287014313341e-01  5.6469415255541715e-02  8.3188187028534172e-02  1.6781616523746612e-