<?xml version="1.0"?>
<VTKFile type="UnstructuredGrid"  version="0.1"  >
<UnstructuredGrid>
<Piece  NumberOfPoints="65" NumberOfCells="96">
<Points>
<DataArray  type="Float64"  NumberOfComponents="3"  format="ascii">-0.6034294401033936 0.6034294401033937 0  -0.4357565270979424 0.5810087027972566 0  -0.5810087027972566 0.4357565270979425 0  -0.2790982891699274 0.5581965783398549 0  -0.4099898727970779 0.409989872797078 0  -0.5581965783398549 0.2790982891699275 0  -0.1350496299588063 0.5401985198352254 0  -0.2541416246993262 0.3812124370489895 0  -0.3812124370489894 0.2541416246993263 0  -0.5401985198352254 0.1350496299588064 0  0.6034294401033937 0.6034294401033936 0  0.5332121396478249 -6.101214563956075e-18 0  0.5401985198352254 0.1350496299588063 0  0.5581965783398549 0.2790982891699274 0  0.5810087027972566 0.4357565270979424 0  0.4357565270979425 0.5810087027972566 0  0.2790982891699275 0.5581965783398549 0  0.1350496299588064 0.5401985198352254 0  6.529965400862203e-17 0.5332121396478249 0  -0.1187364032820351 0.3562092098461054 0  -0.2227253679768643 0.2227253679768644 0  -0.3562092098461054 0.1187364032820352 0  -0.5332121396478249 6.529965400862203e-17 0  0.409989872797078 0.4099898727970779 0  0.3458396720045933 -4.235314473385958e-17 0  0.3562092098461054 0.1187364032820351 0  0.3812124370489895 0.2541416246993262 0  0.2541416246993263 0.3812124370489894 0  0.1187364032820352 0.3562092098461054 0  4.235314473385958e-17 0.3458396720045933 0  -0.09549722635189338 0.1909944527037868 0  -0.1909944527037868 0.09549722635189344 0  -0.3458396720045933 4.235314473385958e-17 0  -0.5401985198352254 -0.1350496299588063 0  0.2227253679768644 0.2227253679768643 0  0.1760763556015786 -2.156313452930044e-17 0  0.1909944527037868 0.09549722635189338 0  0.09549722635189344 0.1909944527037868 0  2.156313452930044e-17 0.1760763556015786 0  -0.0663511076611463 0.06635110766114632 0  -0.1760763556015786 2.156313452930044e-17 0  -0.3562092098461054 -0.1187364032820351 0  -0.5581965783398549 -0.2790982891699274 0  0.06635110766114632 0.0663511076611463 0  0.04809765673080336 -5.890264136186648e-18 0  5.890264136186648e-18 0.04809765673080336 0  -0.5810087027972566 -0.4357565270979424 0  -0.04809765673080336 5.890264136186648e-18 0  -0.1909944527037868 -0.09549722635189338 0  -0.3812124370489895 -0.2541416246993262 0  -0.6034294401033937 -0.6034294401033935 0  0 0 0  -0.409989872797078 -0.4099898727970779 0  -0.06635110766114632 -0.0663511076611463 0  -0.2227253679768644 -0.2227253679768643 0  -0.4357565270979425 -0.5810087027972566 0  -5.890264136186648e-18 -0.04809765673080336 0  -0.2541416246993263 -0.3812124370489894 0  -0.09549722635189344 -0.1909944527037868 0  -0.2790982891699275 -0.5581965783398548 0  -2.156313452930044e-17 -0.1760763556015786 0  -0.1187364032820352 -0.3562092098461054 0  -0.1350496299588063 -0.5401985198352252 0  -4.235314473385958e-17 -0.3458396720045933 0  -6.529965400862202e-17 -0.5332121396478248 0  </DataArray>
</Points>
<Cells>
<DataArray  type="UInt32"  Name="connectivity"  format="ascii">0 1 2  2 4 5  1 3 4  1 2 4  9 21 22  8 20 21  5 8 9  8 9 21  6 18 19  3 6 7  7 19 20  6 7 19  4 5 8  7 8 20  3 4 7  4 7 8  45 47 51  38 39 45  39 40 47  39 45 47  18 19 29  19 20 30  29 30 38  19 29 30  21 22 32  31 32 40  20 21 31  21 31 32  30 38 39  20 30 31  31 39 40  30 31 39  22 32 33  33 41 42  32 40 41  32 33 41  46 50 52  49 52 54  42 46 49  46 49 52  47 51 53  40 47 48  48 53 54  47 48 53  41 42 49  48 49 54  40 41 48  41 48 49  62 63 64  60 61 63  59 61 62  61 62 63  51 53 56  53 54 58  56 58 60  53 56 58  50 52 55  55 57 59  52 54 57  52 55 57  58 60 61  54 57 58  57 59 61  57 58 61  17 18 29  28 29 38  16 17 28  17 28 29  43 45 51  34 37 43  37 38 45  37 43 45  10 15 23  15 16 27  23 27 34  15 23 27  28 37 38  27 34 37  16 27 28  27 28 37  11 12 24  12 13 25  24 25 35  12 24 25  10 14 23  23 26 34  13 14 26  14 23 26  43 44 51  35 36 44  34 36 43  36 43 44  13 25 26  26 34 36  25 35 36  25 26 36  </DataArray>
<DataArray  type="UInt32"  Name="offsets"  format="ascii">3 6 9 12 15 18 21 24 27 30 33 36 39 42 45 48 51 54 57 60 63 66 69 72 75 78 81 84 87 90 93 96 99 102 105 108 111 114 117 120 123 126 129 132 135 138 141 144 147 150 153 156 159 162 165 168 171 174 177 180 183 186 189 192 195 198 201 204 207 210 213 216 219 222 225 228 231 234 237 240 243 246 249 252 255 258 261 264 267 270 273 276 279 282 285 288 </DataArray>
<DataArray  type="UInt8"  Name="types"  format="ascii">5 5 5 5 5 5 5 5 5 5 5 5 5 5 5 5 5 5 5 5 5 5 5 5 5 5 5 5 5 5 5 5 5 5 5 5 5 5 5 5 5 5 5 5 5 5 5 5 5 5 5 5 5 5 5 5 5 5 5 5 5 5 5 5 5 5 5 5 5 5 5 5 5 5 5 5 5 5 5 5 5 5 5 5 5 5 5 5 5 5 5 5 5 5 5 5 </DataArray>
</Cells>
<PointData  Scalars="f_1017"> 
<DataArray  type="Float64"  Name="f_1017"  format="ascii">9.0020341585560104e-01  8.0382852566014640e-01  8.0382835716230827e-01  7.1302909198896747e-01  6.9072001568904762e-01  7.1315182049701398e-01  6.3269033701282795e-01  5.7555304714658395e-01  5.7848107437732610e-01  6.3308128988484325e-01  4.5526085461360954e-01  -3.6696401976079818e-01  1.2521797116885422e-01  2.3324662812087457e-01  3.4318828449875194e-01  4.7148338156446185e-01  4.9171677957361254e-01  5.2213755349919400e-01  5.7023631290193644e-01  4.7149420723233137e-01  4.3881574733428746e-01  4.8411114957107843e-01  5.6956956624817423e-01  3.1126424072501041e-01  -4.6938771604453705e-01  -1.0472593845719951e-01  1.3276675708808630e-01  3.0598675480318421e-01  3.3415579741067347e-01  3.8483513511529110e-01  3.0310096164038053e-01  3.2148869685018389e-01  4.1540510525141167e-01  5.2358080951161923e-01  1.1009583193943745e-01  -2.8243880110357228e-01  -9.8620592931164291e-02  1.3903881697136317e-01  1.9805772382097989e-01  1.6113539061012172e-01  2.5026221018636380e-01  3.7747888976571881e-01  4.9212010653912935e-01  -2.0620363612725730e-02  -1.1995862362587172e-01  4.1291654447071939e-02  4.6915977396244307e-01  8.8026679120275120e-02  2.2888898746204028e-01  3.5893530551409863e-01  4.5104932737555303e-01  -1.8663074240669205e-02  3.4609792456572636e-01  8.8582061828585065e-02  2.2468035284866231e-01  3.3707324882626566e-01  4.0345067174054209e-03  2.2666667974296878e-01  1.0377679400598280e-01  2.2322867779583244e-01  2.6055508668537709e-03  1.0782206063143192e-01  1.1078664262664777e-01  1.6218001570157408e-03  -4.4697645822182601e-04  </DataArray> 
</PointData> 
</Piece>
</UnstructuredGrid>
</VTKFile>