<?xml version="1.0"?>
<VTKFile type="UnstructuredGrid"  version="0.1"  >
<UnstructuredGrid>
<Piece  NumberOfPoints="833" NumberOfCells="1536">
<Points>
<DataArray  type="Float64"  NumberOfComponents="3"  format="ascii">-0.6034294401033936 0.6034294401033937 0  -0.4357565270979424 0.5810087027972566 0  -0.5810087027972566 0.4357565270979425 0  -0.2790982891699274 0.5581965783398549 0  -0.4099898727970779 0.409989872797078 0  -0.5581965783398549 0.2790982891699275 0  -0.1350496299588063 0.5401985198352254 0  -0.2541416246993262 0.3812124370489895 0  -0.3812124370489894 0.2541416246993263 0  -0.5401985198352254 0.1350496299588064 0  0.6034294401033937 0.6034294401033936 0  0.5332121396478249 -6.101214563956075e-18 0  0.5401985198352254 0.1350496299588063 0  0.5581965783398549 0.2790982891699274 0  0.5810087027972566 0.4357565270979424 0  0.4357565270979425 0.5810087027972566 0  0.2790982891699275 0.5581965783398549 0  0.1350496299588064 0.5401985198352254 0  6.529965400862203e-17 0.5332121396478249 0  -0.1187364032820351 0.3562092098461054 0  -0.2227253679768643 0.2227253679768644 0  -0.3562092098461054 0.1187364032820352 0  -0.5332121396478249 6.529965400862203e-17 0  0.409989872797078 0.4099898727970779 0  0.3458396720045933 -4.235314473385958e-17 0  0.3562092098461054 0.1187364032820351 0  0.3812124370489895 0.2541416246993262 0  0.2541416246993263 0.3812124370489894 0  0.1187364032820352 0.3562092098461054 0  4.235314473385958e-17 0.3458396720045933 0  -0.09549722635189338 0.1909944527037868 0  -0.1909944527037868 0.09549722635189344 0  -0.3458396720045933 4.235314473385958e-17 0  -0.5401985198352254 -0.1350496299588063 0  0.2227253679768644 0.2227253679768643 0  0.1760763556015786 -2.156313452930044e-17 0  0.1909944527037868 0.09549722635189338 0  0.09549722635189344 0.1909944527037868 0  2.156313452930044e-17 0.1760763556015786 0  -0.0663511076611463 0.06635110766114632 0  -0.1760763556015786 2.156313452930044e-17 0  -0.3562092098461054 -0.1187364032820351 0  -0.5581965783398549 -0.2790982891699274 0  0.06635110766114632 0.0663511076611463 0  0.04809765673080336 -5.890264136186648e-18 0  5.890264136186648e-18 0.04809765673080336 0  -0.5810087027972566 -0.4357565270979424 0  -0.04809765673080336 5.890264136186648e-18 0  -0.1909944527037868 -0.09549722635189338 0  -0.3812124370489895 -0.2541416246993262 0  -0.6034294401033937 -0.6034294401033935 0  0 0 0  -0.409989872797078 -0.4099898727970779 0  -0.06635110766114632 -0.0663511076611463 0  -0.2227253679768644 -0.2227253679768643 0  -0.4357565270979425 -0.5810087027972566 0  -5.890264136186648e-18 -0.04809765673080336 0  -0.2541416246993263 -0.3812124370489894 0  -0.09549722635189344 -0.1909944527037868 0  -0.2790982891699275 -0.5581965783398548 0  -2.156313452930044e-17 -0.1760763556015786 0  -0.1187364032820352 -0.3562092098461054 0  -0.1350496299588063 -0.5401985198352252 0  -4.235314473385958e-17 -0.3458396720045933 0  -6.529965400862202e-17 -0.5332121396478248 0  -0.5195929836006681 0.5922190714503252 0  -0.592219071450325 0.5195929836006681 0  -0.5083826149475995 0.5083826149475996 0  -0.3574274081339349 0.5696026405685557 0  -0.4228731999475102 0.4954992877971673 0  -0.4954992877971672 0.4228731999475103 0  -0.5696026405685557 0.357427408133935 0  -0.3445440809835026 0.4840932255684665 0  -0.2070739595643669 0.5491975490875401 0  -0.2666199569346268 0.4697045076944222 0  -0.4840932255684665 0.3445440809835028 0  -0.332065748748202 0.3956011549230338 0  -0.3956011549230337 0.3320657487482022 0  -0.4697045076944222 0.2666199569346269 0  -0.5491975490875401 0.207073959564367 0  -0.1945956273290663 0.4607054784421074 0  -0.06752481497940312 0.5367053297415252 0  -0.1268930166204207 0.4482038648406654 0  -0.3176770308741578 0.3176770308741579 0  -0.1864390139906806 0.3687108234475475 0  -0.2384334963380953 0.301968902512927 0  -0.4607054784421074 0.1945956273290664 0  -0.3019689025129269 0.2384334963380954 0  -0.3687108234475474 0.1864390139906807 0  -0.4482038648406654 0.1268930166204208 0  -0.5367053297415252 0.06752481497940323 0  0.5922190714503252 0.5195929836006681 0  0.5195929836006681 0.592219071450325 0  0.5067096564502359 0.5067096564502358 0  0.5367053297415252 0.06752481497940317 0  0.4395259058262091 -2.422717964890783e-17 0  0.5491975490875401 0.2070739595643669 0  0.4430190959199093 0.06752481497940314 0  0.4482038648406654 0.1268930166204207 0  0.5696026405685557 0.3574274081339349 0  0.4572028940929801 0.1989173462259812 0  0.4697045076944222 0.2666199569346268 0  0.4954992877971673 0.4228731999475102 0  0.4811105699231231 0.3449490758986343 0  0.357427408133935 0.5696026405685557 0  0.4228731999475103 0.4954992877971672 0  0.3449490758986344 0.481110569923123 0  0.207073959564367 0.5491975490875401 0  0.2666199569346269 0.4697045076944222 0  0.1989173462259813 0.4572028940929801 0  0.06752481497940323 0.5367053297415252 0  0.1268930166204208 0.4482038648406654 0  0.06752481497940323 0.4430190959199093 0  -0.05936820164101751 0.4447106747469651 0  5.382639937124081e-17 0.4395259058262091 0  -0.1707308856294497 0.2894672889114849 0  -0.05936820164101752 0.3510244409253493 0  -0.1071168148169642 0.2736018312749461 0  -0.2894672889114849 0.1707308856294498 0  -0.1591112971643789 0.2068599103403256 0  -0.2068599103403256 0.1591112971643789 0  -0.4447106747469651 0.05936820164101762 0  -0.2736018312749461 0.1071168148169643 0  -0.3510244409253493 0.0593682016410176 0  -0.4395259058262091 5.382639937124081e-17 0  -0.5367053297415252 -0.06752481497940313 0  0.3956011549230338 0.332065748748202 0  0.3320657487482022 0.3956011549230337 0  0.3163576203869712 0.3163576203869711 0  0.3510244409253493 0.05936820164101752 0  0.260958013803086 -3.195813963158001e-17 0  0.3687108234475475 0.1864390139906806 0  0.266142782723842 0.05936820164101753 0  0.2736018312749461 0.1071168148169642 0  0.301968902512927 0.2384334963380953 0  0.2861034448763882 0.1748194255256098 0  0.1864390139906807 0.3687108234475474 0  0.2384334963380954 0.3019689025129269 0  0.1748194255256099 0.2861034448763881 0  0.0593682016410176 0.3510244409253493 0  0.1071168148169643 0.2736018312749461 0  0.0593682016410176 0.266142782723842 0  -0.04774861317594667 0.2684170623541901 0  3.195813963158001e-17 0.260958013803086 0  -0.1432458395278401 0.1432458395278401 0  -0.04774861317594668 0.1835354041526827 0  -0.08092416700651983 0.1286727801824666 0  -0.2684170623541901 0.04774861317594674 0  -0.1286727801824666 0.08092416700651989 0  -0.1835354041526827 0.04774861317594673 0  -0.4430190959199093 -0.06752481497940313 0  -0.260958013803086 3.195813963158001e-17 0  -0.3510244409253493 -0.05936820164101753 0  -0.4482038648406654 -0.1268930166204207 0  -0.5491975490875401 -0.2070739595643669 0  0.2068599103403256 0.1591112971643789 0  0.1591112971643789 0.2068599103403256 0  0.1445382378190054 0.1445382378190053 0  0.1835354041526827 0.04774861317594668 0  0.112087006166191 -1.372669933274355e-17 0  0.1286727801824666 0.08092416700651983 0  0.1195460547172951 0.04774861317594669 0  0.04774861317594673 0.1835354041526827 0  0.08092416700651989 0.1286727801824666 0  0.04774861317594672 0.1195460547172951 0  -0.03317555383057313 0.1212137316313625 0  1.372669933274355e-17 0.112087006166191 0  -0.1212137316313625 0.03317555383057318 0  -0.03317555383057315 0.05722438219597484 0  -0.05722438219597482 0.03317555383057316 0  -0.266142782723842 -0.05936820164101754 0  -0.112087006166191 1.372669933274355e-17 0  -0.1835354041526827 -0.04774861317594668 0  -0.4572028940929801 -0.1989173462259813 0  -0.2736018312749461 -0.1071168148169643 0  -0.3687108234475475 -0.1864390139906807 0  -0.5696026405685557 -0.3574274081339349 0  -0.4697045076944222 -0.2666199569346268 0  0.05722438219597484 0.03317555383057315 0  0.03317555383057316 0.05722438219597482 0  0.03317555383057316 0.03317555383057315 0  0.02404882836540168 -2.945132068093324e-18 0  -0.02404882836540168 0.02404882836540168 0  2.945132068093324e-18 0.02404882836540168 0  -0.4811105699231231 -0.3449490758986343 0  -0.5922190714503252 -0.519592983600668 0  -0.4954992877971673 -0.4228731999475102 0  -0.1195460547172951 -0.04774861317594669 0  -0.02404882836540168 2.945132068093324e-18 0  -0.05722438219597484 -0.03317555383057315 0  -0.2861034448763882 -0.1748194255256098 0  -0.1286727801824666 -0.08092416700651983 0  -0.2068599103403256 -0.1591112971643789 0  -0.3956011549230338 -0.332065748748202 0  -0.301968902512927 -0.2384334963380953 0  -0.5067096564502359 -0.5067096564502357 0  -0.5195929836006681 -0.592219071450325 0  -0.03317555383057316 -0.03317555383057315 0  -2.945132068093324e-18 -0.02404882836540168 0  -0.3163576203869712 -0.3163576203869711 0  -0.4228731999475103 -0.4954992877971672 0  -0.3320657487482022 -0.3956011549230337 0  -0.1445382378190054 -0.1445382378190053 0  -0.03317555383057316 -0.05722438219597482 0  -0.08092416700651989 -0.1286727801824666 0  -0.2384334963380954 -0.3019689025129269 0  -0.1591112971643789 -0.2068599103403256 0  -0.3449490758986344 -0.481110569923123 0  -0.357427408133935 -0.5696026405685557 0  -0.04774861317594672 -0.1195460547172951 0  -1.372669933274355e-17 -0.112087006166191 0  -0.1748194255256099 -0.2861034448763881 0  -0.2666199569346269 -0.4697045076944221 0  -0.1864390139906807 -0.3687108234475474 0  -0.04774861317594673 -0.1835354041526827 0  -0.1071168148169643 -0.2736018312749461 0  -0.1989173462259813 -0.4572028940929801 0  -0.2070739595643669 -0.54919754908754 0  -0.0593682016410176 -0.266142782723842 0  -3.195813963158001e-17 -0.260958013803086 0  -0.1268930166204207 -0.4482038648406653 0  -0.0593682016410176 -0.3510244409253493 0  -0.06752481497940319 -0.4430190959199092 0  -0.06752481497940319 -0.536705329741525 0  -5.382639937124079e-17 -0.439525905826209 0  -0.5615112118520309 0.5978242557768594 0  -0.5978242557768594 0.5615112118520309 0  -0.4776747553493053 0.5866138871237909 0  -0.472069571022771 0.5446956588724281 0  -0.3965919676159387 0.5753056716829061 0  -0.4293148635227263 0.538
[...]
<PointData  Scalars="f_1073"> 
<DataArray  type="Float64"  Name="f_1073"  format="ascii">8.9972120378752429e-01  8.0432846281534920e-01  8.0433017144715768e-01  7.1351839837139053e-01  6.9062489367385327e-01  7.1352856117616481e-01  6.3331270919034799e-01  5.7631503314365562e-01  5.7969402382363777e-01  6.3335662353449695e-01  4.5003415768670052e-01  -2.8229927575496461e-01  1.1193258381829502e-01  2.2295426598832652e-01  3.3645847868498241e-01  4.6851491671719020e-01  4.9148706241032525e-01  5.2321379288473080e-01  5.6948073925822995e-01  4.7031020426101616e-01  4.3947231835342326e-01  4.8454206962428448e-01  5.6947679685186781e-01  3.1573906075577018e-01  -4.2848584680789809e-01  -1.1702812883840930e-01  1.3031022525572070e-01  3.0802354295494710e-01  3.3044733827463307e-01  3.8475515010231265e-01  3.0431503789504483e-01  3.2304498426891387e-01  4.1700170818916177e-01  5.2334968174646435e-01  1.0410699057577563e-01  -2.7246200130773657e-01  -9.6373865561871816e-02  1.3416359139787531e-01  1.9882498621620692e-01  1.6176024817519191e-01  2.5226785154495551e-01  3.7904944202078500e-01  4.9143963537132629e-01  -2.2394497202010203e-02  -1.1481719715358053e-01  4.6545530476236115e-02  4.6831610521637596e-01  8.9009844752888298e-02  2.2948604079600546e-01  3.5930733017041422e-01  4.4990524070759308e-01  -8.4855024565790079e-03  3.4667332599869521e-01  9.2113128319546003e-02  2.2646963935512532e-01  3.3613054397102388e-01  4.6583312350202065e-04  2.2539177036175320e-01  1.0445974696926943e-01  2.2220609371512115e-01  1.9872670212730582e-04  1.0931082589072677e-01  1.1009405347918641e-01  1.0283345373307581e-04  -7.1095576093595025e-05  8.5219132696301714e-01  8.5219153331380226e-01  8.0173106439459185e-01  7.5891184042290916e-01  7.4824800079745835e-01  7.4838246873918235e-01  7.5891594333016354e-01  6.9870197802584577e-01  6.7305906137528404e-01  6.4637489570250983e-01  6.9932541319981267e-01  6.3448533129074725e-01  6.3541167938084842e-01  6.4825390251755421e-01  6.7307300182469965e-01  6.0041957778911936e-01  6.0079062736519639e-01  5.5383315009954015e-01  5.7458665967987677e-01  5.2423515836518964e-01  5.0864066147978004e-01  6.0444924125206323e-01  5.1192770558312561e-01  5.3168952719624873e-01  5.6122898588750325e-01  6.0067533537093831e-01  3.9394415161500296e-01  4.5816897708720422e-01  3.9462839629106744e-01  4.9048957458047132e-02  -4.9828586299530186e-01  1.6665716302917269e-01  -2.1749553398621957e-01  -5.3203766671995403e-02  2.8003944536789166e-01  8.2021256197573680e-02  1.7163907629276134e-01  3.2574102491986534e-01  2.5530674389578850e-01  4.7877327807809816e-01  3.9604997671745307e-01  3.9681786711386041e-01  5.0622448463822012e-01  4.0400674095529882e-01  4.1194959960025546e-01  5.4536875538221929e-01  4.2964749958130560e-01  4.5007884645206270e-01  5.1454310825350602e-01  4.7934428328884310e-01  4.5016512777805423e-01  4.2745261411738950e-01  3.8906805727756000e-01  4.5946550010322873e-01  3.7441947908790607e-01  3.8089402948019585e-01  5.2631510490032174e-01  4.0766505888470944e-01  4.4961720927765447e-01  4.9582821020042206e-01  5.4531594538913453e-01  2.3134498223536518e-01  3.0803003787000144e-01  2.1480805735601008e-01  -2.6287346417609403e-01  -3.5345326830726237e-01  1.9959164301945161e-02  -2.2269700237177298e-01  -1.2366330530225907e-01  1.0610209517829093e-01  2.2088684934026101e-03  3.1562679923959508e-01  2.1255053463657386e-01  2.1585437068107277e-01  3.5564262402226693e-01  2.3630930541323256e-01  2.5765480522542733e-01  3.3856694188281122e-01  2.9475131607655009e-01  3.0973140267676730e-01  2.5263635741853679e-01  2.3340741092854336e-01  3.6995188914451438e-01  2.4767550208936567e-01  2.8608306824814739e-01  4.7129917372999597e-01  3.3914636482099808e-01  3.9654616621694649e-01  4.5373271641078222e-01  5.0622243152262436e-01  8.2844634916773886e-03  1.1275450511419281e-01  2.5654110112283999e-02  -1.8175589229790573e-01  -2.0134653862909038e-01  -6.7319039984529261e-02  -1.1809302295546960e-01  1.6428951098010833e-01  5.7673175323860890e-02  7.8714879337115878e-02  1.7307486210380552e-01  1.2424421582245708e-01  2.0744569218421430e-01  1.0793213325839714e-01  1.2330213818179417e-01  3.1850359067407863e-01  1.7742459760541035e-01  2.3891218447640680e-01  4.3732301708262228e-01  3.0775762233028725e-01  3.6786103297949269e-01  4.7879858666066866e-01  4.2740367919696920e-01  -6.5801695196801832e-02  8.5036106600600639e-03  -2.9102245612828384e-02  -7.2279924641371160e-02  6.3938731021219428e-02  1.9061687932037261e-02  4.1596649191442570e-01  4.5821075769127340e-01  4.0897651092057158e-01  1.6587148498011711e-01  4.8200198434213436e-02  8.8865408848270419e-02  2.9807676244162751e-01  1.6518885273208783e-01  2.2651218806227066e-01  3.5190053315933495e-01  2.9530589018737036e-01  4.0023746504612934e-01  3.9401056991021566e-01  5.3336636319748852e-02  -1.0267368633904630e-04  2.8999925590646025e-01  3.4059041521000805e-01  2.8749952236983489e-01  1.6592633619862107e-01  4.8321828155831761e-02  9.7523079667515264e-02  2.2494386688859880e-01  1.6764621408119576e-01  2.8352973000996956e-01  2.8014022469883032e-01  5.9329324086695182e-02  -1.6552785571168118e-04  1.6952587040623307e-01  2.2301236352313944e-01  1.6853726164652838e-01  5.3152562770517844e-02  1.0624067507154172e-01  1.6916902042242776e-01  1.6687355058375372e-01  5.9783886473072423e-02  -1.1636921678054849e-04  1.0922565668784655e-01  5.5121892025440766e-02  5.8617316738660386e-02  5.5278034973142452e-02  -7.8415006791759511e-05  8.7598929328210517e-01  8.7598929201965925e-01  8.2829559907039152e-01  8.0238556797851812e-01  7.8163718843602858e-01  7.7651882488246049e-01  8.2829636291548436e-01  8.0240707394236355e-01  7.7658980557976576e-01  7.8163964196562530e-01  7.3619376571829165e-01  7.0528743892968038e-01  6.9322410494838604e-01  6.8034834442602865e-01  7.1957735595982275e-01  7.1971098688557189e-01  6.9382615833681116e-01  6.9423383917505788e-01  6.6277756058885418e-01  6.6310212333954044e-01  7.3620000489979665e-01  7.0580597001488043e-01  6.8125190760999976e-01  6.9323437837975233e-01  6.5308334105357224e-01  6.1576054872749197e-01  6.1676876149419457e-01  5.9396230309366171e-01  5.7607421244932433e-01  6.1166257100646759e-01  6.0567191149512978e-01  5.8726150287615220e-01  5.7455496696821129e-01  5.5039041732497163e-01  5.4272375987316723e-01  6.0758546045229123e-01  6.1443183180999461e-01  5.7636765150875147e-01  5.9147574572053152e-01  5.4633600299268181e-01  5.5557247024416401e-01  6.5309884090025383e-01  6.1841446192259741e-01  5.9768486285428923e-01  6.1679491062597314e-01  5.8069001222197347e-01  4.2214036888925993e-01  4.5379060161771834e-01  4.2459164639340896e-01  7.3273387697142547e-02  -5.7231556521860361e-01  -2.8153702220382870e-01  8.1757186535794668e-02  1.3947627560026779e-01  -3.5608914788100965e-02  1.8145379242412801e-02  7.6954165192440346e-02  1.9449301808814137e-01  2.5126540028228250e-01  1.6370614897147190e-01  1.9696987815685660e-01  2.3409169386968540e-01  3.6523651354800291e-01  3.6337473784808438e-01  3.0827402495468031e-01  3.3107929432240463e-01  3.0083688078733900e-01  4.6295168087477395e-01  4.2986312536911414e-01  4.7323554882378888e-01  4.3297359320726575e-01  4.3515286466378972e-01  4.8478945173874399e-01  4.4322985620216515e-01  4.9849483054253535e-01  4.4850717151388247e-01  4.5260452781200172e-01  5.1444887919632254e-01  4.6789985625192609e-01  5.3405035994477201e-01  4.7692793460321625e-01  4.8595320151722737e-01  5.8486656292924011e-01  5.5706386002996489e-01  5.1119851773107083e-01  5.4068477995550934e-01  5.2461265673771462e-01  5.3781517634704490e-01  5.1223654801746932e-01  4.9718109247703490e-01  4.9091953799524457e-01  4.5904170865661481e-01  4.4859440480980584e-01  4.2987488446937400e-01  4.0698586781313750e-01  4.7416033759058435e-01  4.7632746253026631e-01  4.4364869495938070e-01  4.4871257382819218e-01  4.0750827163265740e-01  4.1017899783908385e-01  5.4599551670022284e-01  5.0777615527918218e-01  5.2338080058851844e-01  4.7147216013611809e-01  5.0510965144785969e-01  4.4680270918858855e-01  4.6666903989241887e-01  4.2854583832098753e-01  5.8481957743127866e-01  5.4776226581071086e-01  5.3315482567961370e-01  5.5708949423197152e-01  5.2074476986226681e-01  3.5873340453886648e-01  3.2023110330771443e-01  2.8284625721000378e-01  3.5695028108961502e-01  3.5496448008484488e-01  2.7492625863147285e-01  3.1108924400047916e-01  2.6809993563492501e-01  -4.6384901335728385e-01  -3.5193591978605138e-01  -3.4330457628288974e-01  -3.9138552552184885e-01  -3.1788627703283856e-01  -1.7020800173699979e-01  -9.6465962990035889e-02  -1.8771212478148128e-02  -1.8748948549588104e-01  -4.4986629576073994e-02  -1.7862453301296502e-01  -1.2563944877791111e-01  -5.6946462355392607e-02  1.0027629123087738e-01  1.4830100024155068e-01  1.9813844608188605e-01  1.8304479107662963e-01  1.7101824831561391e-01  7.7991241954377177e-02  1.1515392311053668e-01  6.5310569341041361e-02  3.5409361529154526e-01  3.5732971724669782e-01  3.6042894358194155e-01  3.0697181450098504e-01  2.6108224252097090e-01  3.1090154773577999e-01  2.6181947585068399e-01  2.6181426730707053e-01  3.7067016269753461e-01  3.8094888416264516e-01  3.9187842135241613e-01  3.2215591795259785e-01  2.7454068619852723e-01  3.4240006917930121e-01  2.8420467019935353e-01  2.9289884949248168e-01  4.1607420253893723e-01  4.5206248727055454e-01  4.3274898107887183e-01  4.0595069818342566e-01  3.6990471127436464e-01  3.2354953752153276e-01  3.6042985650514109e-01  3.4033282467854020e-01  3.4700971666251151e-01  3.4005148926777673e-01  3.1963602504358768e-01  3.0594551937594372e-01  2.7873897648957063e-01  2.6912600346058713e-01  3.5177167095038236e-01  3.6652983920974941e-01  3.1555544026189958e-01  3.4644443124232122e-01  2.8640179619078215e-01  3.0422429527036021e-01  4.7273631599472410e-01  4.3294235854930935e-01  4.5722039272426440e-01  3.9358946774269110e-01  4.4439858810054317e-01  3.7902673654155805e-01  4.0643450636793693e-01  3.6831621829221323e-01  5.3401937933552002e-01  4.9758296424310522e-01  4.8904696966051020e-01  5.1444776835756956e-01  4.8037338487829906e-01  1.5878417691099569e-01  1.0246937439358406e-01  5.3491018137814761e-02  1.6008975662848832e-01  1.6143966272774438e-01  5.7100834430041027e-02  1.0693708681993719e-01  6.1930030017391571e-02  -3.1422986555551008e-01  -2.5294427727187874e-01  -2.2644301764482755e-01  -2.3817830887969729e-01  -1.9406666014001769e-01  -1.5861954517007676e-01  -1.1303886469935802e-01  -5.2608885637689326e-02  -4.2614416111400828e-02  -3.3430720085846542e-02  -1.3824685156079677e-01  -8.3392348991562906e-02  -1.1016826606014987e-01  1.7237296563822399e-01  1.8644497972359239e-01  1.9829254987321218e-01  1.2222688755629312e-01  8.1400799240433253e-02  1.4859441386438230e-01  9.6441845535627957e-02  1.0457334272185911e-01  2.2568526081483181e-01  2.7199279984506625e-01  2.4754511075293995e-01  2.2600204011017336e-01  1.8132533436637435e-01  1.4153818307759586e-01  1.8465804123182769e-01  1.6181991470542237e-01  1.9742693797794672e-01  2.0629399301078760e-01  1.6521900620821578e-01  1.8441133367907100e-01  1.3548120527334256e-01  1.4215054295115614e-01  3.1299144024798498e-01  2.6874309612513098e-01  2.9709680438499386e-01  2.3016000302078210e-01  2.8618658768881611e-01  2.1616699616953014e-01  2.4511383617920493e-01  2.0922543943224173e-01  4.2560833186193875e-01  3.8743667500973922e-01  4.1706925086112095e-01  3.4936545861728052e-01  4.0874437970013699e-01  3.4413285702487012e-01  3.7308086897671500e-01  3.3851303011065298e-01  4.9850895868044554e-01  4.6481382749125494e-01  4.8481370354283942e-01  4.5984640711680497e-01  4.5354364189259017e-01  -3.2338977411640363e-03  -4.7060822530420758e-02  -7.0538577775390757e-02  1.8285241809288078e-02  3.0310016834984417e-02  -4.3722834923624887e-02  -7.9200186867675170e-03  -2.7274162260807304e-02  -1.6122089086500951e-01  -1.1996106322997555e-01  -8.9334001603302307e-02  -7.0065323338244348e-02  -9.4565379627878962e-02  5.8012586078073608e-02  1.1373220496687100e-01  8.5902040068667251e-02  7.8390995475431810e-02  2.7193052529525089e-02  1.0003734555949353e-02  5.4037879111840825e-02  3.2966960561101454e-02  4.7328319477679309e-01  4.4258942944513963e-01  4.6300324108770630e-01  4.3894709340132021e-01  4.3401693251843892e-01  1.5124881294634029e-01  1.0534898022636319e-01  1.3544949244039703e-01  7.6022198568057309e-02  1.2980065482549868e-01  6.9316030002378043e-02  8.8294790151140445e-02  6.9799434474912894e-02  2.7441871846732963e-01  2.3372675505089288e-01  2.6958176871706813e-01  1.9874760661153112e-01  2.6493119397830334e-01  1.9811259953032359e-01  2.2746022255359186e-01  1.9705475356043509e-01  3.9827643435787508e-01  3.6324883056788082e-01  3.9384859329029087e-01  3.8830730143762787e-01  3.2946889160858434e-01  3.5527931215318165e-01  3.2780222971171658e-01  3.2432551472343440e-01  4.5382360931405735e-01  4.2547250924059432e-01  4.2217312901806464e-01  -2.6855725010169095e-02  -4.5348544298373809e-02  3.2449735732974772e-02  6.2985833281000974e-03  2.4468499543082313e-02  3.0127834440155727e-02  -6.4570708742899832e-05  3.8109243385800456e-01  3.7818156066868214e-01  3.4907684968731073e-01  3.7407922900212409e-01  3.1906057764289708e-01  3.4339740127471019e-01  3.1743230883313056e-01  3.1469188188859959e-01  1.2927249272429273e-01  9.0277872453811678e-02  1.2998025812364444e-01  7.3593769177432850e-02  1.3149511136087189e-01  7.0755228870655287e-02  9.4473705440025049e-02  7.4516682389798181e-02  2.6209814662981479e-01  2.2626253191095635e-01  2.6147537324314829e-01  2.5935545763782697e-01  1.9729535100089327e-01  2.2538940525559314e-01  1.9754576799783155e-01  1.9735318958531112e-01  3.6786049058232984e-01  3.6529961633955471e-01  3.3814477910738189e-01  3.1042110134675149e-01  3.0835590009804803e-01  2.6044216180033036e-02  2.5471351171060486e-05  2.4524781588091273e-02  3.2525440651740817e-02  -1.1650630272462460e-04  2.5718959818285447e-01  2.5676596691548081e-01  2.2488498062533854e-01  2.5525614697886079e-01  1.9831881080300284e-01  2.2391935189973639e-01  1.9719368991358005e-01  1.9660104390179872e-01  1.3443324985007379e-01  1.0080642187694505e-01  1.3650141385924086e-01  8.2969741156784391e-02  1.3858322998324685e-01  7.9033694075015024e-02  1.0503393805137358e-01  8.1015343459353156e-02  2.5234247694043044e-01  2.5138865314926867e-01  2.2241113987580649e-01  1.9638263901023834e-01  1.9471543627814614e-01  2.8180087981209870e-02  3.9538228202920970e-05  2.6689747177043366e-02  3.1632378348133657e-02  -6.2423164261166702e-05  1.3863386227071750e-01  1.3917410805563271e-01  1.0766483395088713e-01  1.4029736642491603e-01  8.5536361886198078e-02  1.0914326376613719e-01  8.2393497826618853e-02  8.3090683840718799e-02  1.3888613383449547e-01  1.3868485039412462e-01  1.0950764384973402e-01  8.5075016654725694e-02  8.2768450451492170e-02  2.8698480301950293e-02  3.3453512121000100e-05  2.7613704623562812e-02  3.0415366333251145e-02  -3.7264419936982832e-05  2.8443456032564079e-02  2.7742714700698109e-02  2.5818638963561975e-05  8.5168518355924716e-01  8.2707246580538896e-01  8.2707666263762158e-01  7.7510117686415025e-01  7.7513859821162867e-01  7.5291735627208745e-01  7.2907145018660557e-01  7.4760633146992728e-01  7.2354660134035775e-01  7.5306926538745689e-01  7.2387129425356977e-01  7.2937601110633876e-01  6.7265035070115653e-01  6.6678152255172451e-01  6.5887907469435369e-01  6.3723930861095168e-01  6.3951112389070353e-01  6.2345979570042553e-01  6.6766703091857837e-01  6.7379018807051572e-01  6.3424028805186683e-01  6.0465602284450037e-01  6.4114281482697055e-01  6.0531358694705029e-01  6.6018686210496291e-01  6.2626185537994117e-01  6.3915217998715479e-01  5.7709245363488360e-01  5.6254069231638626e-01  5.5820334978764796e-01  5.3401361012156745e-01  5.4201633468078925e-01  5.4329506878367462e-01  5.1542081031943265e-01  4.8739864059204541e-01  5.0934631035295308e-01  4.7969893164776084e-01  5.6852760110848022e-01  5.8263970052339920e-01  5.2122234160598202e-01  4.8559476537442003e-01  4.9611375072900177e-01  5.4345135414174728e-01  5.6396594440450587e-01  3.9419067118354911e-01  4.2684359105544772e-01  3.6067859494720361e-01  3.9484984033763776e-01  -1.3503109109479691e-01  -3.4583790357375360e-01  1.2204574357422904e-01  -1.2620835959822574e-01  -2.5474782113064792e-01  2.0722714703198839e-02  2.6775291310252702e-01  1.2873318227747324e-01  4.4720523705200091e-02  2.1499908807261126e-01  2.9123054590039166e-01  2.4190213993671891e-01  4.3857349831397391e-01  3.9588493970753785e-01  3.9962932287246294e-01  3.5363490254629903e-01  4.5977619637819028e-01  4.0745559166421852e-01  4.2019636542441613e-01  3.6485771660124094e-01  4.9827979145998263e-01  4.3958115091487054e-01  4.6433973057652839e-01  4.0362422501115264e-01  4.9683612750537531e-01  4.7139757684680034e-01  4.1985081846812577e-01  4.1234615077812059e-01  3.8357753307759512e-01  3.8025814902804278e-01  3.6373601407830275e-01  4.2096654081898033e-01  4.3337000644669188e-01  3.7690199032226529e-01  3.4213435172216827e-01  3.9362404215955860e-01  3.4606151660372625e-01  4.8863070625527061e-01  5.1085069704464070e-01  3.8840071409228494e-01  4.1065148902825538e-01  4.8320186308836605e-01  5.0884365206709503e-01  2.2137629097088940e-01  2.6303632896257634e-01  1.6260948484028878e-01  2.1178516707908279e-01  -2.4651823882610907e-01  -2.8720113927269886e-01  7.0010539782001460e-03  -1.7221725447944786e-01  -2.0487625011343036e-01  -5.8471583724317537e-02  5.6184789278719227e-02  2.2950700844082085e-03  2.6720867056453401e-01  2.1322705927574442e-01  2.2499177406836340e-01  1.6584832088988230e-01  3.0772039288899139e-01  2.4652730882034571e-01  2.7568339490062577e-01  2.1169412708655100e-01  3.1660473489712704e-01  2.9583310689963549e-01  2.7248837577782048e-01  2.7846380903971241e-01  2.4174612280417956e-01  2.1336465466995352e-01  2.3930860466468842e-01  2.0368487082641420e-01  3.2929708422822113e-01  3.5432130456619543e-01  2.6682945060448099e-01  2.2708631455092992e-01  2.4789123130541399e-01  4.3465508772863598e-01  4.6221617634512019e-01  3.2826302578984140e-01  3.5836416440473873e-01  4.4511338594711769e-01  4.7225438542002379e-01  1.5416212664465433e-02  7.0248643679759012e-02  -1.9787783273420210e-02  4.0095040676794577e-02  -1.5128737122192268e-01  -1.5867617094692366e-01  -9.2253785396181565e-02  -9.4622042168195086e-02  1.2251353610898558e-01  6.7922214530387090e-02  1.0087656917881731e-01  4.3911357767308354e-02  1.4879837540031496e-01  1.3970216294544910e-01  1.6728395005164709e-01  1.9212426861080209e-01  1.1498847607999736e-01  8.5694388173354674e-02  9.4790845697538900e-02  2.7988513683004002e-01  3.1284083601534968e-01  1.7079869324375171e-01  2.0335049361657775e-01  4.0315933914307056e-01  4.3205827714333428e-01  3.0244810574088488e-01  3.3358790073669414e-01  4.4777068602827735e-01  4.2134805695869920e-01  -4.7892881771839743e-02  -9.7752916032727601e-03  -4.9009080195691751e-02  -7.2299961391895139e-03  4.2210492219246123e-02  5.5046976896580523e-02  4.1220545851609380e-01  3.8437072103372438e-01  4.2949872962626390e-01  4.0433464121116525e-01  1.2910842714909335e-01  1.6518789816956539e-01  5.0153120550240279e-02  7.1288170689990715e-02  2.6307788923170683e-01  2.9637499929126460e-01  1.6490317717394967e-01  1.9672941183418088e-01  3.2136488993030454e-01  2.9226547005069070e-01  3.9691287173078721e-01  3.7069457141489476e-01  2.7519434609151322e-02  5.0460121727046343e-02  2.8847976681990412e-01  2.5789853929333972e-01  3.1229799251903284e-01  2.8523397923506344e-01  1.3243062653372956e-01  1.6640241715436288e-01  5.3686432644127750e-02  7.8549949329470833e-02  1.9752589571714535e-01  1.6825840769919417e-01  2.8160134390916208e-01  2.5351265289565239e-01  2.9877799349083498e-02  5.5803022216803236e-02  1.6874289065185252e-01  1.3822925347931020e-01  1.9625724713991261e-01  1.6861335454893231e-01  5.6374478643125461e-02  8.3124522849579899e-02  1.6779004076442994e-