<?xml version="1.0"?>
<VTKFile type="UnstructuredGrid"  version="0.1"  >
<UnstructuredGrid>
<Piece  NumberOfPoints="89" NumberOfCells="142">
<Points>
<DataArray  type="Float64"  NumberOfComponents="3"  format="ascii">-1 1 0  -0.75 1 0  -1 0.75 0  -0.5 1 0  -0.75 0.75 0  -1 0.5 0  -0.25 1 0  -0.5 0.75 0  -0.75 0.5 0  -1 0.25 0  1 1 0  1 1.110223024625157e-16 0  1 0.2500000000000001 0  1 0.5 0  1 0.75 0  0.75 1 0  0.5 1 0  0.25 1 0  0 1 0  -0.25 0.75 0  -0.5 0.5 0  -0.75 0.25 0  -1 0 0  0.75 0.75 0  0.75 0 0  0.75 0.25 0  0.75 0.5 0  0.5 0.75 0  0.25 0.75 0  0 0.75 0  -0.25 0.5 0  -0.5 0.25 0  -0.75 0 0  -1 -0.2500000000000001 0  0.5 0.5 0  0.5 0 0  0.5 0.25 0  0.25 0.5 0  0 0.5 0  -0.25 0.25 0  -0.5 0 0  -0.75 -0.2500000000000001 0  -1 -0.5 0  0.25 0.25 0  0.25 0 0  0 0.25 0  -1 -0.75 0  -0.25 0 0  -0.5 -0.25 0  -0.75 -0.5 0  -0.9999999999999999 -1 0  0 0 0  -0.75 -0.75 0  -0.25 -0.25 0  -0.5 -0.5 0  -0.7499999999999999 -1 0  0 -0.25 0  -0.5 -0.75 0  -0.25 -0.5 0  -0.4999999999999999 -0.9999999999999999 0  0 -0.5 0  -0.25 -0.75 0  -0.2499999999999999 -0.9999999999999999 0  0 -0.75 0  0 -0.9999999999999999 0  0.375 0.375 0  0.375 0.25 0  0.375 0.125 0  0.25 0.375 0  0.125 0.375 0  -0.125 0.375 0  -0.375 0.125 0  -0.125 0.25 0  -0.25 0.125 0  0.25 0.125 0  0.125 0.25 0  0.125 0.125 0  0.125 0 0  -0.125 0.125 0  0 0.125 0  -0.375 -0.125 0  -0.125 0 0  -0.25 -0.125 0  -0.375 -0.25 0  -0.125 -0.125 0  0 -0.125 0  -0.375 -0.375 0  -0.125 -0.25 0  -0.125 -0.375 0  </DataArray>
</Points>
<Cells>
<DataArray  type="UInt32"  Name="connectivity"  format="ascii">0 1 2  2 4 5  1 3 4  1 2 4  9 21 22  8 20 21  5 8 9  8 9 21  6 18 19  3 6 7  7 19 20  6 7 19  4 5 8  7 8 20  3 4 7  4 7 8  51 78 81  47 78 81  51 78 79  45 78 79  45 70 72  39 70 72  38 45 70  40 47 71  47 71 73  39 71 73  39 73 78  47 73 78  39 72 78  45 72 78  18 19 29  19 20 30  29 30 38  19 29 30  21 22 32  31 32 40  20 21 31  21 31 32  30 39 70  30 38 70  20 30 31  31 40 71  31 39 71  30 31 39  22 32 33  33 41 42  32 40 41  32 33 41  46 50 52  49 52 54  42 46 49  46 49 52  47 82 84  53 82 84  47 81 84  51 81 84  40 48 80  40 47 80  48 54 86  48 83 86  53 83 86  53 80 83  48 80 83  53 80 82  47 80 82  41 42 49  48 49 54  40 41 48  41 48 49  62 63 64  60 61 63  59 61 62  61 62 63  56 84 87  53 84 87  56 84 85  51 84 85  54 58 86  53 58 86  58 60 88  56 60 88  53 58 88  53 87 88  56 87 88  50 52 55  55 57 59  52 54 57  52 55 57  58 60 61  54 57 58  57 59 61  57 58 61  17 18 29  28 29 38  16 17 28  17 28 29  45 75 76  43 75 76  45 76 79  51 76 79  34 37 65  37 65 68  43 65 68  37 38 69  38 45 69  43 68 69  37 68 69  43 69 75  45 69 75  10 15 23  15 16 27  23 27 34  15 23 27  28 37 38  27 34 37  16 27 28  27 28 37  11 12 24  12 13 25  24 25 35  12 24 25  10 14 23  23 26 34  13 14 26  14 23 26  44 74 76  43 74 76  44 76 77  51 76 77  35 44 67  35 36 67  34 36 65  36 65 66  43 65 66  43 66 67  36 66 67  43 67 74  44 67 74  13 25 26  26 34 36  25 35 36  25 26 36  </DataArray>
<DataArray  type="UInt32"  Name="offsets"  format="ascii">3 6 9 12 15 18 21 24 27 30 33 36 39 42 45 48 51 54 57 60 63 66 69 72 75 78 81 84 87 90 93 96 99 102 105 108 111 114 117 120 123 126 129 132 135 138 141 144 147 150 153 156 159 162 165 168 171 174 177 180 183 186 189 192 195 198 201 204 207 210 213 216 219 222 225 228 231 234 237 240 243 246 249 252 255 258 261 264 267 270 273 276 279 282 285 288 291 294 297 300 303 306 309 312 315 318 321 324 327 330 333 336 339 342 345 348 351 354 357 360 363 366 369 372 375 378 381 384 387 390 393 396 399 402 405 408 411 414 417 420 423 426 </DataArray>
<DataArray  type="UInt8"  Name="types"  format="ascii">5 5 5 5 5 5 5 5 5 5 5 5 5 5 5 5 5 5 5 5 5 5 5 5 5 5 5 5 5 5 5 5 5 5 5 5 5 5 5 5 5 5 5 5 5 5 5 5 5 5 5 5 5 5 5 5 5 5 5 5 5 5 5 5 5 5 5 5 5 5 5 5 5 5 5 5 5 5 5 5 5 5 5 5 5 5 5 5 5 5 5 5 5 5 5 5 5 5 5 5 5 5 5 5 5 5 5 5 5 5 5 5 5 5 5 5 5 5 5 5 5 5 5 5 5 5 5 5 5 5 5 5 5 5 5 5 5 5 5 5 5 5 </DataArray>
</Cells>
<CellData  Scalars="q"> 
<DataArray  type="Float64"  Name="q"  format="ascii">0.0000000000000000e+00   0.0000000000000000e+00   0.0000000000000000e+00   0.0000000000000000e+00   0.0000000000000000e+00   0.0000000000000000e+00   0.0000000000000000e+00   0.0000000000000000e+00   0.0000000000000000e+00   0.0000000000000000e+00   0.0000000000000000e+00   0.0000000000000000e+00   0.0000000000000000e+00   0.0000000000000000e+00   0.0000000000000000e+00   0.0000000000000000e+00   0.0000000000000000e+00   0.0000000000000000e+00   0.0000000000000000e+00   0.0000000000000000e+00   3.4314575050761975e-01   3.4314575050761975e-01   3.4314575050761975e-01   3.4314575050761975e-01   3.4314575050761975e-01   3.4314575050761975e-01   0.0000000000000000e+00   0.0000000000000000e+00   0.0000000000000000e+00   0.0000000000000000e+00   0.0000000000000000e+00   0.0000000000000000e+00   3.4314575050761992e-01   0.0000000000000000e+00   0.0000000000000000e+00   3.4314575050761992e-01   0.0000000000000000e+00   0.0000000000000000e+00   3.4314575050761992e-01   3.4314575050761992e-01   0.0000000000000000e+00   3.4314575050761992e-01   3.4314575050761992e-01   3.4314575050761992e-01   0.0000000000000000e+00   1.5700924586837752e-16   0.0000000000000000e+00   1.5700924586837752e-16   3.1401849173675503e-16   0.0000000000000000e+00   1.5700924586837752e-16   3.1401849173675503e-16   0.0000000000000000e+00   0.0000000000000000e+00   0.0000000000000000e+00   0.0000000000000000e+00   3.4314575050761992e-01   3.4314575050761975e-01   3.4314575050761992e-01   3.4314575050761975e-01   3.4314575050761975e-01   0.0000000000000000e+00   3.4314575050761975e-01   0.0000000000000000e+00   3.4314575050761975e-01   1.5700924586837752e-16   3.4314575050761992e-01   3.4314575050761992e-01   1.5700924586837752e-16   0.0000000000000000e+00   4.7102773760513257e-16   0.0000000000000000e+00   4.7102773760513257e-16   0.0000000000000000e+00   0.0000000000000000e+00   0.0000000000000000e+00   0.0000000000000000e+00   3.4314575050761992e-01   3.4314575050761975e-01   3.4314575050761992e-01   3.4314575050761975e-01   3.4314575050761975e-01   3.4314575050761975e-01   3.4314575050761975e-01   0.0000000000000000e+00   1.5700924586837757e-16   3.1401849173675503e-16   3.1401849173675503e-16   3.4314575050761992e-01   3.4314575050761992e-01   4.7102773760513257e-16   4.7102773760513257e-16   0.0000000000000000e+00   0.0000000000000000e+00   0.0000000000000000e+00   0.0000000000000000e+00   0.0000000000000000e+00   0.0000000000000000e+00   0.0000000000000000e+00   0.0000000000000000e+00   3.4314575050761992e-01   3.4314575050761975e-01   0.0000000000000000e+00   3.4314575050761992e-01   3.4314575050761975e-01   0.0000000000000000e+00   3.4314575050761975e-01   0.0000000000000000e+00   3.4314575050761975e-01   0.0000000000000000e+00   0.0000000000000000e+00   0.0000000000000000e+00   0.0000000000000000e+00   3.4314575050761992e-01   3.4314575050761992e-01   0.0000000000000000e+00   0.0000000000000000e+00   0.0000000000000000e+00   1.5700924586837747e-16   1.5700924586837747e-16   1.5700924586837747e-16   0.0000000000000000e+00   0.0000000000000000e+00   0.0000000000000000e+00   0.0000000000000000e+00   0.0000000000000000e+00   0.0000000000000000e+00   0.0000000000000000e+00   0.0000000000000000e+00   3.4314575050761975e-01   3.4314575050761992e-01   3.4314575050761992e-01   3.4314575050761975e-01   0.0000000000000000e+00   0.0000000000000000e+00   3.4314575050761975e-01   0.0000000000000000e+00   3.4314575050761975e-01   0.0000000000000000e+00   3.4314575050761992e-01   3.4314575050761992e-01   0.0000000000000000e+00   </DataArray> 
</CellData> 
</Piece>
</UnstructuredGrid>
</VTKFile>