<?xml version="1.0"?>
<VTKFile type="UnstructuredGrid"  version="0.1"  >
<UnstructuredGrid>
<Piece  NumberOfPoints="497" NumberOfCells="919">
<Points>
<DataArray  type="Float64"  NumberOfComponents="3"  format="ascii">-1 1 0  -0.75 1 0  -1 0.75 0  -0.5 1 0  -0.75 0.75 0  -1 0.5 0  -0.25 1 0  -0.5 0.75 0  -0.75 0.5 0  -1 0.25 0  1 1 0  1 1.110223024625157e-16 0  1 0.2500000000000001 0  1 0.5 0  1 0.75 0  0.75 1 0  0.5 1 0  0.25 1 0  0 1 0  -0.25 0.75 0  -0.5 0.5 0  -0.75 0.25 0  -1 0 0  0.75 0.75 0  0.75 0 0  0.75 0.25 0  0.75 0.5 0  0.5 0.75 0  0.25 0.75 0  0 0.75 0  -0.25 0.5 0  -0.5 0.25 0  -0.75 0 0  -1 -0.2500000000000001 0  0.5 0.5 0  0.5 0 0  0.5 0.25 0  0.25 0.5 0  0 0.5 0  -0.25 0.25 0  -0.5 0 0  -0.75 -0.2500000000000001 0  -1 -0.5 0  0.25 0.25 0  0.25 0 0  0 0.25 0  -1 -0.75 0  -0.25 0 0  -0.5 -0.25 0  -0.75 -0.5 0  -0.9999999999999999 -1 0  0 0 0  -0.75 -0.75 0  -0.25 -0.25 0  -0.5 -0.5 0  -0.7499999999999999 -1 0  0 -0.25 0  -0.5 -0.75 0  -0.25 -0.5 0  -0.4999999999999999 -0.9999999999999999 0  0 -0.5 0  -0.25 -0.75 0  -0.2499999999999999 -0.9999999999999999 0  0 -0.75 0  0 -0.9999999999999999 0  0.375 0.125 0  0.125 0.375 0  -0.125 0.375 0  -0.375 0.125 0  -0.125 0.25 0  -0.25 0.125 0  0.25 0.125 0  0.125 0.25 0  0.125 0.125 0  0.125 0 0  -0.125 0.125 0  0 0.125 0  -0.375 -0.125 0  -0.125 0 0  -0.25 -0.125 0  -0.125 -0.125 0  -0.125 -0.375 0  -0.375 -0.625 0  -0.125 -0.5 0  -0.25 -0.625 0  -0.3749999999999999 -0.875 0  -0.125 -0.625 0  0 -0.625 0  -0.2499999999999999 -0.875 0  -0.125 -0.75 0  -0.1249999999999999 -0.875 0  -0.1249999999999999 -0.9999999999999999 0  0 -0.875 0  -0.375 0.625 0  -0.625 0.375 0  -0.375 0.5 0  -0.5 0.375 0  -0.375 0.375 0  -0.25 0.375 0  -0.375 0.25 0  0.1875 0.0625 0  0.1875 0 0  0.0625 0.1875 0  -0.0625 0.1875 0  0 0.1875 0  -0.1875 0.0625 0  -0.1875 0 0  -0.1875 -0.0625 0  0 -0.125 0  0.0625 0.0625 0  0.0625 0 0  -0.0625 0.0625 0  0 0.0625 0  -0.0625 0 0  -0.0625 -0.0625 0  -0.125 -0.25 0  -0.1875 -0.1875 0  -0.0625 -0.1875 0  0.125 0.0625 0  0.0625 0.125 0  -0.0625 0.125 0  -0.125 0.0625 0  -0.125 -0.0625 0  0.875 0.375 0  0.125 0.875 0  0.625 0.625 0  0.75 0.375 0  0.625 0.125 0  0.625 0.25 0  0.625 0.5 0  0.625 0.375 0  0.375 0.625 0  0.125 0.75 0  0.25 0.625 0  0.125 0.625 0  -0.125 0.625 0  0 0.625 0  -0.125 0.5 0  -0.625 0.125 0  -0.5 0.125 0  -0.625 0 0  0.5 0.375 0  0.375 0.5 0  0.375 0.375 0  0.5 0.125 0  0.125 0.5 0  0.25 0.375 0  -0.625 -0.125 0  -0.5 -0.125 0  -0.625 -0.25 0  -0.625 -0.375 0  -0.375 -0.25 0  -0.5 -0.375 0  0 -0.0625 0  0.03125 0.03125 0  0.03125 0 0  -0.03125 0.03125 0  0 0.03125 0  -0.03125 0 0  -0.03125 -0.03125 0  -0.375 -0.375 0  0.09375 0.03125 0  0.03125 0.09375 0  -0.03125 0.09375 0  0 0.09375 0  -0.09375 0.03125 0  -0.09375 0 0  -0.09375 -0.03125 0  -0.03125 -0.09375 0  0.0625 0.03125 0  0.03125 0.0625 0  -0.03125 0.0625 0  -0.0625 0.03125 0  -0.0625 -0.03125 0  -0.0625 -0.125 0  -0.875 0.875 0  -0.625 1 0  -0.75 0.875 0  -0.875 0.75 0  -1 0.625 0  -0.625 0.875 0  -0.375 1 0  -0.5 0.875 0  -0.875 0.625 0  -0.625 0.75 0  -0.75 0.625 0  -0.875 0.5 0  -1 0.375 0  -0.375 0.875 0  -0.125 1 0  -0.25 0.875 0  -0.625 0.625 0  -0.375 0.75 0  -0.5 0.625 0  -0.875 0.375 0  -0.625 0.5 0  -0.75 0.375 0  -0.875 0.25 0  -1 0.125 0  0.875 0.1250000000000001 0  0.875 0.2500000000000001 0  -0.125 0.875 0  -0.875 0.125 0  -0.75 0.125 0  -0.875 0 0  -1 -0.125 0  0.75 0.125 0  -0.875 -0.125 0  -0.75 -0.125 0  -0.875 -0.2500000000000001 0  0 0.375 0  -0.0625 0.4375 0  -0.375 0 0  -0.4375 0.0625 0  -0.875 -0.375 0  -0.0625 0.3125 0  -0.875 -0.625 0  -0.3125 0.0625 0  -0.75 -0.625 0  -0.625 -0.5 0  0 -0.03125 0  0.015625 0.015625 0  0.015625 0 0  -0.015625 0.015625 0  0 0.015625 0  -0.015625 0 0  -0.015625 -0.015625 0  -0.625 -0.625 0  0.046875 0.015625 0  0.015625 0.046875 0  -0.015625 0.046875 0  0 0.046875 0  -0.046875 0.015625 0  -0.046875 0 0  -0.046875 -0.015625 0  -0.015625 -0.046875 0  0.03125 0.015625 0  0.015625 0.03125 0  -0.015625 0.03125 0  -0.03125 0.015625 0  -0.03125 -0.015625 0  -0.03125 -0.0625 0  1 0.875 0  0.875 0.875 0  1 0.625 0  0.875 0.5 0  0.875 0.75 0  0.875 0.625 0  0.625 1 0  0.75 0.875 0  0.625 0.875 0  0.5 0.875 0  0.375 0.875 0  -0.125 0.75 0  -0.25 0.625 0  -0.1875 0.6875 0  0.75 0.625 0  0.625 0.75 0  0.6875 0.6875 0  0.375 0.75 0  0.5 0.625 0  0.5625 0.6875 0  0.4375 0.6875 0  0.3125 0.6875 0  -0.1875 0.5625 0  0.375 0 0  0.4375 0.0625 0  0.375 0.25 0  0.4375 0.1875 0  0.5625 0.1875 0  0.4375 0.3125 0  0.5 0.1875 0  -0.1875 0.3125 0  -0.3125 0.1875 0  -0.1875 0.25 0  -0.25 0.1875 0  -0.1875 0.1875 0  0.3125 0.1875 0  0.1875 0.3125 0  0.25 0.1875 0  0.1875 0.25 0  0.1875 0.1875 0  0.3125 0.3125 0  0.3125 0.0625 0  0.25 0.0625 0  0.0625 0.3125 0  -0.4375 -0.3125 0  -0.875 -0.875 0  -0.8749999999999999 -1 0  0 -0.015625 0  0.0078125 0.0078125 0  0.0078125 0 0  -0.0078125 0.0078125 0  0 0.0078125 0  -0.0078125 0 0  -0.0078125 -0.0078125 0  -0.75 -0.875 0  -0.625 -0.75 0  -0.25 -0.375 0  -0.3125 -0.1875 0  -0.1875 -0.3125 0  -0.3125 -0.25 0  -0.3125 -0.3125 0  -0.5 -0.625 0  -0.375 -0.5 0  -0.4375 -0.5625 0  -0.4375 -0.4375 0  -0.625 -0.875 0  -0.6249999999999999 -1 0  0 -0.375 0  -0.0625 -0.3125 0  -0.0625 -0.25 0  -0.4999999999999999 -0.875 0  -0.375 -0.75 0  -0.4375 -0.8125 0  -0.1875 -0.4375 0  -0.3125 -0.5625 0  -0.1875 -0.5 0  -0.1875 -0.5625 0  -0.3125 -0.4375 0  -0.3749999999999999 -0.9999999999999999 0  -0.4374999999999999 -0.9375 0  -0.0625 -0.4375 0  0.3125 0.125 0  0.4375 0.125 0  0.125 0.3125 0  -0.125 0.1875 0  -0.1875 0.125 0  0.1875 0.125 0  0.125 0.1875 0  -0.125 -0.4375 0  -0.125 -0.3125 0  -0.375 -0.3125 0  0 -0.046875 0  0.0234375 0.0078125 0  0.0078125 0.0234375 0  -0.0078125 0.0234375 0  0 0.0234375 0  -0.0234375 0.0078125 0  -0.0234375 0 0  -0.0234375 -0.0078125 0  -0.0078125 -0.0234375 0  -0.0078125 -0.0390625 0  0.015625 0.0078125 0  0.0078125 0.015625 0  -0.0078125 0.015625 0  -0.015625 0.0078125 0  -0.015625 -0.0078125 0  -0.015625 -0.03125 0  -0.6875 0.4375 0  1 0.1250000000000001 0  0.875 5.551115123125783e-17 0  0.9375 0.06250000000000008 0  0.9375 0.1875000000000001 0  0.375 1 0  0.125 1 0  0.25 0.875 0  0.1875 0.9375 0  0.3125 0.9375 0  0 0.875 0  0.0625 0.9375 0  -0.0625 0.9375 0  -0.4375 0.4375 0  -0.625 0.25 0  -0.6875 0.3125 0  -0.6875 0.1875 0  -0.8125 0.3125 0  -0.75 0.3125 0  0.625 0 0  0.6875 0.0625 0  0.8125 0.06250000000000003 0  0.75 0.0625 0  0.6875 0.1875 0  0.1875 0.8125 0  0.3125 0.8125 0  0.0625 0.8125 0  -0.0625 0.8125 0  -0.1875 0.4375 0  -0.3125 0.5625 0  -0.3125 0.5 0  -0.3125 0.4375 0  -0.25 0.4375 0  -0.1875 0.5 0  -0.4375 0.1875 0  -0.5625 0.3125 0  -0.5 0.3125 0  -0.4375 0.3125 0  -0.4375 0.25 0  -0.5625 0.1875 0  -0.5 0.1875 0  -1 -0.375 0  0.5625 0.0625 0  0.5 0.0625 0  0.1875 0.4375 0  0.1875 0.5625 0  0.3125 0.4375 0  0.1875 0.5 0  0.25 0.4375 0  0.0625 0.4375 0  0.0625 0.5625 0  0.0625 0.5 0  0 0.4375 0  -0.3125 0.3125 0  -0.25 0.3125 0  -0.3125 0.25 0  -0.4375 -0.0625 0  -0.5625 0.0625 0  -0.5625 -0.06250000000000001 0  -0.5 -0.0625 0  -0.4375 0 0  -0.75 -0.375 0  -0.6875 -0.3125 0  -0.8125 -0.3125 0  -1 -0.625 0  -0.875 -0.5 0  -0.9375 -0.4375 0  -0.9375 -0.5625 0  -0.875 -0.75 0  -0.9375 -0.6875 0  -0.25 0.0625 0  -0.3125 -0.0625 0  -0.25 -0.0625 0  -0.21875 -0.03125 0  -0.3125 0 0  -0.28125 0.03125 0  -0.4375 -0.1875 0  -0.5625 -0.1875 0  -0.5 -0.1875 0  -0.6875 -0.4375 0  -0.8125 -0.4375 0  -0.8125 -0.5625 0  0 -0.0078125 0  0.00390625 0.00390625 0  0.00390625 0 0  -0.00390625 0.00390625 0  0 0.00390625 0  -0.00390625 0 0  -0.00390625 -0.00390625 0  -0.8125 -0.6875 0  -0.25 -0.1875 0  -0.1875 -0.25 0  -0.21875 -0.21875 0  0 -0.1875 0  -0.03125 -0.21875 0  0.125 0.4375 0  0.1875 0.375 0  0.0625 0.375 0  -0.1875 0.375 0  -0.125 0.4375 0  -0.375 0.1875 0  -0.4375 0.125 0  -0.3125 -0.125 0  -0.4375 -0.125 0  -0.375 -0.1875 0  -0.375 -0.0625 0  -0.34375 -0.15625 0  -0.1875 -0.125 0  -0.21875 -0.09375 0  -0.21875 -0.15625 0  -0.28125 -0.15625 0  -0.15625 -0.09375 0  -0.15625 -0.15625 0  -0.09375 -0.15625 0  -0.6875 0.375 0  -0.375 0.4375 0  -0.4375 0.375 0  -0.3125 0.375 0  -0.375 0.3125 0  -0.03125 -0.15625 0  -0.15625 -0.21875 0  -0.09375 -0.21875 0  -0.125 -0.1875 0  0.5625 0.125 0  0.6875 0.125 0  0.125 0.5625 0  -0.5625 0.125 0  0.3125 0.375 0  -0.5625 -0.125 0  -0.34375 0.03125 0  -0.375 0.0625 0  0 -0.0234375 0  0.01171875 0.00390625 0  0.01171875 0 0  0.00390625 0.01171875 0  -0.00390625 0.01171875 0  0 0.01171875 0  -0.01171875 0.00390625 0  -0.01171875 0 0  -0.01171875 -0.00390625 0  -0.00390625 -0.01171875 0  -0.00390625 -0.01953125 0  0.0078125 0.00390625 0  0.00390625 0.0078125 0  -0.00390625 0.0078125 0  -0.0078125 0.00390625 0  -0.0078125 -0.00390625 0  -0.0078125 -0.015625 0  </DataArray>
</Points>
<Cells>
[...]
<PointData  Scalars="u"> 
<DataArray  type="Float64"  Name="u"  format="ascii">1.2601673996443916e+00  1.1549900297709645e+00  1.1549893068310868e+00  1.0523517801504794e+00  1.0400944474868472e+00  1.0523483748661373e+00  9.5474264249324514e-01  9.2455289500560633e-01  9.2441646712602776e-01  9.5476079656343837e-01  6.3003003786335399e-01  -9.6218957096361955e-05  1.6596566676583596e-01  3.2801921419720792e-01  4.8277866244421214e-01  6.7248329811548091e-01  7.2488517864078561e-01  7.8896857130266773e-01  8.6604878954371467e-01  8.1403257154030340e-01  7.9322380061592601e-01  8.1421338840779256e-01  8.6616323141750595e-01  5.1989578975219419e-01  8.6597559505546370e-05  1.8168297710206943e-01  3.5674485569280662e-01  5.6827843679475898e-01  6.3226721987087775e-01  7.1440744068698903e-01  6.6268628924337125e-01  6.6262054921624780e-01  7.1429939309270296e-01  7.8895449679700247e-01  3.9659595004400222e-01  1.3330234283143779e-04  2.0669173019891177e-01  4.5662053678973941e-01  5.4534759312826664e-01  4.9950877462318372e-01  5.4504775802689798e-01  6.3234054116431349e-01  7.2484063160404533e-01  2.4954159114815980e-01  3.3479960321745926e-04  3.4189942467621415e-01  6.7238724562384078e-01  3.4245225445374566e-01  4.5670992777489100e-01  5.6822017768692190e-01  6.3003294913823349e-01  1.8615058010351593e-03  5.1996033536759712e-01  2.4925289621927088e-01  3.9650015198074029e-01  4.8282996957703550e-01  4.4569223266410145e-04  3.5680715385848766e-01  2.0613531874114688e-01  3.2767466359248743e-01  6.5787009261192124e-04  1.8176076567155874e-01  1.6612255858973374e-01  3.1117103327200983e-04  -3.4275112893087653e-04  1.1495338375189755e-01  3.9797109744892983e-01  5.1275180847486246e-01  5.1270022300547669e-01  4.1714924190950819e-01  4.1747804705036046e-01  1.2975196490518934e-01  2.8605768344614763e-01  1.5766319543828139e-01  -4.0650354566532858e-04  3.1358008917995828e-01  2.1561627473347936e-01  3.9800515450207957e-01  2.1508509380426263e-01  2.8695791350529076e-01  1.5784025381773187e-01  1.1451647019215916e-01  2.8536424223286999e-01  1.0380711458977966e-01  1.9242161856986104e-01  2.5809349493067291e-01  9.7727056576243143e-02  -2.1654547394965188e-04  1.7314634930385653e-01  9.1439534330226266e-02  8.7278500202192744e-02  8.3165908183675710e-02  -1.2772418020162878e-04  7.9825368518017370e-01  7.9825366716012758e-01  7.2773083053479037e-01  7.2768864993039806e-01  6.5474309516148488e-01  5.8242133487125125e-01  5.8242719686520639e-01  7.1693234042024823e-02  1.7104211745919200e-04  2.5050921803710208e-01  3.2260473424432279e-01  2.8271993952346414e-01  3.2247728697607608e-01  2.8262915864695348e-01  2.5046078638537189e-01  -2.1888182725433861e-04  9.9466432407330038e-02  -2.4855135392877340e-04  1.9846875793775465e-01  1.3572438765589043e-01  1.3540113075744944e-01  9.8425840573993367e-02  1.2995824998227029e-01  2.0594573167726229e-01  7.1900058922134552e-02  8.0925320021408564e-02  1.8059543231822300e-01  2.6202613104437511e-01  2.6194628675725867e-01  1.8033391430059403e-01  2.5819228077846579e-01  7.5037034224748378e-01  4.6067263648919010e-01  2.7035264372369500e-01  9.7457880769284869e-02  1.9247896806764631e-01  3.7463794031081360e-01  2.8548002844202736e-01  5.1315580012157647e-01  6.7084535957122615e-01  5.4714063106628297e-01  5.8672306251499995e-01  6.8427906486308454e-01  6.3275726202862048e-01  6.0091131796055697e-01  6.8373977813899922e-01  6.0083774342712248e-01  6.3263238835529390e-01  3.0368394779242841e-01  4.2326065376094024e-01  3.2783098398039523e-01  1.0448673059594593e-01  4.9661487629300943e-01  3.5806513770691945e-01  5.8675961102014862e-01  4.9652447782321207e-01  5.4718619770153354e-01  5.1315490272839825e-01  3.5817575086135106e-01  4.2333528683218530e-01  4.4870686506737846e-05  6.2650334265877378e-02  -1.5677434659836669e-04  1.2502531121353674e-01  8.5448275808279378e-02  8.5265014246064794e-02  6.2032401949159287e-02  3.2764458689386750e-01  4.5664697610334780e-02  1.5736116484833462e-01  2.0271131572824880e-01  1.7783126043259015e-01  2.0266877323976107e-01  1.7778172847856147e-01  1.5758740675069888e-01  4.5570313719481705e-02  5.1030233717652786e-02  1.1374501356890024e-01  1.6473847893011853e-01  1.6472366118105916e-01  1.1372315827188180e-01  8.1419781134532063e-02  1.1524780115827018e+00  1.1035008852204227e+00  1.0977768021645748e+00  1.0977685104174508e+00  1.1035022477482914e+00  1.0428946090711391e+00  1.0028707512004760e+00  9.8931762496097087e-01  1.0429123424295259e+00  9.8224621939617296e-01  9.8219909947507156e-01  9.8923694758172798e-01  1.0028661202627231e+00  9.3627540574867840e-01  9.0910921767606745e-01  8.8578303304520645e-01  9.2053849074620142e-01  8.6860557316324771e-01  8.5945458297688704e-01  9.3623087239297409e-01  8.5964948945662512e-01  8.6876344021012231e-01  8.8588896827165931e-01  9.0910171266650663e-01  8.6945625457492334e-02  1.7331803164914170e-01  8.3728195216581458e-01  8.3728562555038433e-01  7.6252899831412024e-01  7.9207345269359986e-01  8.2581084329725063e-01  9.1655663561105355e-02  7.5032420426385205e-01  6.7101228279731517e-01  7.1247101073637431e-01  4.4991815653279743e-01  5.2776223353492391e-01  4.4984345051110713e-01  5.2739357787919516e-01  6.7855398648850462e-01  4.3056862502868604e-01  6.2126836525924722e-01  4.3044104816678935e-01  5.4243456580320948e-01  4.8479707439366304e-01  1.2310414990379995e-05  3.9428923451061824e-02  -5.3561989607658377e-05  7.8707912660509166e-02  5.3744539914497180e-02  5.3635229712813579e-02  3.9084121109149793e-02  4.6034998592423515e-01  2.8782445007556223e-02  9.9080777781823060e-02  1.2766988456890588e-01  1.1196555324269551e-01  1.2766239123004328e-01  1.1195946597551225e-01  9.9270071317173539e-02  2.8627635096152810e-02  3.2141034543641735e-02  7.1614701252387392e-02  1.0374395957222075e-01  1.0374464333575552e-01  7.1631185350333471e-02  5.1198760018808451e-02  5.5734666581394177e-01  5.7653124875868256e-01  4.0614194503405338e-01  3.4096636479976006e-01  5.0015649503681670e-01  4.2187016247337850e-01  6.9721325834702530e-01  5.9741991310389397e-01  6.2148398799489835e-01  6.4821760169411702e-01  6.7855052819362982e-01  7.6278704621368743e-01  7.4000878977513707e-01  7.5029351315348014e-01  4.3966363121127117e-01  5.4245626930876567e-01  4.9060182252394741e-01  5.9822774885193852e-01  4.8481037307545027e-01  5.1397741659577556e-01  5.4099881043114861e-01  5.7262274897471188e-01  6.7211347388583320e-01  3.6092168814120576e-06  5.4736542491920816e-02  2.2464257616537453e-01  1.6236903520052648e-01  1.5034169589344765e-01  2.6557427211429696e-01  1.5601959361912185e-01  5.0238060871569035e-01  5.0247718856398338e-01  4.5756878032762099e-01  4.5765754905876982e-01  4.1232152661836324e-01  1.7974212598345959e-01  3.2280913925190358e-01  1.9136218076390871e-01  2.6629361229939347e-01  2.0626680553973198e-01  2.8951723611183178e-01  6.1264549664253293e-02  6.5595503098291610e-02  3.6963153467255550e-01  3.9116138342772255e-01  5.7630532410104651e-01  5.5742501323472904e-01  1.0571183590930891e-05  2.4774287822557129e-02  -2.0948729958630968e-04  4.9507943343858531e-02  3.3761191715939630e-02  3.3553731450730026e-02  2.4676069960493548e-02  5.0041107102893312e-01  4.3970657831226806e-01  2.2446564738335828e-01  3.2308634442165141e-01  1.7952619521016708e-01  3.0503071684832372e-01  2.8958361820241790e-01  3.7448731841720356e-01  3.0373209668956347e-01  3.4013754573851157e-01  3.6295689536439490e-01  4.2172914902838127e-01  4.0614097359101925e-01  -4.6153480954158705e-06  6.1166256660217411e-02  6.5438363762629695e-02  3.4100340242988597e-01  2.7022631776348816e-01  3.0656122904303756e-01  1.6210471506869753e-01  2.4698376757214296e-01  1.5570156697117957e-01  1.5027883836689679e-01  2.6534355050583336e-01  2.4758293541366247e-01  2.9364265629404690e-01  5.4750717796622772e-02  1.2134662342844496e-01  1.0927575295988540e-01  3.4415067516341047e-01  3.6613286462996480e-01  3.6619505753778703e-01  1.4109695931532015e-01  2.2493171092745240e-01  1.0886469256866887e-01  1.2129090618301654e-01  3.4158315882285456e-01  1.1238740446651630e-04  1.8119448821474451e-02  6.2363528438384185e-02  8.0371913232654482e-02  7.0472870740227553e-02  8.0377681017417574e-02  7.0487288775387444e-02  6.2513126853201664e-02  1.8013994783247483e-02  1.5157735074802911e-02  2.0222001074068498e-02  4.5047572750416549e-02  6.5285758140449360e-02  6.5290013770042898e-02  4.5089745997503108e-02  3.2505978356449534e-02  8.6282107056789914e-01  8.3356904808447818e-02  1.0669073529600590e-04  4.2534135584830768e-02  1.2737720784363329e-01  7.5523976763337408e-01  8.2584973651469318e-01  7.1233479747229123e-01  7.6943007194920254e-01  7.3379711627578958e-01  7.9195392578562440e-01  8.0856010060886963e-01  8.5118487441855328e-01  7.2597412000013939e-01  7.3972047153009801e-01  8.0533667492618977e-01  7.5006655827232893e-01  8.7618279664118126e-01  8.4100608942956201e-01  2.0721227921911145e-06  4.7182178245526576e-02  4.4715903553097992e-02  4.5871915117095159e-02  1.4083719901160982e-01  6.9149406916724954e-01  6.5530944429710147e-01  7.3201813751328082e-01  7.7672827742639716e-01  5.8983798084908134e-01  7.3219892739442860e-01  6.9492759009552296e-01  6.5675531122437969e-01  6.2295203015700429e-01  6.3130794804903434e-01  5.8972625935234158e-01  7.3214512356135897e-01  6.9486351851704176e-01  6.5672544448112868e-01  6.2291967290539929e-01  6.7198997802301297e-01  6.3126106866005272e-01  7.5523156748043108e-01  5.0497722791849518e-02  5.2398568726881797e-02  4.2712677422981721e-01  5.2173926953120886e-01  3.9129342850394716e-01  4.7548530900118624e-01  4.0820190895100938e-01  4.7243897227070347e-01  5.6536376711096781e-01  5.2001921668853246e-01  4.9883014927486080e-01  5.7986109185087964e-01  5.4090182693796041e-01  5.4092803032510783e-01  4.7231072766401155e-01  6.1586415188266941e-01  5.6531358003189347e-01  5.1987661277803487e-01  4.9859994132986019e-01  5.9796249837779547e-01  5.7275725596882388e-01  6.5535803853887642e-01  6.9728527833280696e-01  6.4811477790556771e-01  7.0170055055861880e-01  6.7276706412125975e-01  5.9738111345389722e-01  6.4712638686631219e-01  3.7837512940486856e-01  3.6940453902229492e-01  3.1248421333960275e-01  2.9716050280020928e-01  3.9820524959840092e-01  3.8737287945121379e-01  4.2679712501775363e-01  5.2170647531479031e-01  4.7552540559536394e-01  5.4114689871839661e-01  6.2330542229984454e-01  5.9511906347540733e-01  -1.5722439505922134e-04  1.5721166966287808e-02  -4.0639915845681391e-04  3.1107646122329795e-02  2.0861523393822884e-02  2.0786942255537986e-02  1.5081167148282825e-02  5.7041980302415363e-01  2.6646047703164127e-01  1.9117357300491328e-01  2.2823997789478034e-01  -8.5847372815178007e-06  3.4495682847041138e-02  4.4855374336382214e-01  3.7647636863632639e-01  4.2239850459017048e-01  5.4674043985136045e-01  5.5768270506955631e-01  5.4678653149159961e-01  5.5754679750531733e-01  3.4440822372602492e-01  4.4844632124304046e-01  3.7644043509966851e-01  4.2234197922517708e-01  3.6054074415291565e-01  2.2496830640212553e-01  2.6890341866445516e-01  2.4628067772064230e-01  3.0525531664485561e-01  2.0332761953267370e-01  1.8237598275172126e-01  1.1273943297943420e-01  8.3378393991878064e-01  6.9136699627262033e-01  6.9134885496665044e-01  6.1848275931423258e-01  6.1847697217995756e-01  3.8265473307315563e-02  1.6705888922208506e-01  1.0206501169923884e-01  1.4094657686152512e-01  1.0061081746083979e-01  9.4314496988094867e-02  5.4259437519033815e-01  6.4312543950691536e-01  3.4170203185532172e-01  5.4257945926120954e-01  4.3949530023971434e-01  4.7982809407360810e-01  7.0120364619195283e-05  1.1340214848414886e-02  2.5804703914579246e-05  3.9182256450796343e-02  5.0543395095940850e-02  4.4277301826355989e-02  5.0546457794224509e-02  4.4285011317191321e-02  3.9290340878417818e-02  1.1340012301675554e-02  9.5520447089529215e-03  1.2805168664535158e-02  2.8183709134277139e-02  4.1059968255689562e-02  4.1055904842925928e-02  2.8176796631239204e-02  2.0480084787281010e-02  </DataArray> 
</PointData> 
</Piece>
</UnstructuredGrid>
</VTKFile>