<?xml version="1.0"?>
<VTKFile type="UnstructuredGrid"  version="0.1"  >
<UnstructuredGrid>
<Piece  NumberOfPoints="1140" NumberOfCells="2179">
<Points>
<DataArray  type="Float64"  NumberOfComponents="3"  format="ascii">-1 1 0  -0.75 1 0  -1 0.75 0  -0.5 1 0  -0.75 0.75 0  -1 0.5 0  -0.25 1 0  -0.5 0.75 0  -0.75 0.5 0  -1 0.25 0  1 1 0  1 1.110223024625157e-16 0  1 0.2500000000000001 0  1 0.5 0  1 0.75 0  0.75 1 0  0.5 1 0  0.25 1 0  0 1 0  -0.25 0.75 0  -0.5 0.5 0  -0.75 0.25 0  -1 0 0  0.75 0.75 0  0.75 0 0  0.75 0.25 0  0.75 0.5 0  0.5 0.75 0  0.25 0.75 0  0 0.75 0  -0.25 0.5 0  -0.5 0.25 0  -0.75 0 0  -1 -0.2500000000000001 0  0.5 0.5 0  0.5 0 0  0.5 0.25 0  0.25 0.5 0  0 0.5 0  -0.25 0.25 0  -0.5 0 0  -0.75 -0.2500000000000001 0  -1 -0.5 0  0.25 0.25 0  0.25 0 0  0 0.25 0  -1 -0.75 0  -0.25 0 0  -0.5 -0.25 0  -0.75 -0.5 0  -0.9999999999999999 -1 0  0 0 0  -0.75 -0.75 0  -0.25 -0.25 0  -0.5 -0.5 0  -0.7499999999999999 -1 0  0 -0.25 0  -0.5 -0.75 0  -0.25 -0.5 0  -0.4999999999999999 -0.9999999999999999 0  0 -0.5 0  -0.25 -0.75 0  -0.2499999999999999 -0.9999999999999999 0  0 -0.75 0  0 -0.9999999999999999 0  0.375 0.375 0  0.375 0.25 0  0.375 0.125 0  0.25 0.375 0  0.125 0.375 0  -0.125 0.375 0  -0.375 0.125 0  -0.125 0.25 0  -0.25 0.125 0  0.25 0.125 0  0.125 0.25 0  0.125 0.125 0  0.125 0 0  -0.125 0.125 0  0 0.125 0  -0.375 -0.125 0  -0.125 0 0  -0.25 -0.125 0  -0.375 -0.25 0  -0.125 -0.125 0  0 -0.125 0  -0.375 -0.375 0  -0.125 -0.25 0  -0.125 -0.375 0  0.1875 0.0625 0  0.0625 0.1875 0  -0.0625 0.1875 0  -0.1875 0.0625 0  -0.1875 0 0  -0.1875 -0.0625 0  0.0625 0.0625 0  0.0625 0 0  -0.0625 0.0625 0  0 0.0625 0  -0.0625 0 0  -0.0625 -0.0625 0  0 -0.0625 0  -0.625 -0.625 0  -0.5 -0.625 0  -0.375 -0.5 0  -0.0625 -0.1875 0  -0.375 -0.625 0  -0.375 -0.75 0  -0.125 -0.5 0  -0.25 -0.625 0  -0.3749999999999999 -0.875 0  -0.3749999999999999 -0.9999999999999999 0  -0.125 -0.625 0  0 -0.625 0  -0.2499999999999999 -0.875 0  -0.125 -0.75 0  -0.1249999999999999 -0.875 0  -0.1249999999999999 -0.9999999999999999 0  0 -0.875 0  0.125 0.0625 0  0.0625 0.125 0  -0.0625 0.125 0  -0.125 0.0625 0  -0.125 -0.0625 0  -0.0625 -0.125 0  -0.375 0.875 0  -0.625 0.625 0  -0.375 0.75 0  -0.5 0.625 0  -0.875 0.375 0  -0.625 0.5 0  -0.75 0.375 0  -0.125 0.875 0  -0.375 0.625 0  -0.125 0.75 0  -0.25 0.625 0  -0.625 0.375 0  -0.375 0.5 0  -0.5 0.375 0  -0.875 0.125 0  -0.625 0.25 0  -0.75 0.125 0  0.625 0.125 0  0.625 0.25 0  0.625 0.375 0  0.125 0.625 0  -0.125 0.625 0  0 0.625 0  -0.375 0.375 0  -0.125 0.5 0  -0.25 0.375 0  -0.625 0.125 0  -0.375 0.25 0  -0.5 0.125 0  -0.625 0 0  0.5 0.125 0  -0.625 -0.125 0  0.03125 0.03125 0  0.03125 0 0  -0.03125 0.03125 0  0 0.03125 0  -0.03125 0 0  -0.03125 -0.03125 0  0 -0.03125 0  0.09375 0.03125 0  0.03125 0.09375 0  -0.03125 0.09375 0  0 0.09375 0  -0.09375 0.03125 0  -0.09375 0 0  -0.09375 -0.03125 0  -0.03125 -0.09375 0  0.0625 0.03125 0  0.03125 0.0625 0  -0.03125 0.0625 0  -0.0625 0.03125 0  -0.0625 -0.03125 0  -0.03125 -0.0625 0  -0.875 0.875 0  -0.625 1 0  -0.75 0.875 0  -0.875 0.75 0  -0.625 0.875 0  -0.875 0.625 0  0.875 0.875 0  1 0.1250000000000001 0  0.875 5.551115123125783e-17 0  1 0.3750000000000001 0  0.875 0.1250000000000001 0  0.875 0.2500000000000001 0  1 0.625 0  0.875 0.375 0  0.875 0.5 0  0.875 0.75 0  0.875 0.625 0  0.75 0.875 0  0.625 0.875 0  0.5 0.875 0  0.375 0.875 0  0.25 0.875 0  0.125 0.875 0  0.75 0.625 0  0.625 0.75 0  0.625 0.625 0  0.75 0.125 0  0.75 0.375 0  0.375 0.75 0  0.5 0.625 0  0.375 0.625 0  0.125 0.75 0  0.25 0.625 0  -0.875 -0.125 0  -0.75 -0.125 0  -0.875 -0.2500000000000001 0  0.5 0.375 0  0.375 0.5 0  0.4375 0.4375 0  0.125 0.5 0  0.3125 0.4375 0  0 0.375 0  0.0625 0.4375 0  -0.0625 0.4375 0  -0.375 0 0  -0.5 -0.125 0  -0.4375 0.0625 0  -0.4375 -0.0625 0  -0.875 -0.375 0  -0.625 -0.25 0  -0.75 -0.375 0  -0.875 -0.5 0  0.0625 0.3125 0  -0.0625 0.3125 0  -0.875 -0.625 0  -0.3125 0.0625 0  -0.3125 -0.0625 0  -0.625 -0.375 0  -0.5 -0.375 0  -0.625 -0.5 0  0.015625 0.015625 0  0.015625 0 0  -0.015625 0.015625 0  0 0.015625 0  -0.015625 0 0  -0.015625 -0.015625 0  0 -0.015625 0  0.046875 0.015625 0  0.015625 0.046875 0  -0.015625 0.046875 0  0 0.046875 0  -0.046875 0.015625 0  -0.046875 0 0  -0.046875 -0.015625 0  -0.015625 -0.046875 0  0.03125 0.015625 0  0.015625 0.03125 0  -0.015625 0.03125 0  -0.03125 0.015625 0  -0.03125 -0.015625 0  -0.015625 -0.03125 0  0.625 0 0  0.6875 0.0625 0  0.625 0.5 0  0.6875 0.4375 0  -0.1875 0.4375 0  -0.4375 0.1875 0  0.5625 0.4375 0  0.375 0 0  0.4375 0.0625 0  0.5625 0.0625 0  0.5 0.0625 0  0.4375 0.1875 0  0.5625 0.1875 0  -0.1875 0.3125 0  -0.3125 0.1875 0  -0.1875 0.25 0  -0.25 0.1875 0  -0.1875 0.1875 0  -0.3125 0.3125 0  -0.25 0.3125 0  -0.3125 0.25 0  0.3125 0.3125 0  0.3125 0.25 0  0.3125 0.1875 0  0.1875 0.3125 0  0.25 0.1875 0  0.1875 0.25 0  0.1875 0.1875 0  0.3125 0.0625 0  0.25 0.0625 0  -1 -0.875 0  -0.875 -0.75 0  -0.4375 -0.3125 0  -0.75 -0.625 0  -0.875 -0.875 0  -0.8749999999999999 -1 0  0.0078125 0.0078125 0  0.0078125 0 0  -0.0078125 0.0078125 0  0 0.0078125 0  -0.0078125 0 0  -0.0078125 -0.0078125 0  0 -0.0078125 0  -0.75 -0.875 0  -0.625 -0.75 0  -0.6875 -0.6875 0  -0.25 -0.375 0  -0.3125 -0.1875 0  -0.25 -0.1875 0  -0.3125 -0.25 0  -0.1875 -0.1875 0  -0.3125 -0.3125 0  -0.1875 -0.25 0  -0.1875 -0.3125 0  -0.625 -0.875 0  -0.6249999999999999 -1 0  0 -0.375 0  -0.0625 -0.25 0  -0.0625 -0.3125 0  -0.4999999999999999 -0.875 0  -0.5625 -0.6875 0  -0.4375 -0.8125 0  -0.3125 -0.4375 0  -0.1875 -0.4375 0  -0.1875 -0.5 0  -0.1875 -0.5625 0  -0.4374999999999999 -0.9375 0  -0.0625 -0.4375 0  -0.0625 -0.5 0  -0.0625 -0.5625 0  0.375 0.1875 0  0.3125 0.125 0  0.4375 0.125 0  0.125 0.3125 0  -0.125 0.3125 0  -0.1875 0.375 0  -0.3125 0.125 0  -0.375 0.1875 0  -0.125 0.1875 0  -0.1875 0.125 0  0.1875 0.125 0  0.21875 0.09375 0  0.125 0.1875 0  0.15625 0.09375 0  -0.3125 -0.125 0  -0.1875 -0.125 0  -0.375 -0.3125 0  -0.125 -0.1875 0  -0.09375 -0.15625 0  -0.125 -0.3125 0  -0.09375 -0.21875 0  -0.125 -0.4375 0  0.5625 0.125 0  0.0234375 0.0078125 0  0.0078125 0.0234375 0  -0.0078125 0.0234375 0  0 0.0234375 0  -0.0234375 0.0078125 0  -0.0234375 0 0  -0.0234375 -0.0078125 0  -0.0078125 -0.0234375 0  0.015625 0.0078125 0  0.0078125 0.015625 0  -0.0078125 0.015625 0  -0.015625 0.0078125 0  -0.015625 -0.0078125 0  -0.0078125 -0.015625 0  -1 0.625 0  -0.9375 0.6875 0  -0.375 1 0  -0.5 0.875 0  -0.4375 0.9375 0  -0.5625 0.9375 0  -0.625 0.75 0  -0.75 0.625 0  -0.6875 0.6875 0  -0.6875 0.8125 0  -0.8125 0.6875 0  -0.875 0.5 0  -1 0.375 0  -0.9375 0.4375 0  -0.9375 0.5625 0  -0.125 1 0  -0.25 0.875 0  -0.3125 0.9375 0  -0.1875 0.9375 0  -0.4375 0.8125 0  -0.5625 0.6875 0  -0.5625 0.8125 0  -0.6875 0.5625 0  -0.8125 0.4375 0  -0.8125 0.5625 0  -0.875 0.25 0  -1 0.125 0  -0.9375 0.3125 0  -0.9375 0.1875 0  0.125 1 0  0 0.875 0  -0.0625 0.9375 0  0.0625 0.9375 0  -0.3125 0.8125 0  -0.1875 0.8125 0  -0.3125 0.6875 0  -0.1875 0.75 0  -0.1875 0.6875 0  -0.4375 0.5625 0  -0.5625 0.4375 0  -0.4375 0.5 0  -0.5 0.4375 0  -0.4375 0.4375 0  -0.8125 0.3125 0  -0.6875 0.3125 0  -0.8125 0.1875 0  -0.75 0.1875 0  -0.6875 0.1875 0  -0.875 0 0  -1 -0.125 0  -0.9375 0.0625 0  -0.9375 -0.06250000000000001 0  0.1875 0.8125 0  -0.0625 0.8125 0  0.0625 0.6875 0  -0.0625 0.6875 0  0.0625 0.8125 0  0.0625 0.75 0  -0.3125 0.5625 0  -0.25 0.5625 0  -0.3125 0.5 0  -0.1875 0.5625 0  -0.3125 0.4375 0  -0.25 0.4375 0  -0.5625 0.3125 0  -0.5 0.3125 0  -0.5625 0.25 0  -0.4375 0.3125 0  -0.5625 0.1875 0  -0.4375 0.25 0  -0.8125 0.0625 0  -0.6875 0.0625 0  -0.6875 -0.06250000000000001 0  -0.8125 -0.06250000000000001 0  -0.75 -0.06250000000000001 0  0.4375 0.3125 0  0.4375 0.25 0  0.25 0.4375 0  0.1875 0.4375 0  0.1875 0.5625 0  0.1875 0.5 0  0.0625 0.5625 0  -0.0625 0.5625 0  0 0.5625 0  -0.0625 0.5 0  0.0625 0.5 0  -0.5625 0.0625 0  -0.5 0.0625 0  -0.5625 0 0  -0.5625 -0.06250000000000001 0  -0.5 -0.0625 0  -0.8125 -0.1875000000000001 0  0.1875 0 0  0.21875 0.03125 0  -0.0625 0.25 0  0.0625 0.25 0  0 0.1875 0  0.03125 0.21875 0  -0.03125 0.21875 0  0 0.3125 0  0.03125 0.28125 0  -0.03125 0.28125 0  -0.25 0.0625 0  -0.25 -0.0625 0  -0.21875 0.03125 0  -0.21875 -0.03125 0  -0.3125 0 0  -0.28125 0.03125 0  -0.4375 -0.1875 0  -0.4375 -0.25 0  -0.5625 -0.1875 0  -0.5 -0.1875 0  0.00390625 0.00390625 0  0.00390625 0 0  -0.00390625 0.00390625 0  0 0.00390625 0  -0.00390625 0 0  -0.00390625 -0.00390625 0  0 -0.00390625 0  0 -0.1875 0  -0.03125 -0.21875 0  0.375 0.3125 0  0.1875 0.375 0  0.125 0.4375 0  -0.09375 0.21875 0  -0.21875 0.09375 0  0.09375 0.21875 0  0.09375 0.28125 0  0.09375 0.15625 0  0.15625 0.03125 0  0.03125 0.15625 0  -0.03125 0.15625 0  0.03125 0.125 0  -0.375 -0.1875 0  -0.4375 -0.125 0  -0.21875 -0.09375 0  -0.03125 -0.15625 0  0.0625 0.15625 0  -0.125 0.8125 0  -0.3125 0.625 0  -0.625 0.3125 0  -0.375 0.4375 0  -0.4375 0.375 0  -0.8125 0.125 0  0.125 0.5625 0  -0.0625 0.625 0  -0.125 0.5625 0  -0.3125 0.375 0  -0.375 0.3125 0  -0.5625 0.125 0  -0.625 0.0625 0  -0.5625 -0.125 0  0.125 0.8125 0  -0.8125 -0.125 0  -0.03125 0.34375 0  -0.0625 0.375 0  -0.34375 0.03125 0  -0.375 0.0625 0  0.01171875 0.00390625 0  0.00390625 0.01171875 0  -0.00390625 0.01171875 0  0 0.01171875 0  -0.01171875 0.00390625 0  -0.01171875 0 0  -0.01171875 -0.00390625 0  -0.00390625 -0.01171875 0  0.0078125 0.00390625 0  0.00390625 0.0078125 0  -0.00390625 0.0078125 0  -0.0078125 0.00390625 0  -0.0078125 -0.00390625 0  -0.00390625 -0.0078125 0  -0.875 1 0  -1 0.875 0  -0.9375 0.9375 0  -0.8125 0.9375 0  -0.9375 0.8125 0  1 0.875 0  0.875 1 0  0.9375 0.9375 0  0.9375 0.06250000000000008 0  0.9375 0.1875000000000001 0  0.9375 0.3125000000000001 0  0.9375 0.8125 0  0.9375 0.75 0  0.9375 0.6875 0  0.625 1 0  0.8125 0.9375 0  0.75 0.9375 0  0.6875 0.9375 0  0.375 1 0  0.5625 0.9375 0  0.5 0.9375 0  0.4375 0.9375 0  0.3125 0.9375 0  0.25 0.9375 0  0.1875 0.9375 0  0.8125 0.8125 0  0.6875 0.8125 0  0.8125 2.775557561562891e-17 0  0.8125 0.06250000000000003 0  0.75 0.0625 0  0.
[...]
<PointData  Scalars="u"> 
<DataArray  type="Float64"  Name="u"  format="ascii">1.2599823700540675e+00  1.1551568550205393e+00  1.1551531932984560e+00  1.0524705892110038e+00  1.0400013706274702e+00  1.0524721611884218e+00  9.5484401257986795e-01  9.2487246470319229e-01  9.2487422634835015e-01  9.5484399972419176e-01  6.3007064935750035e-01  -9.6094894179677817e-05  1.6598427628564236e-01  3.2772621113209044e-01  4.8278613571996182e-01  6.7245022695167689e-01  7.2473346944528561e-01  7.8885154090760545e-01  8.6604868501334709e-01  8.1444583027946071e-01  7.9375304135840508e-01  8.1455130216063143e-01  8.6604870141160772e-01  5.2001910228082060e-01  7.6626641960661951e-05  1.8192393628109696e-01  3.5649559773951578e-01  5.6848060187979121e-01  6.3249148992669257e-01  7.1467613263754692e-01  6.6271976034992042e-01  6.6271720132660661e-01  7.1467030691844136e-01  7.8885277306185264e-01  3.9671110976913010e-01  -1.4807677398044495e-05  2.0644139686822066e-01  4.5654993374506786e-01  5.4523770275377192e-01  5.0004602562536415e-01  5.4522282011770473e-01  6.3248543077314778e-01  7.2473598315404131e-01  2.4988701823498022e-01  1.1633458249257312e-04  3.4315442063037915e-01  6.7245633067454802e-01  3.4341594645720641e-01  4.5652570213484539e-01  5.6848067974314009e-01  6.2998129441827433e-01  7.3174299880119156e-04  5.1996159168505263e-01  2.4997760059888768e-01  3.9666956526419289e-01  4.8271891661567917e-01  1.1637280729374775e-04  3.5656711941993585e-01  2.0641234423221685e-01  3.2777113694482107e-01  1.3669384804661957e-04  1.8193394429576729e-01  1.6599433231112620e-01  8.4281234252584359e-05  -9.6165195189872483e-05  3.2752212431988476e-01  2.2443432288460155e-01  1.1446956856388260e-01  3.5784059251424788e-01  3.9829635674832908e-01  5.1290512917049758e-01  5.1280704790505827e-01  4.1746384221704858e-01  4.1746986315162454e-01  1.2994580035637660e-01  2.8722739805409664e-01  1.5748109205666277e-01  -6.6215424856047521e-05  3.1450727387473149e-01  2.1630756026696984e-01  3.9827889123053700e-01  2.1600504752341548e-01  2.8747731120482217e-01  3.5802472111860600e-01  1.5747449226406335e-01  -6.6249617364679583e-05  3.2762798643811109e-01  1.2989700140193322e-01  1.1447869915243995e-01  7.2109176838125261e-02  2.5047523098816898e-01  3.2276654563784918e-01  3.2292052762932255e-01  2.8299474388978807e-01  2.5058190084256216e-01  9.9510109818461034e-02  -3.3488345561064552e-04  1.9819475495043368e-01  1.3577244387520909e-01  1.3552606991020300e-01  9.9521186149340995e-02  -3.3504041961707930e-04  4.6039130994181671e-01  3.7483600478552309e-01  3.0384506853112120e-01  7.2108586687580661e-02  2.8550507600926439e-01  2.7044377067097547e-01  1.0450905357525392e-01  1.9261897277439832e-01  2.5804530803008691e-01  2.4755443475364899e-01  9.7092580681066770e-02  -1.8453503715516211e-04  1.7319256176862358e-01  9.1469575609680859e-02  8.7051211733128395e-02  8.3195185492942608e-02  -8.3680907680876206e-05  8.1453285069219311e-02  1.8080216057693224e-01  2.6272027500056233e-01  2.6280742488839609e-01  1.8078760884603168e-01  8.1453660719504592e-02  9.3659967373829811e-01  9.2089969057452969e-01  8.6864356824545685e-01  8.5962060333778456e-01  9.3658522699106661e-01  8.5962105097259289e-01  8.6864303783519115e-01  8.3734684744139298e-01  7.9893281775184277e-01  7.6273794912322779e-01  7.4019748884164260e-01  7.9903561165367576e-01  7.2763895221462049e-01  7.2763813449953119e-01  8.3736511707513406e-01  7.4019485963571474e-01  7.6273443971701460e-01  9.7268936358897343e-02  1.9266415998273381e-01  2.8544549420647092e-01  5.8720664063578409e-01  6.8422864134562356e-01  6.3294437431769590e-01  6.5483588350997968e-01  6.0120284812179003e-01  5.8262221350065813e-01  6.8414044142067976e-01  5.8262116196165481e-01  6.0119652073767305e-01  6.3286395996145062e-01  1.0440547805691414e-01  5.8716184866791254e-01  6.2718300714462910e-02  -1.5475763694618833e-04  1.2503388366179816e-01  8.5511707051150854e-02  8.5334905036962366e-02  6.2731289701626558e-02  -1.5475720052524896e-04  4.5389203669710498e-02  1.5756641371906766e-01  2.0290654214531503e-01  1.7801427106246698e-01  2.0273393218145072e-01  1.7812110394369138e-01  1.5789489393859257e-01  4.5391758074816650e-02  5.1073418467996408e-02  1.1376743100455319e-01  1.6465626203674497e-01  1.6467103793792917e-01  1.1379349027499000e-01  5.1079326386125584e-02  1.1525644943227129e+00  1.1034841663847159e+00  1.0977677869958173e+00  1.0977812882227846e+00  1.0431247677837725e+00  1.0431507968670810e+00  5.7629246153057900e-01  8.3171120516133942e-02  -6.2315866728590688e-05  2.4750163832698285e-01  8.7043844483459684e-02  1.7311570348593514e-01  4.0612813178031965e-01  2.5811877301047570e-01  3.4090763484170650e-01  5.0020259563805269e-01  4.2175913219757244e-01  5.9744682082145995e-01  6.2151759737703383e-01  6.4827485766965220e-01  6.7868193502217944e-01  7.1245580678969245e-01  7.5034417171123491e-01  4.3965697759852468e-01  5.4253208297831357e-01  4.6051685145307059e-01  9.1462189930291787e-02  2.7053834753677419e-01  5.9827289058588107e-01  4.8472320551022879e-01  5.1346113841324625e-01  6.7118800424322644e-01  5.4744130121545165e-01  7.5034165336978620e-01  6.7118232446196979e-01  7.1257974687454695e-01  3.0408485951472491e-01  4.2345518521552356e-01  3.6295290487368426e-01  4.9676904307336078e-01  3.9125291639273191e-01  4.5007041358996436e-01  4.7271694488024751e-01  5.2726958562249493e-01  4.5004939737795496e-01  4.9678779362962860e-01  5.2725922832278305e-01  4.7269284753603102e-01  6.7866981515981484e-01  5.4734915786131766e-01  5.9826982064058831e-01  6.4833509553396096e-01  3.6976589028125845e-01  4.3085280075766819e-01  6.2147967502094570e-01  4.3083431206284961e-01  3.6957571420480212e-01  5.1346149800442620e-01  4.2345984689328769e-01  4.8478980208305755e-01  3.9493605624439522e-02  -9.8754054175006397e-05  7.8786254842606637e-02  5.3861120002467351e-02  5.3745701159639135e-02  3.9500168696102927e-02  -9.8745823609734860e-05  2.8790631957040742e-02  9.9132337536638582e-02  1.2768133769031867e-01  1.1201062206016556e-01  1.2770016530749448e-01  1.1203808304511945e-01  9.9349898947631202e-02  2.8795389599262238e-02  3.2192131671086338e-02  7.1680696172360059e-02  1.0378492555468496e-01  1.0379318851384793e-01  7.1695615134907700e-02  3.2198164358747110e-02  1.5040271012974749e-06  4.7027792695980251e-02  3.7485178213005355e-01  3.2180862727201276e-01  5.8977990836630978e-01  5.8972719958696995e-01  3.4008574447244955e-01  2.6057437465785866e-06  5.4538514930705190e-02  5.0423270572729724e-02  5.2471143707983198e-02  1.6258334685487305e-01  1.5021883955597551e-01  5.0319421331845904e-01  5.0319438905342306e-01  4.5815740014825151e-01  4.5815811733552136e-01  4.1251579484776124e-01  5.8004688722173325e-01  5.4111780043349500e-01  5.4111761510871614e-01  2.8992419157788041e-01  2.3598965910035072e-01  1.7975853951888032e-01  3.2321631429123832e-01  1.9158802742605757e-01  2.6662493438078122e-01  2.0623319132324891e-01  6.1238104457602624e-02  6.5712988220600732e-02  6.5010603977146408e-01  5.9755418114522330e-01  3.9138576936988578e-01  5.4255515763844331e-01  5.7628329833914715e-01  5.5732234025074423e-01  2.4867483432917135e-02  -6.2045854190312605e-05  4.9623355313134443e-02  3.3912557333715024e-02  3.3838375519844699e-02  2.4870282155721773e-02  -6.2041269787762535e-05  5.0021759773814589e-01  4.3961227925005608e-01  4.9081237770405556e-01  2.2444798057361601e-01  3.2325398386014492e-01  2.6667446213697094e-01  3.0529070825007626e-01  2.0617310626113025e-01  2.8976335308064072e-01  1.9149128441312191e-01  1.7961045309856935e-01  4.2172577034899567e-01  4.0612508405313907e-01  2.6684746218307425e-06  6.5683893346903291e-02  6.1279187593940500e-02  3.4094801151436477e-01  4.0798428096147632e-01  3.0651084639149806e-01  2.6559840166624793e-01  1.6250413256400101e-01  1.5594990369306624e-01  1.5031364495314400e-01  2.9360656482645880e-01  5.4668178289653535e-02  5.2235631111485957e-02  5.0420487639395280e-02  1.7024636382552108e-01  1.2145347520168684e-01  1.0902289888746949e-01  3.4465281520014435e-01  4.6615297743635503e-01  5.4694273559656703e-01  4.6615568404776064e-01  5.4694135724383786e-01  3.6662185283171084e-01  3.6668569046921567e-01  1.4119608690198490e-01  1.0226100179400827e-01  2.2529574464999941e-01  1.1314312244841584e-01  3.4465784055477727e-01  2.2528806632414070e-01  3.4165648432158208e-01  1.4119795422632572e-01  1.1314214262709962e-01  1.2143708172799060e-01  1.0244350932815614e-01  1.0900164743142474e-01  1.0060798761506520e-01  1.8152101462255453e-02  6.2440516330017320e-02  8.0445691958659957e-02  7.0554847341950833e-02  8.0452540882736526e-02  7.0563885242256041e-02  6.2572874024871508e-02  1.8155250442594723e-02  2.0265656811773197e-02  4.5143577561000695e-02  6.5384426184956435e-02  6.5387364898777459e-02  4.5149718531321222e-02  2.0268819547927707e-02  1.1034380335377736e+00  1.0998911483134790e+00  1.0028292469865110e+00  9.8923313711954652e-01  9.9518027425045352e-01  1.0471487136936966e+00  9.8223897856391618e-01  9.8224637676988380e-01  9.8128066022102112e-01  1.0407820130789283e+00  1.0408032510294600e+00  9.8923093649865568e-01  1.0028292253902054e+00  9.9527152939703178e-01  1.0471395715420355e+00  9.0909563831186446e-01  8.8574762026167819e-01  9.4508618439674374e-01  8.9660805719483272e-01  9.2991858706038311e-01  9.2196402460188465e-01  9.8487129017132702e-01  9.2196655983056408e-01  9.2991859247664677e-01  9.8486771069189716e-01  8.8574658125831141e-01  9.0909563789819636e-01  9.4508579697937023e-01  8.9677353822239469e-01  8.2573913056387671e-01  7.9202388893113818e-01  8.5103460301074119e-01  8.0857875920780431e-01  8.7643938813461619e-01  8.2503218154505775e-01  8.0551657161760992e-01  7.8806771014710997e-01  7.5029020253272238e-01  7.9498488184714078e-01  7.9498456458521805e-01  7.6040841631757372e-01  7.6040814356076381e-01  7.2599689668909673e-01  8.7643516992127690e-01  8.0551510310262653e-01  8.2503010252751519e-01  7.8806498649692935e-01  7.5027930330467052e-01  7.9202139994910770e-01  8.2568542858163352e-01  8.5103354045284141e-01  8.0857752151714724e-01  6.9166044109801561e-01  7.7675414759365236e-01  6.5149591692283981e-01  6.9862037630276230e-01  7.3218138908106245e-01  6.9240485025006437e-01  7.3241501396857944e-01  7.0178567954322268e-01  6.9496596991665094e-01  6.7224808493415367e-01  6.5685176406073242e-01  6.2315594761630722e-01  7.3245632336785516e-01  6.9496441117119256e-01  7.0178291838342022e-01  6.5685065223543115e-01  6.7224395555841721e-01  6.2315397406709294e-01  7.7675252221631397e-01  6.9861504714694067e-01  6.5151296351900245e-01  7.3217719246942248e-01  6.9239823850494331e-01  2.6558904082338641e-01  2.1478334892986406e-01  4.0830951997972798e-01  4.2744964546324221e-01  5.2200939305305571e-01  4.7566083167839907e-01  5.6557470169083157e-01  6.1599959755095168e-01  5.8999302361838091e-01  5.7261256916431069e-01  5.2015844884470996e-01  6.1609996256458011e-01  5.7260275558755314e-01  5.8998351672094873e-01  5.6555501421912335e-01  5.2013510026266618e-01  6.9165713470997425e-01  5.7503378186409138e-06  3.4541391510090697e-02  3.7865919649024821e-01  3.1296515032887706e-01  2.8316118981889576e-01  2.9769142468067267e-01  3.3179767918735209e-01  3.9868701522881822e-01  3.5600927599858911e-01  3.8794742709888952e-01  3.7868711458737669e-01  3.1294471535049878e-01  3.3187380922247006e-01  2.9755937527993759e-01  3.9869152715975703e-01  3.8798028278808488e-01  4.2727043788081426e-01  4.0827849370384117e-01  5.2191969394262672e-01  4.7570802352706587e-01  1.5649308146486799e-02  -3.7199439287365192e-05  3.1237261113774395e-02  2.1329569041122071e-02  2.1281329932172188e-02  1.5650447949742876e-02  -3.7197479414101736e-05  5.7454805087293211e-06  3.4540753398201035e-02  2.7689928191811236e-01  3.7672745905072280e-01  4.4877284971006121e-01  3.7143153582367494e-01  3.7137558083147398e-01  2.6915613118079729e-01  3.2852774277743457e-01  2.0373190344389175e-01  3.8308067997567856e-02  2.3315890181974358e-01  2.7121642095327031e-01  1.9685502729694779e-01  3.7669783228713727e-01  4.4873292162084893e-01  2.6903890058955654e-01  3.8308062085543521e-02  2.1702707148460293e-01  8.0049497827378091e-01  7.6929223209685049e-01  7.6929055719880590e-01  6.9139337244018528e-01  6.9139288621624528e-01  8.0049232168461426e-01  5.4285330381913632e-01  6.5797406719363782e-01  6.4350330754420682e-01  6.1862930670110283e-01  6.1862876483121032e-01  6.4349744314278301e-01  6.5796779733840882e-01  5.4287022368090310e-01  7.1135086044778473e-01  7.1134687663264662e-01  4.3987495088841294e-01  4.8016333277282375e-01  4.3987171037788497e-01  4.8015826850291371e-01  1.1426788298618963e-02  3.9322665541079591e-02  5.0669826390152620e-02  4.4435401763961803e-02  5.0672306973979758e-02  4.4438753370584949e-02  3.9403778885317882e-02  1.1428268913373476e-02  1.2758041959726593e-02  2.8423185187694586e-02  4.1174793538905914e-02  4.1175882580615025e-02  2.8425652151766276e-02  1.2759417443995677e-02  1.2074506609168461e+00  1.2074521971652432e+00  1.2068075191311449e+00  1.1532226427004038e+00  1.1532367732792006e+00  5.5732412594162839e-01  6.5012789008637728e-01  6.0346000473752714e-01  4.2567471400481477e-02  1.2739017578046530e-01  2.1125280870876034e-01  5.2916364278985317e-01  4.9120368084629346e-01  4.5265286831392765e-01  6.9728527812532315e-01  6.2408175419723433e-01  6.3526296772060620e-01  6.4715167121603268e-01  7.5528376906899208e-01  6.7289174019955078e-01  6.8689122854621809e-01  7.0170316102360097e-01  7.3377229500037033e-01  7.5114419321594927e-01  7.6949720231755447e-01  5.4859475330616325e-01  5.7040347761679666e-01  -3.4283634341997052e-05  4.4686838785951553e-02  4.5776802707561598e-02  1.4092649038306865e-01  1.8707483409205605e-01  2.3258698302561809e-01  1.3347711884517879e-01  1.7734452650195820e-01  2.2096388218137009e-01  1.3686611225486506e-01  2.2653463888988556e-01  3.0649553754827508e-01  4.0799279393951882e-01  6.2343692774181669e-01  5.1406227144826233e-01  5.8284536045934676e-01  5.2714367606416668e-01  5.4122610001583060e-01  6.0947460804069464e-01  6.5537836467577693e-01  6.1474358841541443e-01  5.7283615158540591e-01  5.9056383052453099e-01  7.5513632297474642e-01  7.6940384038631071e-01  7.5114256468560792e-01  7.3379494690340363e-01  4.2925494484352705e-01  4.4134345062896740e-01  4.5463722976638943e-01  4.0944032056237367e-01  3.8521839557515375e-01  1.0581976872477247e-04  1.9898774680003925e-01  2.4718059788656904e-01  2.5579722512766628e-01  4.8517766410754259e-01  5.0275177466304188e-01  4.3916467844294366e-01  4.9888386871665213e-01  5.0930402862399526e-01  4.9886565070861455e-01  5.0928408078415310e-01  6.0947162280592460e-01  6.5537664625296865e-01  5.9051738746730420e-01  6.1474090493151945e-01  5.7287946170838933e-01  6.9717795100602675e-01  7.0166829576853362e-01  6.8689001265315153e-01  6.7293428820733381e-01  -6.5844276844244627e-06  3.1684479364899348e-02  5.0273666751811408e-01  4.8527167566355267e-01  4.3913581005493513e-01  5.1410081783824535e-01  6.2343668767544969e-01  5.8284361651376337e-01  5.4122247849062388e-01  5.2713984824867155e-01  9.8311808895851487e-03  -8.2735006235646724e-05  1.9648571292124967e-02  1.3397216026851882e-02  1.3321978801814986e-02  9.8316367076074756e-03  -8.2731724674541340e-05  2.3604795782848564e-01  2.1424834197656242e-01  3.6293034017788661e-01  4.2920779493754480e-01  3.8527528125209010e-01  3.5099343709683151e-01  3.4017556291533785e-01  4.5465033603527411e-01  4.0948190609494450e-01  4.4133871648985218e-01  -6.5686182198670215e-06  3.1687183061763657e-02  3.6522944591268947e-01  3.2183148625564845e-01  2.5576987374963439e-01  2.4726710370770313e-01  1.9907182388461409e-01  2.1459716129007902e-01  1.0701582775635022e-04  2.3259204800203670e-01  2.2654024788985752e-01  1.8707943203897440e-01  2.2090466329890690e-01  1.4089848785607093e-01  1.7742248640915276e-01  1.3696731679525548e-01  1.3336328730070937e-01  1.2738146599880606e-01  4.7115297438861434e-02  3.9417210014066778e-05  4.5888485860310163e-02  4.4582586806594410e-02  -3.5254437384027547e-05  4.2567559246257436e-02  1.2972150567153395e-01  1.2033582519573290e-01  1.6789234679084214e-01  4.1356351260999007e-02  3.1668763025473190e-01  3.1661945827062160e-01  2.5976154704234938e-01  2.8846410817828150e-01  2.8847193480513816e-01  3.6511767975222814e-01  3.4085797413068664e-01  2.7122717427641996e-01  2.5086127095309796e-01  2.3286059346985807e-01  2.3819633403443197e-01  1.9684527028947058e-01  2.0370708821786365e-01  1.2971950967393223e-01  1.6788039423300638e-01  1.2033404489820096e-01  4.1356995980647564e-02  3.1493960933421089e-01  3.7635630800442677e-01  2.9624056308933938e-01  2.9338375343826434e-01  3.0236012195307227e-01  2.9343784173275855e-01  3.4438015986557080e-01  2.1697515280827162e-01  8.8732082369648232e-02  1.4180670005170962e-01  7.1063547644281619e-02  2.3079268935939248e-01  2.3067089198236193e-01  1.4181254508011218e-01  8.8734778645215034e-02  7.1068990677188582e-02  4.7212960662945397e-01  3.3057688815296055e-01  2.9418128433454283e-01  2.8505172251226413e-01  2.7758381633790058e-01  2.3947742325412380e-01  2.6406219330494168e-01  1.4517379415196308e-01  4.8756778701624190e-02  9.4120221571729348e-02  1.3022080847376738e-01  8.9208262703111774e-02  4.3515401518649688e-02  6.4219689164944582e-02  6.4221211182798693e-02  1.4519431396965810e-01  9.4198389236715668e-02  2.3948745730031207e-01  2.7763541482895421e-01  2.9423214251685570e-01  5.6645475527272449e-01  5.6644466317728637e-01  5.3853580193953987e-01  4.3515793247022198e-02  1.3023416203920238e-01  8.9115559910797185e-02  2.1582683756399473e-01  2.6396189167263356e-01  6.0910890399392958e-01  6.6300791731424980e-01  6.9509028094057534e-01  6.3891760448276602e-01  4.7212310940378144e-01  4.1808276928843013e-01  5.5646102826697830e-01  4.9853308063899204e-01  5.2974124686093726e-01  4.6921535398994113e-01  6.9509345243887510e-01  4.6117689643725063e-01  4.1030584399246417e-01  4.2258748010682501e-01  4.6115202481076528e-01  4.1026066154238461e-01  4.2254683485223310e-01  6.3891273760253664e-01  6.6301706674327265e-01  5.2973367875732791e-01  5.5645499271038013e-01  4.6921287653203730e-01  4.9853097253238771e-01  2.8058398376466946e-02  2.9768733110075940e-02  5.7746563890480239e-02  7.1919439226280982e-03  2.4750943084115649e-02  3.1898030087935014e-02  2.7969120067739141e-02  3.1898972925108578e-02  2.7970414874306619e-02  2.4801339926598373e-02  7.1925674205648915e-03  2.0253067630795415e-01  1.9298195441436464e-01  2.7683875139552588e-01  1.7035384698008937e-01  2.9768891719442334e-02  2.8056220956751653e-02  5.7748185365802063e-02  8.0275188108810472e-03  1.7878119779653309e-02  2.5910320413442003e-02  2.5910739523069375e-02  1.7879103037079978e-02  8.0280827551222587e-03  1.1292250668476829e+00  1.1265341791645167e+00  1.0999150520697851e+00  1.0970446803674641e+00  1.0688462280381941e+00  1.0688409387952185e+00  8.9665826522800995e-01  8.9240634921206630e-01  8.6310644825582061e-01  9.5718771538309666e-01  9.2720110124766997e-01  8.9240754789576759e-01  8.9665867288804424e-01  8.6313196684354099e-01  9.5718884734215592e-01  9.2720196819978473e-01  2.8780688650043490e-01  3.6716918220343464e-01  2.9364490972906587e-01  3.3408405523802548e-01  3.7414316882771609e-01  8.5850376473724765e-01  8.2660153520781354e-01  8.2660157422118341e-01  7.9395314532126560e-01  7.9395300672024294e-01  5.0980855112350110e-01  4.7036361563567475e-01  5.5911327075751638e-01  4.8020968974144074e-01  5.3094461383984914e-01  4.9075102923924463e-01  5.4509688557412750e-01  5.6950259024481214e-05  3.4842165086288229e-01  3.8974062426031331e-01  3.9844019909235612e-01  3.1373486938882572e-01  3.3127270537600112e-01  5.9526081279795795e-01  6.0886632618381498e-01  5.5508398991326613e-01  5.4120345672349623e-01  6.5122504683816496e-01  7.3827240680038353e-01  6.7435897979589943e-01  7.5397806049256200e-01  7.4592563018909863e-01  7.0649127768711828e-01  6