<?xml version="1.0"?>
<VTKFile type="UnstructuredGrid"  version="0.1"  >
<UnstructuredGrid>
<Piece  NumberOfPoints="1439" NumberOfCells="2751">
<Points>
<DataArray  type="Float64"  NumberOfComponents="3"  format="ascii">-1 1 0  -0.75 1 0  -1 0.75 0  -0.5 1 0  -0.75 0.75 0  -1 0.5 0  -0.25 1 0  -0.5 0.75 0  -0.75 0.5 0  -1 0.25 0  1 1 0  1 1.110223024625157e-16 0  1 0.2500000000000001 0  1 0.5 0  1 0.75 0  0.75 1 0  0.5 1 0  0.25 1 0  0 1 0  -0.25 0.75 0  -0.5 0.5 0  -0.75 0.25 0  -1 0 0  0.75 0.75 0  0.75 0 0  0.75 0.25 0  0.75 0.5 0  0.5 0.75 0  0.25 0.75 0  0 0.75 0  -0.25 0.5 0  -0.5 0.25 0  -0.75 0 0  -1 -0.2500000000000001 0  0.5 0.5 0  0.5 0 0  0.5 0.25 0  0.25 0.5 0  0 0.5 0  -0.25 0.25 0  -0.5 0 0  -0.75 -0.2500000000000001 0  -1 -0.5 0  0.25 0.25 0  0.25 0 0  0 0.25 0  -1 -0.75 0  -0.25 0 0  -0.5 -0.25 0  -0.75 -0.5 0  -0.9999999999999999 -1 0  0 0 0  -0.75 -0.75 0  -0.25 -0.25 0  -0.5 -0.5 0  -0.7499999999999999 -1 0  0 -0.25 0  -0.5 -0.75 0  -0.25 -0.5 0  -0.4999999999999999 -0.9999999999999999 0  0 -0.5 0  -0.25 -0.75 0  -0.2499999999999999 -0.9999999999999999 0  0 -0.75 0  0 -0.9999999999999999 0  0.375 0.125 0  0.125 0.375 0  -0.125 0.375 0  -0.375 0.125 0  -0.125 0.25 0  -0.25 0.125 0  0.25 0.125 0  0.125 0.25 0  0.125 0.125 0  0.125 0 0  -0.125 0.125 0  0 0.125 0  -0.375 -0.125 0  -0.125 0 0  -0.25 -0.125 0  -0.125 -0.125 0  -0.125 -0.375 0  -0.375 -0.625 0  -0.125 -0.5 0  -0.25 -0.625 0  -0.3749999999999999 -0.875 0  -0.125 -0.625 0  0 -0.625 0  -0.2499999999999999 -0.875 0  -0.125 -0.75 0  -0.1249999999999999 -0.875 0  -0.1249999999999999 -0.9999999999999999 0  0 -0.875 0  -0.375 0.625 0  -0.625 0.375 0  -0.375 0.5 0  -0.5 0.375 0  -0.375 0.375 0  -0.25 0.375 0  -0.375 0.25 0  0.1875 0.0625 0  0.1875 0 0  0.0625 0.1875 0  -0.0625 0.1875 0  0 0.1875 0  -0.1875 0.0625 0  -0.1875 0 0  -0.1875 -0.0625 0  0 -0.125 0  0.0625 0.0625 0  0.0625 0 0  -0.0625 0.0625 0  0 0.0625 0  -0.0625 0 0  -0.0625 -0.0625 0  -0.125 -0.25 0  -0.1875 -0.1875 0  -0.0625 -0.1875 0  0.125 0.0625 0  0.0625 0.125 0  -0.0625 0.125 0  -0.125 0.0625 0  -0.125 -0.0625 0  0.875 0.375 0  0.125 0.875 0  0.625 0.625 0  0.75 0.375 0  0.625 0.125 0  0.625 0.25 0  0.625 0.5 0  0.625 0.375 0  0.375 0.625 0  0.125 0.75 0  0.25 0.625 0  0.125 0.625 0  -0.125 0.625 0  0 0.625 0  -0.125 0.5 0  -0.625 0.125 0  -0.5 0.125 0  -0.625 0 0  0.5 0.375 0  0.375 0.5 0  0.375 0.375 0  0.5 0.125 0  0.125 0.5 0  0.25 0.375 0  -0.625 -0.125 0  -0.5 -0.125 0  -0.625 -0.25 0  -0.625 -0.375 0  -0.375 -0.25 0  -0.5 -0.375 0  0 -0.0625 0  0.03125 0.03125 0  0.03125 0 0  -0.03125 0.03125 0  0 0.03125 0  -0.03125 0 0  -0.03125 -0.03125 0  -0.375 -0.375 0  0.09375 0.03125 0  0.03125 0.09375 0  -0.03125 0.09375 0  0 0.09375 0  -0.09375 0.03125 0  -0.09375 0 0  -0.09375 -0.03125 0  -0.03125 -0.09375 0  0.0625 0.03125 0  0.03125 0.0625 0  -0.03125 0.0625 0  -0.0625 0.03125 0  -0.0625 -0.03125 0  -0.0625 -0.125 0  -0.875 0.875 0  -0.625 1 0  -0.75 0.875 0  -0.875 0.75 0  -1 0.625 0  -0.625 0.875 0  -0.375 1 0  -0.5 0.875 0  -0.875 0.625 0  -0.625 0.75 0  -0.75 0.625 0  -0.875 0.5 0  -1 0.375 0  -0.375 0.875 0  -0.125 1 0  -0.25 0.875 0  -0.625 0.625 0  -0.375 0.75 0  -0.5 0.625 0  -0.875 0.375 0  -0.625 0.5 0  -0.75 0.375 0  -0.875 0.25 0  -1 0.125 0  0.875 0.1250000000000001 0  0.875 0.2500000000000001 0  -0.125 0.875 0  -0.875 0.125 0  -0.75 0.125 0  -0.875 0 0  -1 -0.125 0  0.75 0.125 0  -0.875 -0.125 0  -0.75 -0.125 0  -0.875 -0.2500000000000001 0  0 0.375 0  -0.0625 0.4375 0  -0.375 0 0  -0.4375 0.0625 0  -0.875 -0.375 0  -0.0625 0.3125 0  -0.875 -0.625 0  -0.3125 0.0625 0  -0.75 -0.625 0  -0.625 -0.5 0  0 -0.03125 0  0.015625 0.015625 0  0.015625 0 0  -0.015625 0.015625 0  0 0.015625 0  -0.015625 0 0  -0.015625 -0.015625 0  -0.625 -0.625 0  0.046875 0.015625 0  0.015625 0.046875 0  -0.015625 0.046875 0  0 0.046875 0  -0.046875 0.015625 0  -0.046875 0 0  -0.046875 -0.015625 0  -0.015625 -0.046875 0  0.03125 0.015625 0  0.015625 0.03125 0  -0.015625 0.03125 0  -0.03125 0.015625 0  -0.03125 -0.015625 0  -0.03125 -0.0625 0  1 0.875 0  0.875 0.875 0  1 0.625 0  0.875 0.5 0  0.875 0.75 0  0.875 0.625 0  0.625 1 0  0.75 0.875 0  0.625 0.875 0  0.5 0.875 0  0.375 0.875 0  -0.125 0.75 0  -0.25 0.625 0  -0.1875 0.6875 0  0.75 0.625 0  0.625 0.75 0  0.6875 0.6875 0  0.375 0.75 0  0.5 0.625 0  0.5625 0.6875 0  0.4375 0.6875 0  0.3125 0.6875 0  -0.1875 0.5625 0  0.375 0 0  0.4375 0.0625 0  0.375 0.25 0  0.4375 0.1875 0  0.5625 0.1875 0  0.4375 0.3125 0  0.5 0.1875 0  -0.1875 0.3125 0  -0.3125 0.1875 0  -0.1875 0.25 0  -0.25 0.1875 0  -0.1875 0.1875 0  0.3125 0.1875 0  0.1875 0.3125 0  0.25 0.1875 0  0.1875 0.25 0  0.1875 0.1875 0  0.3125 0.3125 0  0.3125 0.0625 0  0.25 0.0625 0  0.0625 0.3125 0  -0.4375 -0.3125 0  -0.875 -0.875 0  -0.8749999999999999 -1 0  0 -0.015625 0  0.0078125 0.0078125 0  0.0078125 0 0  -0.0078125 0.0078125 0  0 0.0078125 0  -0.0078125 0 0  -0.0078125 -0.0078125 0  -0.75 -0.875 0  -0.625 -0.75 0  -0.25 -0.375 0  -0.3125 -0.1875 0  -0.1875 -0.3125 0  -0.3125 -0.25 0  -0.3125 -0.3125 0  -0.5 -0.625 0  -0.375 -0.5 0  -0.4375 -0.5625 0  -0.4375 -0.4375 0  -0.625 -0.875 0  -0.6249999999999999 -1 0  0 -0.375 0  -0.0625 -0.3125 0  -0.0625 -0.25 0  -0.4999999999999999 -0.875 0  -0.375 -0.75 0  -0.4375 -0.8125 0  -0.1875 -0.4375 0  -0.3125 -0.5625 0  -0.1875 -0.5 0  -0.1875 -0.5625 0  -0.3125 -0.4375 0  -0.3749999999999999 -0.9999999999999999 0  -0.4374999999999999 -0.9375 0  -0.0625 -0.4375 0  0.3125 0.125 0  0.4375 0.125 0  0.125 0.3125 0  -0.125 0.1875 0  -0.1875 0.125 0  0.1875 0.125 0  0.125 0.1875 0  -0.125 -0.4375 0  -0.125 -0.3125 0  -0.375 -0.3125 0  0 -0.046875 0  0.0234375 0.0078125 0  0.0078125 0.0234375 0  -0.0078125 0.0234375 0  0 0.0234375 0  -0.0234375 0.0078125 0  -0.0234375 0 0  -0.0234375 -0.0078125 0  -0.0078125 -0.0234375 0  -0.0078125 -0.0390625 0  0.015625 0.0078125 0  0.0078125 0.015625 0  -0.0078125 0.015625 0  -0.015625 0.0078125 0  -0.015625 -0.0078125 0  -0.015625 -0.03125 0  -0.6875 0.4375 0  1 0.1250000000000001 0  0.875 5.551115123125783e-17 0  0.9375 0.06250000000000008 0  0.9375 0.1875000000000001 0  0.375 1 0  0.125 1 0  0.25 0.875 0  0.1875 0.9375 0  0.3125 0.9375 0  0 0.875 0  0.0625 0.9375 0  -0.0625 0.9375 0  -0.4375 0.4375 0  -0.625 0.25 0  -0.6875 0.3125 0  -0.6875 0.1875 0  -0.8125 0.3125 0  -0.75 0.3125 0  0.625 0 0  0.6875 0.0625 0  0.8125 0.06250000000000003 0  0.75 0.0625 0  0.6875 0.1875 0  0.1875 0.8125 0  0.3125 0.8125 0  0.0625 0.8125 0  -0.0625 0.8125 0  -0.1875 0.4375 0  -0.3125 0.5625 0  -0.3125 0.5 0  -0.3125 0.4375 0  -0.25 0.4375 0  -0.1875 0.5 0  -0.4375 0.1875 0  -0.5625 0.3125 0  -0.5 0.3125 0  -0.4375 0.3125 0  -0.4375 0.25 0  -0.5625 0.1875 0  -0.5 0.1875 0  -1 -0.375 0  0.5625 0.0625 0  0.5 0.0625 0  0.1875 0.4375 0  0.1875 0.5625 0  0.3125 0.4375 0  0.1875 0.5 0  0.25 0.4375 0  0.0625 0.4375 0  0.0625 0.5625 0  0.0625 0.5 0  0 0.4375 0  -0.3125 0.3125 0  -0.25 0.3125 0  -0.3125 0.25 0  -0.4375 -0.0625 0  -0.5625 0.0625 0  -0.5625 -0.06250000000000001 0  -0.5 -0.0625 0  -0.4375 0 0  -0.75 -0.375 0  -0.6875 -0.3125 0  -0.8125 -0.3125 0  -1 -0.625 0  -0.875 -0.5 0  -0.9375 -0.4375 0  -0.9375 -0.5625 0  -0.875 -0.75 0  -0.9375 -0.6875 0  -0.25 0.0625 0  -0.3125 -0.0625 0  -0.25 -0.0625 0  -0.21875 -0.03125 0  -0.3125 0 0  -0.28125 0.03125 0  -0.4375 -0.1875 0  -0.5625 -0.1875 0  -0.5 -0.1875 0  -0.6875 -0.4375 0  -0.8125 -0.4375 0  -0.8125 -0.5625 0  0 -0.0078125 0  0.00390625 0.00390625 0  0.00390625 0 0  -0.00390625 0.00390625 0  0 0.00390625 0  -0.00390625 0 0  -0.00390625 -0.00390625 0  -0.8125 -0.6875 0  -0.25 -0.1875 0  -0.1875 -0.25 0  -0.21875 -0.21875 0  0 -0.1875 0  -0.03125 -0.21875 0  0.125 0.4375 0  0.1875 0.375 0  0.0625 0.375 0  -0.1875 0.375 0  -0.125 0.4375 0  -0.375 0.1875 0  -0.4375 0.125 0  -0.3125 -0.125 0  -0.4375 -0.125 0  -0.375 -0.1875 0  -0.375 -0.0625 0  -0.34375 -0.15625 0  -0.1875 -0.125 0  -0.21875 -0.09375 0  -0.21875 -0.15625 0  -0.28125 -0.15625 0  -0.15625 -0.09375 0  -0.15625 -0.15625 0  -0.09375 -0.15625 0  -0.6875 0.375 0  -0.375 0.4375 0  -0.4375 0.375 0  -0.3125 0.375 0  -0.375 0.3125 0  -0.03125 -0.15625 0  -0.15625 -0.21875 0  -0.09375 -0.21875 0  -0.125 -0.1875 0  0.5625 0.125 0  0.6875 0.125 0  0.125 0.5625 0  -0.5625 0.125 0  0.3125 0.375 0  -0.5625 -0.125 0  -0.34375 0.03125 0  -0.375 0.0625 0  0 -0.0234375 0  0.01171875 0.00390625 0  0.01171875 0 0  0.00390625 0.01171875 0  -0.00390625 0.01171875 0  0 0.01171875 0  -0.01171875 0.00390625 0  -0.01171875 0 0  -0.01171875 -0.00390625 0  -0.00390625 -0.01171875 0  -0.00390625 -0.01953125 0  0.0078125 0.00390625 0  0.00390625 0.0078125 0  -0.00390625 0.0078125 0  -0.0078125 0.00390625 0  -0.0078125 -0.00390625 0  -0.0078125 -0.015625 0  -0.875 1 0  -1 0.875 0  -0.9375 0.9375 0  -0.8125 0.9375 0  -0.9375 0.8125 0  -0.4375 0.6875 0  -0.4375 0.8125 0  -0.5625 0.6875 0  -0.4375 0.75 0  -0.5 0.6875 0  -0.6875 0.5625 0  1 0.3750000000000001 0  0.9375 0.3125000000000001 0  0.9375 0.2500000000000001 0  0.9375 0.4375 0  -0.3125 0.6875 0  -0.25 0.6875 0  -0.4375 0.5625 0  -0.5625 0.4375 0  -0.4375 0.5 0  -0.5 0.4375 0  -0.5625 0.5625 0  -0.5 0.5625 0  -0.5625 0.5 0  -0.8125 0.1875 0  0.8125 0.3125 0  0.75 0.3125 0  0.6875 0.25 0  0.6875 0.3125 0  0.8125 0.4375 0  0.6875 0.5625 0  0.6875 0.5 0  0.6875 0.4375 0  0.1875 0.6875 0  0.0625 0.75 0  0.0625 0.6875 0  -0.0625 0.6875 0  0 0.6875 0  -0.6875 0.0625 0  -0.6875 0 0  -0.6875 -0.06250000000000001 0  -0.8125 0.0625 0  -0.75 0.0625 0  -0.8125 -0.06250000000000001 0  -0.75 -0.06250000000000001 0  0.5625 0.5625 0  0.5625 0.5 0  0.5625 0.4375 0  0.4375 0.5625 0  0.5 0.4375 0  0.4375 0.5 0  0.4375 0.4375 0  0.5 0.5625 0  0.5625 0.25 0  0.5625 0.3125 0  0.5 0.3125 0  0.3125 0.5625 0  0.25 0.5625 0  0.3125 0.5 0  -0.0625 0.5625 0  0 0.5625 0  -0.0625 0.5 0  -0.6875 -0.1875000000000001 0  -0.8125 -0.1875000000000001 0  -0.75 -0.1875000000000001 0  0.3125 0.25 0  0.28125 0.21875 0  0.3125 0 0  0.28125 0.03125 0  -0.0625 0.25 0  0.0625 0.25 0  0.03125 0.21875 0  -0.03125 0.21875 
[...]
<PointData  Scalars="u"> 
<DataArray  type="Float64"  Name="u"  format="ascii">1.2599819715118366e+00  1.1551570568839196e+00  1.1551570233158424e+00  1.0524875566278280e+00  1.0400528895560566e+00  1.0524875042376005e+00  9.5486317099696993e-01  9.2492500958091273e-01  9.2489621598597371e-01  9.5486347049658116e-01  6.2998023064499142e-01  -9.8476030284132065e-05  1.6601368610512185e-01  3.2779571107811506e-01  4.8278320805802299e-01  6.7245344314649735e-01  7.2473418771857800e-01  7.8897748482244168e-01  8.6598019626524358e-01  8.1436947216763445e-01  7.9367478275806069e-01  8.1442287875396868e-01  8.6606105996423610e-01  5.1998773306284840e-01  1.1725505085104441e-04  1.8189752328915257e-01  3.5664331641526281e-01  5.6848087321919905e-01  6.3241824669200952e-01  7.1479140925900786e-01  6.6273803449177693e-01  6.6273126962817797e-01  7.1479336331423027e-01  7.8885830602238061e-01  3.9676925754992648e-01  3.6157050082755535e-05  2.0647714021351682e-01  4.5654756422820580e-01  5.4526659262507149e-01  4.9985542002671768e-01  5.4523595566867411e-01  6.3241943155293601e-01  7.2473614499003558e-01  2.4989518131233351e-01  8.5251394536565013e-05  3.4312060285272705e-01  6.7253116758592801e-01  3.4329343459703726e-01  4.5654149560042145e-01  5.6846333909685265e-01  6.2998602996133757e-01  4.6544040976497940e-04  5.2001211326655705e-01  2.4991530505575085e-01  3.9672914365398881e-01  4.8276321910300724e-01  8.3818182972877033e-05  3.5664967542303377e-01  2.0635396883432369e-01  3.2777286703191383e-01  1.7562647112568262e-04  1.8195228441655006e-01  1.6596432780305595e-01  9.3744872374873609e-05  -8.5277508953733220e-05  1.1469130578353791e-01  3.9827999906848982e-01  5.1299485924692823e-01  5.1287500163802191e-01  4.1742548621104691e-01  4.1759630772949724e-01  1.2996336075175827e-01  2.8719489093248307e-01  1.5749990395093807e-01  -9.5710995858536859e-05  3.1455227233197103e-01  2.1645682127727758e-01  3.9830070761975028e-01  2.1604992804781242e-01  2.8734224076474130e-01  1.5745428465605843e-01  1.1466797811791359e-01  2.8544565402220107e-01  1.0431031287217957e-01  1.9265658833922250e-01  2.5807489642805503e-01  9.7244323901120922e-02  -1.3804394695280010e-04  1.7319461873430053e-01  9.1496231891352670e-02  8.7075277781909530e-02  8.3177994400868441e-02  -1.1727313058225146e-04  7.9889998920557403e-01  7.9887586873779748e-01  7.2771546824084676e-01  7.2772109655107509e-01  6.5485555286936636e-01  5.8278713063349463e-01  5.8270894057438405e-01  7.2062677587459170e-02  1.4020934319991025e-04  2.5080131677574297e-01  3.2303799164365765e-01  2.8341100004315561e-01  3.2304274913185854e-01  2.8329429942208978e-01  2.5078725842511168e-01  2.2489846006965418e-05  9.9285806101243101e-02  -3.1424996823750710e-04  1.9837622564020663e-01  1.3619623659818081e-01  1.3599476144580697e-01  9.8955328001070084e-02  1.3002020790775942e-01  2.0640614207612379e-01  7.2217419449879319e-02  8.1673662207475586e-02  1.8086024638738052e-01  2.6284666000508478e-01  2.6284239859594671e-01  1.8074677175931467e-01  2.5813235196350398e-01  7.5049988582898952e-01  4.6053138274453803e-01  2.7044019356859372e-01  9.7180089963228466e-02  1.9265928846582941e-01  3.7475166848667690e-01  2.8548194321734272e-01  5.1349267388168385e-01  6.7115550036640470e-01  5.4743513330968108e-01  5.8715581572527409e-01  6.8435629127538267e-01  6.3302963652439981e-01  6.0115420986514434e-01  6.8427344401251866e-01  6.0112431728541382e-01  6.3295720703023028e-01  3.0394261840686970e-01  4.2346528443381232e-01  3.2747014255450146e-01  1.0448556173245123e-01  4.9683102231016346e-01  3.5811460066098461e-01  5.8716454221726255e-01  4.9679860996286268e-01  5.4735071596729756e-01  5.1347092731936828e-01  3.5814615624056195e-01  4.2347485580468053e-01  -1.2130089559125939e-04  6.2565456448143764e-02  -1.5569394281469796e-04  1.2481107747220478e-01  8.5521267842207552e-02  8.5327202727961557e-02  6.2072890139733314e-02  3.2752145237697705e-01  4.5600902244659763e-02  1.5774703858521169e-01  2.0332625490744133e-01  1.7826244534732261e-01  2.0334651842191317e-01  1.7832281532152663e-01  1.5789377184909814e-01  4.5810266425510414e-02  5.1556123471757885e-02  1.1386721598088582e-01  1.6535948378886109e-01  1.6535779596778646e-01  1.1379318643540914e-01  8.1878766712585371e-02  1.1525816893006298e+00  1.1034987566397134e+00  1.0977911150362889e+00  1.0977898568284625e+00  1.1034988243894299e+00  1.0431481466054977e+00  1.0029076652289928e+00  9.8939552861151026e-01  1.0431540358960507e+00  9.8233094020599809e-01  9.8232293432515594e-01  9.8938652595916043e-01  1.0029076604198881e+00  9.3662666085585100e-01  9.0912086828894334e-01  8.8590377010636501e-01  9.2088140489630954e-01  8.6878356451668082e-01  8.5968448695313981e-01  9.3664424317900563e-01  8.5972474594006609e-01  8.6876577674817490e-01  8.8589403611983275e-01  9.0918315989824305e-01  8.7045638568805275e-02  1.7318509990873190e-01  8.3740650985451759e-01  8.3746855347114557e-01  7.6271423097143765e-01  7.9226374594436400e-01  8.2585776188581261e-01  9.1445455483432844e-02  7.5047483617138477e-01  6.7118138042308151e-01  7.1264391729410093e-01  4.5028113837184486e-01  5.2739625208575847e-01  4.5026005154164833e-01  5.2743346723462670e-01  6.7865152962121977e-01  4.3093335162165808e-01  6.2139306001745709e-01  4.3103278333244538e-01  5.4260873569734336e-01  4.8482509744729979e-01  1.1529567816893735e-05  3.9454905602306564e-02  -5.3804666213283252e-05  7.8739559039069651e-02  5.3847471956220791e-02  5.3737555385148801e-02  3.9083541645877677e-02  4.6046882207869566e-01  2.8643261636941360e-02  9.9243314042521125e-02  1.2768146596669341e-01  1.1217030743549086e-01  1.2767071642254499e-01  1.1214518766464236e-01  9.9383496641447702e-02  2.8477297282118924e-02  3.2099675154759873e-02  7.1622261029320913e-02  1.0369961744704370e-01  1.0369558047188482e-01  7.1609214632932489e-02  5.1601526564481207e-02  5.5729556068846220e-01  5.7646191508369604e-01  4.0608876944529837e-01  3.4099430144580306e-01  5.0022655925842874e-01  4.2174419819563352e-01  6.9730582183665279e-01  5.9749579617548876e-01  6.2151984149315520e-01  6.4829695312501112e-01  6.7865269113188098e-01  7.6275965502422272e-01  7.4015072755279454e-01  7.5051804510025522e-01  4.3965742676617509e-01  5.4256279542341102e-01  4.9068915438356564e-01  5.9828766599460403e-01  4.8484019364406850e-01  5.1404978140431357e-01  5.4124656668568794e-01  5.7286570066623044e-01  6.7223192299441015e-01  5.0535110014514801e-05  5.4819572895451037e-02  2.2449655582489705e-01  1.6252460595779925e-01  1.5012691257517544e-01  2.6552243469287834e-01  1.5596120950823547e-01  5.0316378893449865e-01  5.0313055973647514e-01  4.5815691955536236e-01  4.5817018408679211e-01  4.1257015199957547e-01  1.7986622244886330e-01  3.2339526616673597e-01  1.9154790976943126e-01  2.6672097037998427e-01  2.0630537103455410e-01  2.8994963501408449e-01  6.1217614923958483e-02  6.5718236104030506e-02  3.6986297472392748e-01  3.9142217598311985e-01  5.7624906343782500e-01  5.5732076169773048e-01  8.2108437733292600e-06  2.4860910039076367e-02  -3.5409058619275103e-05  4.9617022712612757e-02  3.3917941493155281e-02  3.3855748085005653e-02  2.4643436656193205e-02  5.0022211414635476e-01  4.3969487338498903e-01  2.2444921433941681e-01  3.2336172405673247e-01  1.7974035303725708e-01  3.0532855693983829e-01  2.8991503174443473e-01  3.7477670635132149e-01  3.0401561778587882e-01  3.4027405597014476e-01  3.6298595921507276e-01  4.2175697642907106e-01  4.0619367102605425e-01  1.4509551606281456e-06  6.1204567098078928e-02  6.5782159354480604e-02  3.4107216263474061e-01  2.7054065863520210e-01  3.0645592692229773e-01  1.6230760301180466e-01  2.4716309408843309e-01  1.5591646237749940e-01  1.5032768249655901e-01  2.6554619810433577e-01  2.4755258920005957e-01  2.9358038654569457e-01  5.4861310623221637e-02  1.2136827755365907e-01  1.0925696202832311e-01  3.4475347548258967e-01  3.6675844728148982e-01  3.6677158203893945e-01  1.4127080397225961e-01  2.2536265107193154e-01  1.0891293428116175e-01  1.2140046039553443e-01  3.4164407147187437e-01  1.1854757746554951e-04  1.8117909932870518e-02  6.2417339121931745e-02  8.0412153959190949e-02  7.0540622447605894e-02  8.0411498054745789e-02  7.0542940234731039e-02  6.2543100905714216e-02  1.7996625125688292e-02  1.5078797104669774e-02  2.0240211385133391e-02  4.5123888799305539e-02  6.5359192866366531e-02  6.5361942525288028e-02  4.5145047562669433e-02  3.2418449520170936e-02  8.6312977921837020e-01  8.3358207566660625e-02  1.0629897376605571e-04  4.2556735937694393e-02  1.2740072256439094e-01  7.5514579929308090e-01  8.2589085075853863e-01  7.1259273199818918e-01  7.6949178518659667e-01  7.3387921650423327e-01  7.9218581600264837e-01  8.0864806166717251e-01  8.5121769886174337e-01  7.2605520947355928e-01  7.4009232408643622e-01  8.0561263126886928e-01  7.5039569567046771e-01  8.7645372886666795e-01  8.4118822860644871e-01  6.5920069315725320e-07  4.7204483419868361e-02  4.4636097245691626e-02  4.5725153700184991e-02  1.4090608122765391e-01  6.9167556475433267e-01  6.5548477377084458e-01  7.3218853707036302e-01  7.7686650401400204e-01  5.8987394052933906e-01  7.3238423798713126e-01  6.9508202458980661e-01  6.5688311679888423e-01  6.2312292336724995e-01  6.3158890063615691e-01  5.8975236394843111e-01  7.3235360782838921e-01  6.9506886858570160e-01  6.5689414920212763e-01  6.2319108817879942e-01  6.7216249147803608e-01  6.3155341780168850e-01  7.5511228590902302e-01  5.0417674800366415e-02  5.2420841803804311e-02  4.2733590128980237e-01  5.2201741809471414e-01  3.9128733199291127e-01  4.7567850831624381e-01  4.0832802753928882e-01  4.7261799630059848e-01  5.6558682661009729e-01  5.2013944382860411e-01  4.9890266973947056e-01  5.8013130873163621e-01  5.4138905229582845e-01  5.4138336454687763e-01  4.7253762284012923e-01  6.1601040136344620e-01  5.6559032786612962e-01  5.2011063724556306e-01  4.9871181584895430e-01  5.9822591207082565e-01  5.7290982083884134e-01  6.5548726193552753e-01  6.9728206631029321e-01  6.4828365497940033e-01  7.0178762564267305e-01  6.7282318650677708e-01  5.9745388486311923e-01  6.4720435212311900e-01  3.7882837881417286e-01  3.6974848738026578e-01  3.1282354247119426e-01  2.9759727486444176e-01  3.9867371499489090e-01  3.8794105587385697e-01  4.2731871596010840e-01  5.2193012222754420e-01  4.7577086182494643e-01  5.4127889982153032e-01  6.2342491765648889e-01  5.9516073664600444e-01  5.1786491012729801e-06  1.5660165327818769e-02  -2.2231481510220057e-05  3.1254999163546925e-02  2.1358534100606116e-02  2.1322372398969499e-02  1.5527953311040418e-02  5.7043482695933934e-01  2.6677430972718225e-01  1.9155072552111718e-01  2.2860240053819086e-01  1.2085276133825770e-04  3.4633791876725599e-02  4.4885522409393391e-01  3.7677434437151802e-01  4.2266539433381334e-01  5.4711509333304875e-01  5.5789041979342280e-01  5.4717068396899160e-01  5.5801345381505485e-01  3.4470572797222676e-01  4.4891467734417750e-01  3.7671374192657442e-01  4.2265547494540368e-01  3.6095568696134012e-01  2.2540128267991796e-01  2.6913866401541120e-01  2.4653197245451178e-01  3.0581102065905069e-01  2.0358781811257706e-01  1.8248115581000007e-01  1.1305607306849719e-01  8.3408784751345988e-01  6.9143911338476205e-01  6.9144263727613997e-01  6.1861206901284382e-01  6.1859793147980302e-01  3.8588233064098518e-02  1.6744944691591487e-01  1.0235584784618515e-01  1.4129498750443731e-01  1.0043151929303366e-01  9.4169563324411357e-02  5.4292470718019725e-01  6.4346174993747229e-01  3.4168283950531975e-01  5.4292510744419731e-01  4.3997061286268935e-01  4.8027734299401026e-01  7.1252067799733765e-05  1.1354500699034188e-02  2.4976222263304830e-05  3.9314117143035052e-02  5.0660058250582451e-02  4.4428728754074297e-02  5.0666492375796450e-02  4.4441540436337759e-02  3.9411732924636338e-02  1.1357520812391319e-02  9.5451543300464174e-03  1.2760571947800215e-02  2.8424340674057851e-02  4.1176841857560403e-02  4.1182095119706254e-02  2.8449130925021798e-02  2.0490579492996187e-02  1.2074506694771907e+00  1.2074506677649472e+00  1.2068120336982919e+00  1.1532328818660114e+00  1.1532325779025061e+00  8.6315694230822970e-01  9.2990194298331608e-01  9.2200765061298884e-01  8.9671453846330784e-01  8.9243815681046612e-01  9.2199229417356732e-01  2.4754923330967862e-01  2.1131408898452769e-01  1.6943045653324706e-01  2.9361395439473348e-01  8.0545146301447856e-01  7.7752357216111578e-01  7.9488578170816349e-01  7.9490159208610334e-01  7.6048739681368083e-01  7.6049354796671853e-01  8.5852042019643149e-01  8.2662076914783800e-01  8.2663307974795308e-01  8.2511788006764908e-01  2.2097278582881083e-01  2.2653326132404855e-01  1.8699595459066992e-01  2.3260961956370582e-01  3.0639506177065701e-01  4.0783691843957565e-01  3.6519835446593130e-01  3.2183644871081046e-01  6.0954067322555483e-01  6.9240868212358275e-01  6.5149356434421735e-01  6.9875697286384364e-01  6.7446315589961392e-01  6.9868466845312327e-01  6.7449181743506048e-01  6.5159808022914067e-01  7.7676943922450103e-01  7.3828225589738672e-01  7.3209329790761923e-01  6.9243764484782466e-01  4.2928036315659235e-01  3.8526673015964025e-01  3.4016138222482339e-01  4.5467292035093804e-01  3.5100528198840047e-01  4.0949790128140151e-01  3.6305003034743444e-01  4.4138661494649334e-01  1.9914652063651173e-01  2.4717720570437046e-01  2.5567768859418977e-01  4.8517901406723579e-01  5.0274811968314681e-01  4.3915121844668226e-01  6.1597065367861614e-01  5.8998440806804353e-01  5.7255450301119415e-01  6.0949436527301459e-01  6.9170394740457286e-01  6.5116612878485969e-01  2.3610089415741181e-01  2.1432848706796462e-01  3.0808638552638506e-06  3.1811224275762974e-02  3.7874224681832114e-01  3.1300813466417093e-01  2.9757733010821796e-01  3.3202843429760837e-01  3.1405542749241921e-01  3.9855243441729826e-01  3.8794362508155356e-01  3.5604374609226214e-01  3.3198357242858179e-01  4.8523568612505658e-01  4.3911737615272500e-01  5.1406610591271418e-01  3.2592239151677452e-06  9.8574424575407910e-03  -1.4040120033390416e-05  1.9677565885867904e-02  1.3435618068452039e-02  1.3412319055254496e-02  9.7779823760087477e-03  2.3601500306243603e-01  2.1416045140889833e-01  4.5467091271008925e-01  4.0947726531797102e-01  4.4143327819124895e-01  4.2923851843467281e-01  3.2169499061455437e-01  5.2253812003465502e-02  5.0495384714696237e-02  -5.9837816420266986e-05  2.3261954776049909e-01  1.8710700506896655e-01  2.2107448258763382e-01  1.4093075972791969e-01  1.3700366435310232e-01  1.3350994960726897e-01  2.2658632698216064e-01  4.7107825767173490e-02  3.8252564565116966e-05  4.5886576731917511e-02  4.4582364931797500e-02  4.6616702122597903e-01  3.7147034538825918e-01  4.2322442600635635e-01  4.1363736864108319e-01  3.9229156864048531e-01  2.6922706990474504e-01  3.2858050815902951e-01  1.1305017118374569e-01  2.0381292031255269e-01  1.2985749446165279e-01  1.2049600348527507e-01  1.6796708332031834e-01  3.8455289543123092e-02  4.1589713975999691e-02  3.1669333720103848e-01  3.1669117559522986e-01  2.5977387150143111e-01  2.8851560811867372e-01  2.8851398165157838e-01  2.3264902289842043e-01  2.7130576580031196e-01  2.5096003930479954e-01  1.9693685325924831e-01  2.3817001680595606e-01  2.7128405137267325e-01  2.5078007921106577e-01  2.3277823724959004e-01  2.3816619728053795e-01  1.2982154477376240e-01  1.6787889045673923e-01  1.2057403840235395e-01  2.3948455196807078e-01  2.7763747211884870e-01  1.0050568201540465e-01  1.4521442875661023e-01  4.8639201942717994e-02  9.4150188413741717e-02  8.9242170809427340e-02  7.6351892128939491e-01  8.3405589301033123e-01  8.2913098476026137e-01  7.6924069404728634e-01  7.6357488946676799e-01  7.6411747402634331e-02  2.6611966610363247e-01  2.1709184634943554e-01  3.0248435961404585e-01  2.9351407317819372e-01  3.4447129889969036e-01  3.0244591184173492e-01  2.9349348825513394e-01  8.8924468450387970e-02  1.4191447576942787e-01  2.3064681117731511e-01  2.3065076064325779e-01  1.4184695772980963e-01  8.8821477891364867e-02  2.6395833249241274e-01  2.1589853376028206e-01  4.7215704759816957e-01  2.7757124436450953e-01  2.3945850970046442e-01  3.3052755181252969e-01  2.9417540858001351e-01  5.2972475635890059e-01  4.6922497981256439e-01  6.2985531606577005e-01  6.0929829224344567e-01  6.5797563905379830e-01  6.4355216669310056e-01  6.5796487284885852e-01  7.2404077755612151e-01  6.0928123785136734e-01  3.1496889710432235e-01  3.7631427988185756e-01  6.2983331945171739e-01  4.6927992821012343e-01  8.9026744528544199e-01  8.9027144814435022e-01  8.0057043612398426e-01  7.1136035564267641e-01  4.8932181127566865e-01  4.4021230813392198e-01  4.1048919757229152e-01  4.8028406322965150e-01  4.7215142563820234e-01  2.9769382450058328e-02  5.7635188140968206e-02  2.0266329199689948e-01  1.7048683502763023e-01  4.4418021129152160e-05  7.1536149626429662e-03  1.5974759285082619e-05  2.4762521125884736e-02  3.1910996741832710e-02  2.7983657408658460e-02  3.1918541329972842e-02  2.7996893232579714e-02  2.4830932943729653e-02  2.0263777106404471e-01  1.7018865470953040e-01  7.1584429470748232e-03  6.0216032570986518e-03  8.0370172548776403e-03  1.7900423038891885e-02  2.5933288259523228e-02  2.5938203411234591e-02  1.7920623810663925e-02  1.2920107258547026e-02  1.1292249236496392e+00  1.1265465707947078e+00  1.0999314766965913e+00  1.1265458234062802e+00  1.1292249022073839e+00  1.0999413865203189e+00  1.0778725235851709e+00  1.0470690916510583e+00  1.0274765686372929e+00  1.0211021607818325e+00  9.9536917922209145e-01  1.0970727831188114e+00  1.0688795630732524e+00  1.0688783981065659e+00  1.0407667976390504e+00  1.0407633127303491e+00  1.0110938107024059e+00  1.0110910094386669e+00  9.8142550114019622e-01  1.0778725493039649e+00  1.0470655316632862e+00  1.0210978224377283e+00  1.0274765538501540e+00  9.9539282788382788e-01  9.7863568763101283e-01  9.4499200450020282e-01  9.3167768276165996e-01  9.2066683566534557e-01  8.9682184128342091e-01  9.8499399938517895e-01  9.5728163427103752e-01  9.5356911804713407e-01  9.8499886553794913e-01  9.5355408096486050e-01  9.5726656917425934e-01  9.2988719854095181e-01  8.9669505026533769e-01  9.7863561026727475e-01  9.4498711877211261e-01  9.2066470160726133e-01  9.3167698146290800e-01  8.9687648944292286e-01  6.5012942441727484e-01  5.9387886038268456e-01  6.0343644928931872e-01  3.3414053663198423e-01  3.7423292033654143e-01  5.2908465101992641e-01  4.9120395781763265e-01  4.5275112955394026e-01  6.2406592204112643e-01  6.3527835354364692e-01  6.4715493069443430e-01  6.7289588503460629e-01  6.8692250354540207e-01  7.0180384546431351e-01  8.7643369396954895e-01  8.5039538864905184e-01  8.4123083614108285e-01  8.2506707158709469e-01  7.8809847919793763e-01  8.8721480754268822e-01  8.5112990654107046e-01  8.2950130502522035e-01  8.4553309519196751e-01  8.0867042978187353e-01  5.4852348895820668e-01  5.0979116064188257e-01  4.7035420214731088e-01  5.5910908009905136e-01  5.7040473647420242e-01  4.8017576136009432e-01  5.3093113610770548e-01  1.3346690907509115e-01  1.7734612472208450e-01  1.3684499542632142e-01  3.4844804349136921e-01  3.8975706425038154e-01  3.9845069701494068e-01  5.9527382770420811e-01  6.0888023560819549e-01  6.2345488493668699e-01  5.5510400642209967e-01  5.8286555112718597e-01  7.6945770271584102e-01  7.5119711051517635e-01  7.3390738497673391e-01  2.1459146400993090e-01  2.3559238876790836e-01  4.5717763065707023e-01  5.7261482822113585e-01  5.9002062062361027e-01  5.3600388909227525e-01  5.8097436189652141e-01  3.0527843157179307e-01  2.8634645906492945e-01  2.7036699630418248e-01  3.4407217452191149e-02  4.2678066742500199e-05  3.2973493757334077e-02  6.5006034006815627e-01  6.2406751132348903e-01  6.0336379881411972e-01  5.9389339766408267e-01  2.6429060794260274e-06  6.1940504056788564e-03  -5.2369022758719638e-05  1.2378004683891341e-02  8.4405950450979796e-03  8.3902754428032047e-03  6.1716455385190444e-03  5.3095461775163211e-01  4.9071105423436001e-01  5.4851393052814756e-01  5.097792421