<?xml version="1.0"?>
<VTKFile type="UnstructuredGrid"  version="0.1"  >
<UnstructuredGrid>
<Piece  NumberOfPoints="349" NumberOfCells="635">
<Points>
<DataArray  type="Float64"  NumberOfComponents="3"  format="ascii">-1 1 0  -0.75 1 0  -1 0.75 0  -0.5 1 0  -0.75 0.75 0  -1 0.5 0  -0.25 1 0  -0.5 0.75 0  -0.75 0.5 0  -1 0.25 0  1 1 0  1 1.110223024625157e-16 0  1 0.2500000000000001 0  1 0.5 0  1 0.75 0  0.75 1 0  0.5 1 0  0.25 1 0  0 1 0  -0.25 0.75 0  -0.5 0.5 0  -0.75 0.25 0  -1 0 0  0.75 0.75 0  0.75 0 0  0.75 0.25 0  0.75 0.5 0  0.5 0.75 0  0.25 0.75 0  0 0.75 0  -0.25 0.5 0  -0.5 0.25 0  -0.75 0 0  -1 -0.2500000000000001 0  0.5 0.5 0  0.5 0 0  0.5 0.25 0  0.25 0.5 0  0 0.5 0  -0.25 0.25 0  -0.5 0 0  -0.75 -0.2500000000000001 0  -1 -0.5 0  0.25 0.25 0  0.25 0 0  0 0.25 0  -1 -0.75 0  -0.25 0 0  -0.5 -0.25 0  -0.75 -0.5 0  -0.9999999999999999 -1 0  0 0 0  -0.75 -0.75 0  -0.25 -0.25 0  -0.5 -0.5 0  -0.7499999999999999 -1 0  0 -0.25 0  -0.5 -0.75 0  -0.25 -0.5 0  -0.4999999999999999 -0.9999999999999999 0  0 -0.5 0  -0.25 -0.75 0  -0.2499999999999999 -0.9999999999999999 0  0 -0.75 0  0 -0.9999999999999999 0  0.375 0.125 0  0.125 0.375 0  -0.125 0.375 0  -0.375 0.125 0  -0.125 0.25 0  -0.25 0.125 0  0.25 0.125 0  0.125 0.25 0  0.125 0.125 0  0.125 0 0  -0.125 0.125 0  0 0.125 0  -0.375 -0.125 0  -0.125 0 0  -0.25 -0.125 0  -0.125 -0.125 0  -0.125 -0.375 0  -0.375 -0.625 0  -0.125 -0.5 0  -0.25 -0.625 0  -0.3749999999999999 -0.875 0  -0.125 -0.625 0  0 -0.625 0  -0.2499999999999999 -0.875 0  -0.125 -0.75 0  -0.1249999999999999 -0.875 0  -0.1249999999999999 -0.9999999999999999 0  0 -0.875 0  -0.375 0.625 0  -0.625 0.375 0  -0.375 0.5 0  -0.5 0.375 0  -0.375 0.375 0  -0.25 0.375 0  -0.375 0.25 0  0.1875 0.0625 0  0.1875 0 0  0.0625 0.1875 0  -0.0625 0.1875 0  0 0.1875 0  -0.1875 0.0625 0  -0.1875 0 0  -0.1875 -0.0625 0  0 -0.125 0  0.0625 0.0625 0  0.0625 0 0  -0.0625 0.0625 0  0 0.0625 0  -0.0625 0 0  -0.0625 -0.0625 0  -0.125 -0.25 0  -0.1875 -0.1875 0  -0.0625 -0.1875 0  0.125 0.0625 0  0.0625 0.125 0  -0.0625 0.125 0  -0.125 0.0625 0  -0.125 -0.0625 0  0.875 0.375 0  0.125 0.875 0  0.625 0.625 0  0.75 0.375 0  0.625 0.125 0  0.625 0.25 0  0.625 0.5 0  0.625 0.375 0  0.375 0.625 0  0.125 0.75 0  0.25 0.625 0  0.125 0.625 0  -0.125 0.625 0  0 0.625 0  -0.125 0.5 0  -0.625 0.125 0  -0.5 0.125 0  -0.625 0 0  0.5 0.375 0  0.375 0.5 0  0.375 0.375 0  0.5 0.125 0  0.125 0.5 0  0.25 0.375 0  -0.625 -0.125 0  -0.5 -0.125 0  -0.625 -0.25 0  -0.625 -0.375 0  -0.375 -0.25 0  -0.5 -0.375 0  0 -0.0625 0  0.03125 0.03125 0  0.03125 0 0  -0.03125 0.03125 0  0 0.03125 0  -0.03125 0 0  -0.03125 -0.03125 0  -0.375 -0.375 0  0.09375 0.03125 0  0.03125 0.09375 0  -0.03125 0.09375 0  0 0.09375 0  -0.09375 0.03125 0  -0.09375 0 0  -0.09375 -0.03125 0  -0.03125 -0.09375 0  0.0625 0.03125 0  0.03125 0.0625 0  -0.03125 0.0625 0  -0.0625 0.03125 0  -0.0625 -0.03125 0  -0.0625 -0.125 0  -0.875 0.875 0  -0.625 1 0  -0.75 0.875 0  -0.875 0.75 0  -1 0.625 0  -0.625 0.875 0  -0.375 1 0  -0.5 0.875 0  -0.875 0.625 0  -0.625 0.75 0  -0.75 0.625 0  -0.875 0.5 0  -1 0.375 0  -0.375 0.875 0  -0.125 1 0  -0.25 0.875 0  -0.625 0.625 0  -0.375 0.75 0  -0.5 0.625 0  -0.875 0.375 0  -0.625 0.5 0  -0.75 0.375 0  -0.875 0.25 0  -1 0.125 0  0.875 0.1250000000000001 0  0.875 0.2500000000000001 0  -0.125 0.875 0  -0.875 0.125 0  -0.75 0.125 0  -0.875 0 0  -1 -0.125 0  0.75 0.125 0  -0.875 -0.125 0  -0.75 -0.125 0  -0.875 -0.2500000000000001 0  0 0.375 0  -0.0625 0.4375 0  -0.375 0 0  -0.4375 0.0625 0  -0.875 -0.375 0  -0.0625 0.3125 0  -0.875 -0.625 0  -0.3125 0.0625 0  -0.75 -0.625 0  -0.625 -0.5 0  0 -0.03125 0  0.015625 0.015625 0  0.015625 0 0  -0.015625 0.015625 0  0 0.015625 0  -0.015625 0 0  -0.015625 -0.015625 0  -0.625 -0.625 0  0.046875 0.015625 0  0.015625 0.046875 0  -0.015625 0.046875 0  0 0.046875 0  -0.046875 0.015625 0  -0.046875 0 0  -0.046875 -0.015625 0  -0.015625 -0.046875 0  0.03125 0.015625 0  0.015625 0.03125 0  -0.015625 0.03125 0  -0.03125 0.015625 0  -0.03125 -0.015625 0  -0.03125 -0.0625 0  1 0.875 0  0.875 0.875 0  1 0.625 0  0.875 0.5 0  0.875 0.75 0  0.875 0.625 0  0.625 1 0  0.75 0.875 0  0.625 0.875 0  0.5 0.875 0  0.375 0.875 0  -0.125 0.75 0  -0.25 0.625 0  -0.1875 0.6875 0  0.75 0.625 0  0.625 0.75 0  0.6875 0.6875 0  0.375 0.75 0  0.5 0.625 0  0.5625 0.6875 0  0.4375 0.6875 0  0.3125 0.6875 0  -0.1875 0.5625 0  0.375 0 0  0.4375 0.0625 0  0.375 0.25 0  0.4375 0.1875 0  0.5625 0.1875 0  0.4375 0.3125 0  0.5 0.1875 0  -0.1875 0.3125 0  -0.3125 0.1875 0  -0.1875 0.25 0  -0.25 0.1875 0  -0.1875 0.1875 0  0.3125 0.1875 0  0.1875 0.3125 0  0.25 0.1875 0  0.1875 0.25 0  0.1875 0.1875 0  0.3125 0.3125 0  0.3125 0.0625 0  0.25 0.0625 0  0.0625 0.3125 0  -0.4375 -0.3125 0  -0.875 -0.875 0  -0.8749999999999999 -1 0  0 -0.015625 0  0.0078125 0.0078125 0  0.0078125 0 0  -0.0078125 0.0078125 0  0 0.0078125 0  -0.0078125 0 0  -0.0078125 -0.0078125 0  -0.75 -0.875 0  -0.625 -0.75 0  -0.25 -0.375 0  -0.3125 -0.1875 0  -0.1875 -0.3125 0  -0.3125 -0.25 0  -0.3125 -0.3125 0  -0.5 -0.625 0  -0.375 -0.5 0  -0.4375 -0.5625 0  -0.4375 -0.4375 0  -0.625 -0.875 0  -0.6249999999999999 -1 0  0 -0.375 0  -0.0625 -0.3125 0  -0.0625 -0.25 0  -0.4999999999999999 -0.875 0  -0.375 -0.75 0  -0.4375 -0.8125 0  -0.1875 -0.4375 0  -0.3125 -0.5625 0  -0.1875 -0.5 0  -0.1875 -0.5625 0  -0.3125 -0.4375 0  -0.3749999999999999 -0.9999999999999999 0  -0.4374999999999999 -0.9375 0  -0.0625 -0.4375 0  0.3125 0.125 0  0.4375 0.125 0  0.125 0.3125 0  -0.125 0.1875 0  -0.1875 0.125 0  0.1875 0.125 0  0.125 0.1875 0  -0.125 -0.4375 0  -0.125 -0.3125 0  -0.375 -0.3125 0  0 -0.046875 0  0.0234375 0.0078125 0  0.0078125 0.0234375 0  -0.0078125 0.0234375 0  0 0.0234375 0  -0.0234375 0.0078125 0  -0.0234375 0 0  -0.0234375 -0.0078125 0  -0.0078125 -0.0234375 0  -0.0078125 -0.0390625 0  0.015625 0.0078125 0  0.0078125 0.015625 0  -0.0078125 0.015625 0  -0.015625 0.0078125 0  -0.015625 -0.0078125 0  -0.015625 -0.03125 0  </DataArray>
</Points>
<Cells>
<DataArray  type="UInt32"  Name="connectivity"  format="ascii">0 2 175  0 1 175  2 179 183  5 179 183  2 178 183  4 178 183  1 177 180  4 177 180  1 176 180  3 176 180  4 175 178  2 175 178  4 175 177  1 175 177  9 198 202  22 198 202  9 197 202  21 197 202  21 94 196  8 94 196  20 94 195  8 94 195  5 187 194  9 187 194  5 186 194  8 186 194  21 194 197  9 194 197  21 194 196  8 194 196  6 190 201  19 190 201  6 189 201  18 189 201  3 182 188  7 182 188  3 181 188  6 181 188  20 93 193  7 93 193  19 93 192  7 93 192  19 188 192  7 188 192  19 188 190  6 188 190  8 183 186  5 183 186  8 183 185  4 183 185  20 191 195  8 191 195  20 191 193  7 191 193  7 180 184  4 180 184  7 180 182  3 180 182  4 185 191  8 185 191  4 184 191  7 184 191  111 121 165  78 121 165  75 111 121  113 165 172  111 165 172  113 165 166  78 165 166  156 172 232  113 172 232  111 156 172  158 232 239  156 232 239  158 232 233  113 232 233  223 239 338  158 239 338  156 223 239  225 338 346  223 338 346  225 338 339  158 338 339  225 292 346  223 292 346  225 292 294  51 292 294  78 105 121  75 105 121  78 105 106  47 105 106  111 120 163  76 120 163  75 111 120  112 163 171  111 163 171  112 163 164  76 163 164  156 171 230  112 171 230  111 156 171  157 230 238  156 230 238  157 230 231  112 230 231  223 238 336  157 238 336  156 223 238  224 336 345  223 336 345  224 336 337  157 336 337  224 292 345  223 292 345  224 292 293  51 292 293  76 103 120  75 103 120  76 103 104  45 103 104  67 69 215  45 69 215  67 69 272  69 272 274  39 272 274  67 211 215  38 210 211  45 210 215  210 211 215  68 213 217  40 212 213  47 212 217  212 213 217  68 70 217  47 70 217  68 70 273  70 273 275  39 273 275  70 275 276  39 275 276  70 276 327  75 276 327  47 70 105  75 105 327  70 105 327  69 274 276  39 274 276  69 276 326  75 276 326  45 69 103  75 103 326  69 103 326  29 201 253  19 201 253  18 29 201  30 93 95  20 93 95  30 93 254  19 93 254  38 135 137  135 137 264  30 137 264  38 135 136  29 135 136  135 255 264  19 254 255  30 254 264  254 255 264  29 135 253  135 253 255  19 253 255  32 202 204  22 202 204  32 202 203  21 202 203  40 138 140  32 138 140  40 138 139  31 138 139  21 31 94  31 94 96  20 94 96  32 138 203  21 138 203  21 31 138  67 98 272  39 98 272  30 67 98  67 137 211  38 137 211  30 67 137  20 96 97  31 96 97  20 95 97  30 95 97  68 139 213  40 139 213  31 68 139  68 99 273  39 99 273  31 68 99  39 97 99  31 97 99  39 97 98  30 97 98  22 205 207  33 205 207  22 204 207  32 204 207  33 42 214  33 209 214  41 209 214  41 147 208  32 147 208  32 140 147  40 140 147  41 207 209  33 207 209  41 207 208  32 207 208  46 52 287  46 50 287  49 219 227  54 219 227  49 218 227  52 218 227  42 49 216  42 46 216  52 216 218  49 216 218  46 52 216  47 79 107  79 80 107  53 79 116  79 80 116  78 106 107  47 106 107  78 107 122  80 107 122  113 166 167  78 166 167  113 167 173  114 167 173  158 233 234  113 233 234  158 234 240  159 234 240  225 339 340  158 339 340  225 340 347  226 340 347  225 294 295  51 294 295  225 295 347  226 295 347  226 240 340  158 240 340  159 226 240  159 173 234  113 173 234  114 159 173  114 122 167  78 122 167  80 114 122  48 77 148  40 77 148  47 77 212  40 77 212  48 152 286  152 160 286  54 152 306  152 160 306  48 151 286  151 286 332  160 286 332  151 301 302  53 301 302  151 302 332  160 302 332  77 151 299  151 299 301  53 299 301  48 77 151  77 79 299  53 79 299  47 77 79  42 49 214  41 49 214  54 150 219  49 150 219  54 150 152  48 150 152  48 147 149  41 147 149  48 147 148  40 147 148  41 49 150  41 149 150  48 149 150  64 90 92  63 90 92  64 90 91  62 90 91  63 86 89  61 86 89  63 86 87  60 86 87  62 85 88  61 85 88  62 85 320  85 320 321  59 320 321  61 89 90  63 89 90  61 88 90  62 88 90  80 116 117  53 115 116  115 117 311  56 117 311  115 116 117  80 117 174  80 114 174  114 168 241  114 159 241  159 235 348  159 226 348  226 295 341  51 289 295  220 289 341  289 295 341  235 333 342  220 333 342  153 235 333  220 341 342  226 341 348  235 342 348  341 342 348  108 153 168  153 168 241  153 235 241  159 235 241  56 108 117  108 117 174  108 168 174  114 168 174  160 306 319  54 304 306  58 304 319  304 306 319  160 302 319  53 298 302  58 298 319  298 302 319  83 322 330  81 322 330  60 83 322  83 315 330  81 315 330  83 315 317  58 315 317  81 310 322  56 309 310  60 309 322  309 310 322  81 300 315  53 298 300  58 298 315  298 300 315  115 310 331  81 310 331  115 310 311  56 310 311  115 300 331  81 300 331  53 115 300  55 288 296  50 287 288  52 287 296  287 288 296  59 307 312  57 307 312  59 307 308  55 307 308  57 227 303  54 227 303  57 227 297  52 227 297  52 296 297  55 296 307  57 297 307  296 297 307  58 84 318  84 86 318  61 84 86  83 317 318  58 317 318  83 86 318  60 83 86  82 305 316  54 304 305  58 304 316  304 305 316  57 82 303  82 303 305  54 303 305  61 85 313  85 313 314  57 313 314  85 312 321  59 312 321  85 312 314  57 312 314  61 82 84  82 84 316  58 84 316  61 82 313  57 82 313  17 18 124  18 29 124  29 132 134  28 132 134  29 134 136  38 134 136  16 17 252  17 28 252  17 28 124  28 124 132  29 124 132  45 72 102  73 102 329  72 102 329  72 280 281  43 280 281  72 281 329  73 281 329  76 102 119  73 102 119  76 102 104  45 102 104  109 119 162  76 119 162  73 109 119  112 162 170  109 162 170  112 162 164  76 162 164  154 170 229  112 170 229  109 154 170  157 229 237  154 229 237  157 229 231  112 229 231  221 237 335  157 237 335  154 221 237  224 335 344  221 335 344  224 335 337  157 335 337  224 290 344  221 290 344  224 290 293  51 290 293  37 142 143  34 142 143  37 143 146  143 146 282  43 146 282  38 66 145  37 66 145  66 210 285  45 210 285  38 66 210  66 146 278  43 146 278  37 66 146  72 278 325  66 278 325  72 278 280  43 278 280  72 285 325  66 285 325  45 72 285  10 15 243  15 243 249  23 243 249  16 248 250  15 248 250  16 250 251  27 250 251  125 258 261  23 257 258  27 257 261  257 258 261  34 125 260  125 260 261  27 260 261  23 249 250  15 249 250  23 250 257  27 250 257  37 133 134  28 133 134  37 134 145  38 134 145  34 131 260  131 260 262  27 260 262  34 131 142  37 131 142  27 251 252  16 251 252  27 252 259  28 252 259  131 262 263  27 259 262  28 259 263  259 262 263  131 133 263  28 133 263  37 131 133  11 24 199  11 12 199  25 123 200  12 123 200  12 13 123  24 35 127  25 127 206  24 127 206  25 199 206  24 199 206  25 199 200  12 199 200  14 242 243  10 242 243  14 243 246  23 243 246  26 125 256  125 256 258  23 256 258  26 125 129  34 125 129  13 245 247  26 245 247  13 244 247  14 244 247  23 246 247  14 246 247  23 247 256  26 247 256  71 100 284  44 100 284  73 100 328  71 100 328  71 279 281  43 279 281  71 281 328  73 281 328  74 100 118  73 100 118  74 100 101  44 100 101  109 118 161  74 118 161  73 109 118  110 161 169  109 161 169  74 110 161  154 169 228  110 169 228  109 154 169  155 228 236  154 228 236  110 155 228  221 236 334  155 236 334  154 221 236  222 334 343  221 334 343  155 222 334  222 290 343  221 290 343  222 290 291  51 290 291  65 266 283  35 265 266  44 265 283  265 266 283  144 268 324  65 268 324  144 268 271  36 268 271  144 266 324  65 266 324  35 144 266  36 141 270  141 143 270  34 141 143  143 270 282  36 267 270  43 267 282  267 270 282  65 268 277  36 267 268  43 267 277  267 268 277  71 277 323  65 277 323  71 277 279  43 277 279  71 283 323  65 283 323  71 283 284  44 283 284  26 123 126  25 123 126  26 123 245  13 123 245  34 129 130  26 129 130  34 130 141  36 130 141  127 144 269  144 269 271  36 269 271  35 127 144  127 128 269  36 128 269  25 127 128  25 128 130  36 128 130  25 126 130  26 126 130  </DataArray>
<DataArray  type="UInt32"  Name="offsets"  format="ascii">3 6 9 12 15 18 21 24 27 30 33 36 39 42 45 48 51 54 57 60 63 66 69 72 75 78 81 84 87 90 93 96 99 102 105 108 111 114 117 120 123 126 129 132 135 138 141 144 147 150 153 156 159 162 165 168 171 174 177 180 183 186 189 192 195 198 201 204 207 210 213 216 219 222 225 228 231 234 237 240 243 246 249 252 255 258 261 264 267 270 273 276 279 282 285 288 291 294 297 300 303 306 309 312 315 318 321 324 327 330 333 336 339 342 345 348 351 354 357 360 363 366 369 372 375 378 381 384 387 390 393 396 399 402 405 408 411 414 417 420 423 426 429 432 435 438 441 444 447 450 453 456 459 462 465 468 471 474 477 480 483 486 489 492 495 498 501 504 507 510 513 516 519 522 525 528 531 534 537 540 543 546 549 552 555 558 561 564 567 570 573 576 579 582 585 588 591 594 597 600 603 606 609 612 615 618 621 624 627 630 633 636 639 642 645 648 651 654 657 660 663 666 669 672 675 678 681 684 687 690 693 696 699 702 705 708 711 714 717 720 723 726 729 732 735 738 741 744 747 750 753 756 759 762 765 768 771 774 777 780 783 786 789 792 795 798 801 804 807 810 813 816 819 822 825 828 831 834 837 840 843 846 849 852 855 858 861 864 867 870 873 876 879 882 885 888 891 894 897 900 903 906 909 912 915 918 921 924 927 930 933 936 939 942 945 948 951 954 957 960 963 966 969 972 975 978 981 984 987 990 993 996 999 1002 1005 1008 1011 1014 1017 1020 1023 1026 1029 1032 1035 1038 1041 1044 1047 1050 1053 1056 1059 1062 1065 1068 1071 1074 1077 1080 1083 1086 1089 1092 1095 1098 1101 1104 1107 1110 1113 1116 1119 1122 1125 1128 1131 1134 1137 1140 1143 1146 1149 1152 1155 1158 1161 1164 1167 1170 1173 1176 1179 1182 1185 1188 1191 1194 1197 1200 1203 1206 1209 1212 1215 1218 1221 1224 1227 1230 1233 1236 1239 1242 1245 1248 1251 1254 1257 1260 1263 1266 1269 1272 1275 1278 1281 1284 1287 1290 1293 1296 1299 1302 1305 1308 1311 1314 1317 1320 1323 1326 1329 1332 1335 1338 1341 1344 1347 1350 1353 1356 1359 1362 1365 1368 1371 1374 1377 1380 1383 1386 1389 1392 1395 1398 1401 1404 1407 1410 1413 1416 1419 1422 1425 1428 1431 1434 1437 1440 1443 1446 1449 1452 1455 1458 1461 1464 1467 1470 1473 1476 1479 1482 1485 1488 1491 1494 1497 1500 1503 1506 1509 1512 1515 1518 1521 1524 1527 1530 1533 1536 1539 1542 1545 1548 1551 1554 1557 1560 1563 1566 1569 1572 1575 1578 1581 1584 1587 1590 1593 1596 1599 1602 1605 1608 1611 1614 1617 1620 1623 1626 1629 1632 1635 1638 1641 1644 1647 1650 1653 1656 1659 1662 1665 1668 1671 1674 1677 1680 1683 1686 1689 1692 1695 1698 1701 1704 1707 1710 1713 1716 1719 1722 1725 1728 1731 1734 1737 1740 1743 1746 1749 1752 1755 1758 1761 1764 1767 1770 1773 1776 1779 1782 1785 1788 1791 1794 1797 1800 1803 1806 1809 1812 1815 1818 1821 1824 1827 1830 1833 1836 1839 1842 1845 1848 1851 1854 1857 1860 1863 1866 1869 1872 1875 1878 1881 1884 1887 1890 1893 1896 1899 1902 1905 </DataArray>
<DataArray  type="UInt8"  Name="types"  format="ascii">5 5 5 5 5 5 5 5 5 5 5 5 5 5 5 5 5 5 5 5 5 5 5 5 5 5 5 5 5 5 5 5 5 5 5 5 5 5 5 5 5 5 5 5 5 5 5 5 5 5 5 5 5 5 5 5 5 5 5 5 5 5 5 5 5 5 5 5 5 5 5 5 5 5 5 5 5 5 5 5 5 5 5 5 5 5 5 5 5 5 5 5 5 5 5 5 5 5 5 5 5 5 5 5 5 5 5 5 5 5 5 5 5 5 5 5 5 5 5 5 5 5 5 5 5 5 5 5 5 5 5 5 5 5 5 5 5 5 5 5 5 5 5 5 5 5 5 5 5 5 5 5 5 5 5 5 5 5 5 5 5 5 5 5 5 5 5 5 5 5 5 5 5 5 5 5 5 5 5 5 5 5 5 5 5 5 5 5 5 5 5 5 5 5 5 5 5 5 5 5 5 5 5 5 5 5 5 5 5 5 5 5 5 5 5 5 5 5 5 5 5 5 5 5 5 5 5 5 5 5 5 5 5 5 5 5 5 5 5 5 5 5 5 5 5 5 5 5 5 5 5 5 5 5 5 5 5 5 5 5 5 5 5 5 5 5 5 5 5 5 5 5 5 5 5 5 5 5 5 5 5 5 5 5 5 5 5 5 5 5 5 5 5 5 5 5 5 5 5 5 5 5 5 5 5 5 5 5 5 5 5 5 5 5 5 5 5 5 5 5 5 5 5 5 5 5 5 5 5 5 5 5 5 5 5 5 5 5 5 5 5 5 5 5 5 5 5 5 5 5 5 5 5 5 5 5 5 5 5 5 5 5 5 5 5 5 5 5 5 5 5 5 5 5 5 5 5 5 5 5 5 5 5 5 5 5 5 5 5 5 5 5 5 5 5 5 5 5 5 5 5 5 5 5 5 5 5 5 5 5 5 5 5 5 5 5 5 5 5 5 5 5 5 5 5 5 5 5 5 5 5 5 5 5 5 5 5 5 5 5 5 5 5 5 5 5 5 5 5 5 5 5 5 5 5 5 5 5 5 5 5 5 5 5 5 5 5 5 5 5 5 5 5 5 5 5 5 5 5 5 5 5 5 5 5 5 5 5 5 5 5 5 5 5 5 5 5 5 5 5 5 5 5 5 5 5 5 5 5 5 5 5 5 5 5 5 5 5 5 5 5 5 5 5 5 5 5 5 5 5 5 5 5 5 5 5 5 5 5 5 5 5 5 5 5 5 5 5 5 5 5 5 5 5 5 5 5 5 5 5 5 5 5 5 5 5 5 5 5 5 5 5 5 5 5 5 5 5 5 5 5 5 5 5 5 5 5 5 5 5 5 5 5 5 5 5 5 5 5 5 5 5 5 5 5 5 5 5 5 5 5 5 5 5 5 5 5 5 5 5 5 5 5 5 5 5 5 5 5 5 5 5 5 5 5 </DataArray>
</Cells>
<PointData  Scalars="u"> 
<DataArray  type="Float64"  Name="u"  format="ascii">1.2601678603878672e+00  1.1549893985087050e+00  1.1549896585012553e+00  1.0523500425723302e+00  1.0400825626182983e+00  1.0523520371166515e+00  9.5473167197664710e-01  9.2448076692974857e-01  9.2451141643513524e-01  9.5473961359730930e-01  6.3003165479736467e-01  -3.5191637687240483e-04  1.6630727810329027e-01  3.2801047149434237e-01  4.8277912118629651e-01  6.7248470070364808e-01  7.2458829699584149e-01  7.8889198255120407e-01  8.6627828380726157e-01  8.1372305131372247e-01  7.9347729910196130e-01  8.1491086717205508e-01  8.6616441680133061e-01  5.1984283391940433e-01  3.1275715814672509e-04  1.8173374496042419e-01  3.5667338424755457e-01  5.6814995173124794e-01  6.3244381949088990e-01  7.1442326270724321e-01  6.6199741289870162e-01  6.6203783800273841e-01  7.1409680387942143e-01  7.8878454587193014e-01  3.9643281243927425e-01  7.2275983510385132e-04  2.0641078702723564e-01  4.5640408833989532e-01  5.4457731485468208e-01  5.0015380708638935e-01  5.4467290592627471e-01  6.3186345056747284e-01  7.2482656390053102e-01  2.4956882795127125e-01  3.3653715910437841e-04  3.4187718771700643e-01  6.7256000397547144e-01  3.4131756898989885e-01  4.5652090400760553e-01  5.6771066293835482e-01  6.3005964836213346e-01  2.9540212010283813e-03  5.1993974784627983e-01  2.4955572316219451e-01  3.9646916666996918e-01  4.8282420150661903e-01  2.7555914609839281e-04  3.5677296752796245e-01  2.0606048883524897e-01  3.2767462705329020e-01  6.5467518536200988e-04  1.8173633715418813e-01  1.6612225983450785e-01  3.1057337806144068e-04  -3.4213908024403216e-04  1.1480398915574878e-01  3.9764273931452182e-01  5.1312549008976338e-01  5.1283570848753890e-01  4.1708998539684489e-01  4.1703418699133610e-01  1.2972182521214765e-01  2.8612186299452946e-01  1.5765472259927257e-01  -4.0565208998607035e-04  3.1348193886969533e-01  2.1556003325909295e-01  3.9838719457416855e-01  2.1495813297055039e-01  2.8721307769562465e-01  1.5779569207950930e-01  1.1441081181839047e-01  2.8532108642464588e-01  1.0375562874031385e-01  1.9238025611178849e-01  2.5807867556592090e-01  9.7698538178673855e-02  -2.1571305262297252e-04  1.7313511981237173e-01  9.1425284825375860e-02  8.7271731925207666e-02  8.3166050007365031e-02  -1.2749703296928094e-04  7.9822053937270310e-01  7.9805576863809069e-01  7.2730025584655522e-01  7.2725578352586639e-01  6.5380785623570237e-01  5.8173064605193736e-01  5.8174447865959700e-01  7.1682662780977999e-02  1.7134402331760176e-04  2.5050285472106332e-01  3.2254484853755266e-01  2.8268157461285159e-01  3.2240350488276065e-01  2.8239155253769704e-01  2.5020853781133839e-01  6.1258981593555355e-05  9.9429395221865946e-02  -2.4797291723496209e-04  1.9837877854899696e-01  1.3563304370634383e-01  1.3530738124539285e-01  9.8415918783219439e-02  1.3023902793923425e-01  2.0607952457363871e-01  7.2518352452488957e-02  8.0912836228843002e-02  1.8056683187025538e-01  2.6194904805429164e-01  2.6188292200217433e-01  1.8049299901465049e-01  2.5815474121831494e-01  7.4973529357397284e-01  4.6057699365254356e-01  2.7029216424860397e-01  9.7735198520695801e-02  1.9218231415191603e-01  3.7451032360719255e-01  2.8531612144525348e-01  5.1310559787856280e-01  6.7094834735151754e-01  5.4701493876595086e-01  5.8691103778270870e-01  6.8394354414796210e-01  6.3265527446578407e-01  6.0007450619305724e-01  6.8324735162332195e-01  6.0048243936761891e-01  6.3253988046423371e-01  3.0343726071239258e-01  4.2324531967535295e-01  3.2734645235777227e-01  1.0378312474939901e-01  4.9651487496742158e-01  3.5761536800581467e-01  5.8683272760503891e-01  4.9662271097379890e-01  5.4706982469078824e-01  5.1345641063387448e-01  3.5767130554616638e-01  4.2333339210966819e-01  3.5244761272101560e-05  6.2582583059525812e-02  -1.4885510863069340e-04  1.2490334311560823e-01  8.5297613097830058e-02  8.5104312368386309e-02  6.1983472264306706e-02  3.2753747446780129e-01  4.5650066870422966e-02  1.5730845344512212e-01  2.0263183891323633e-01  1.7776173502718354e-01  2.0257816288787517e-01  1.7769699254554205e-01  1.5755736479389779e-01  4.5602053119575166e-02  5.1003143876536448e-02  1.1367972193564820e-01  1.6464103155294024e-01  1.6462272827043320e-01  1.1366881582122211e-01  8.1396784118140109e-02  1.1524751936253259e+00  1.1035015224835054e+00  1.0977661017664049e+00  1.0977689159409745e+00  1.1035008548063285e+00  1.0428674358961201e+00  1.0028740449668903e+00  9.8927024701960153e-01  1.0429343567233635e+00  9.8219685044319305e-01  9.8220906799261531e-01  9.8930512232427259e-01  1.0028708976766980e+00  9.3617806955358229e-01  9.0911342951959351e-01  8.8558527804358289e-01  9.2045515908310471e-01  8.6847659236842434e-01  8.5937997665204602e-01  9.3640555727727837e-01  8.5934697433246165e-01  8.6861824937031207e-01  8.8578509275573403e-01  9.0910175178712194e-01  8.7154739857978503e-02  1.7316630545082015e-01  8.3664925238893351e-01  8.3714697138040606e-01  7.6223775012012618e-01  7.9195122901156545e-01  8.2582874691385477e-01  9.1404728682847616e-02  7.5016473962583907e-01  6.7079303873335860e-01  7.1220957340047464e-01  4.4926744221667358e-01  5.2689537518441987e-01  4.4962189723605145e-01  5.2708384746103787e-01  6.7873727825854024e-01  4.3045979397395051e-01  6.2059263230065287e-01  4.3038780135973448e-01  5.4232296629734433e-01  4.8460913654136661e-01  1.6006446784411197e-05  3.9316786516632417e-02  -3.3112788845780615e-04  7.8564239081678769e-02  5.3578177097645889e-02  5.3240241385363533e-02  3.9144470993879986e-02  4.6028142448719883e-01  2.8757384087360342e-02  9.8987604259965611e-02  1.2755652771340714e-01  1.1185423599513213e-01  1.2754693187521360e-01  1.1184853276958399e-01  9.9185974196987867e-02  2.8610738004215101e-02  3.2101988075230008e-02  7.1497679046874596e-02  1.0360848491488078e-01  1.0360562608638839e-01  7.1528919536342953e-02  5.1192709638017801e-02  5.5734618258068436e-01  5.7651677472218588e-01  4.0614187859326850e-01  3.4092817729374170e-01  5.0013145475685461e-01  4.2183881113403954e-01  6.9721675152239715e-01  5.9738371904198351e-01  6.2140713982610962e-01  6.4802792124998276e-01  6.7823473720904259e-01  7.6236470858110406e-01  7.3945789987033139e-01  7.4989975700307654e-01  4.3959954064734413e-01  5.4237281633484780e-01  4.9052713810162751e-01  5.9820190864949307e-01  4.8470569912577238e-01  5.1387343273457586e-01  5.4089805837656613e-01  5.7263706945955484e-01  6.7175404372169689e-01  -1.0648780544822141e-06  5.4682233428048982e-02  2.2448463552074285e-01  1.6212655760735203e-01  1.5014308291703676e-01  2.6527140960871981e-01  1.5570772124491106e-01  5.0243779240559827e-01  5.0244579816029411e-01  4.5759047038783063e-01  4.5757813230579880e-01  4.1223250098620218e-01  1.7966570639094445e-01  3.2303157476111100e-01  1.9134875934108567e-01  2.6638037562160594e-01  2.0628483448521578e-01  2.8947273060608164e-01  6.1220264944596141e-02  6.5574326802229910e-02  3.6978591993567833e-01  3.9100468520625481e-01  5.7602599582986547e-01  5.5741057670724026e-01  -2.4950590786423753e-04  2.4946878368780612e-02  -6.4503420858134507e-04  4.9363625429098529e-02  3.3105217792581201e-02  3.2983618322740195e-02  2.3927138380416411e-02  5.0035117224656322e-01  4.3966761288081113e-01  2.2431569009258995e-01  3.2347444792473967e-01  1.7914640141510957e-01  3.0499125243430530e-01  2.8947585907586992e-01  3.7444258430600169e-01  3.0366936577778963e-01  3.4009262789260331e-01  3.6290048302266109e-01  4.2169655946793627e-01  4.0614228275443365e-01  4.2405608876743727e-06  6.1152113427593913e-02  6.5583918555227674e-02  3.4098332936953007e-01  2.7019690979943545e-01  3.0653667148016950e-01  1.6200346769519333e-01  2.4692733693171423e-01  1.5563111104600749e-01  1.5022754933377513e-01  2.6524400542064053e-01  2.4758302510579161e-01  2.9363402452668452e-01  5.4708901414535126e-02  1.2127205482277255e-01  1.0899930282243855e-01  3.4414848349885641e-01  3.6605865951348165e-01  3.6601029521106798e-01  1.4109013177231233e-01  2.2494859924043814e-01  1.0878765444442322e-01  1.2114432458319252e-01  3.4142512451568491e-01  1.1262864347738728e-04  1.8100508978786869e-02  6.2184914844119532e-02  8.0212224567160095e-02  7.0269752146972911e-02  8.0207427302581194e-02  7.0267428200292623e-02  6.2336121373948776e-02  1.7984086519007788e-02  1.5150396628253800e-02  2.0311560430649675e-02  4.4727329685803577e-02  6.5159697237913539e-02  6.5148664687312424e-02  4.4703821412333762e-02  3.2467224915110914e-02  </DataArray> 
</PointData> 
</Piece>
</UnstructuredGrid>
</VTKFile>