<?xml version="1.0"?>
<VTKFile type="UnstructuredGrid"  version="0.1"  >
<UnstructuredGrid>
<Piece  NumberOfPoints="89" NumberOfCells="142">
<Points>
<DataArray  type="Float64"  NumberOfComponents="3"  format="ascii">-1 1 0  -0.75 1 0  -1 0.75 0  -0.5 1 0  -0.75 0.75 0  -1 0.5 0  -0.25 1 0  -0.5 0.75 0  -0.75 0.5 0  -1 0.25 0  1 1 0  1 1.110223024625157e-16 0  1 0.2500000000000001 0  1 0.5 0  1 0.75 0  0.75 1 0  0.5 1 0  0.25 1 0  0 1 0  -0.25 0.75 0  -0.5 0.5 0  -0.75 0.25 0  -1 0 0  0.75 0.75 0  0.75 0 0  0.75 0.25 0  0.75 0.5 0  0.5 0.75 0  0.25 0.75 0  0 0.75 0  -0.25 0.5 0  -0.5 0.25 0  -0.75 0 0  -1 -0.2500000000000001 0  0.5 0.5 0  0.5 0 0  0.5 0.25 0  0.25 0.5 0  0 0.5 0  -0.25 0.25 0  -0.5 0 0  -0.75 -0.2500000000000001 0  -1 -0.5 0  0.25 0.25 0  0.25 0 0  0 0.25 0  -1 -0.75 0  -0.25 0 0  -0.5 -0.25 0  -0.75 -0.5 0  -0.9999999999999999 -1 0  0 0 0  -0.75 -0.75 0  -0.25 -0.25 0  -0.5 -0.5 0  -0.7499999999999999 -1 0  0 -0.25 0  -0.5 -0.75 0  -0.25 -0.5 0  -0.4999999999999999 -0.9999999999999999 0  0 -0.5 0  -0.25 -0.75 0  -0.2499999999999999 -0.9999999999999999 0  0 -0.75 0  0 -0.9999999999999999 0  0.375 0.375 0  0.375 0.25 0  0.375 0.125 0  0.25 0.375 0  0.125 0.375 0  -0.125 0.375 0  -0.375 0.125 0  -0.125 0.25 0  -0.25 0.125 0  0.25 0.125 0  0.125 0.25 0  0.125 0.125 0  0.125 0 0  -0.125 0.125 0  0 0.125 0  -0.375 -0.125 0  -0.125 0 0  -0.25 -0.125 0  -0.375 -0.25 0  -0.125 -0.125 0  0 -0.125 0  -0.375 -0.375 0  -0.125 -0.25 0  -0.125 -0.375 0  </DataArray>
</Points>
<Cells>
<DataArray  type="UInt32"  Name="connectivity"  format="ascii">0 1 2  2 4 5  1 3 4  1 2 4  9 21 22  8 20 21  5 8 9  8 9 21  6 18 19  3 6 7  7 19 20  6 7 19  4 5 8  7 8 20  3 4 7  4 7 8  51 78 81  47 78 81  51 78 79  45 78 79  45 70 72  39 70 72  38 45 70  40 47 71  47 71 73  39 71 73  39 73 78  47 73 78  39 72 78  45 72 78  18 19 29  19 20 30  29 30 38  19 29 30  21 22 32  31 32 40  20 21 31  21 31 32  30 39 70  30 38 70  20 30 31  31 40 71  31 39 71  30 31 39  22 32 33  33 41 42  32 40 41  32 33 41  46 50 52  49 52 54  42 46 49  46 49 52  47 82 84  53 82 84  47 81 84  51 81 84  40 48 80  40 47 80  48 54 86  48 83 86  53 83 86  53 80 83  48 80 83  53 80 82  47 80 82  41 42 49  48 49 54  40 41 48  41 48 49  62 63 64  60 61 63  59 61 62  61 62 63  56 84 87  53 84 87  56 84 85  51 84 85  54 58 86  53 58 86  58 60 88  56 60 88  53 58 88  53 87 88  56 87 88  50 52 55  55 57 59  52 54 57  52 55 57  58 60 61  54 57 58  57 59 61  57 58 61  17 18 29  28 29 38  16 17 28  17 28 29  45 75 76  43 75 76  45 76 79  51 76 79  34 37 65  37 65 68  43 65 68  37 38 69  38 45 69  43 68 69  37 68 69  43 69 75  45 69 75  10 15 23  15 16 27  23 27 34  15 23 27  28 37 38  27 34 37  16 27 28  27 28 37  11 12 24  12 13 25  24 25 35  12 24 25  10 14 23  23 26 34  13 14 26  14 23 26  44 74 76  43 74 76  44 76 77  51 76 77  35 44 67  35 36 67  34 36 65  36 65 66  43 65 66  43 66 67  36 66 67  43 67 74  44 67 74  13 25 26  26 34 36  25 35 36  25 26 36  </DataArray>
<DataArray  type="UInt32"  Name="offsets"  format="ascii">3 6 9 12 15 18 21 24 27 30 33 36 39 42 45 48 51 54 57 60 63 66 69 72 75 78 81 84 87 90 93 96 99 102 105 108 111 114 117 120 123 126 129 132 135 138 141 144 147 150 153 156 159 162 165 168 171 174 177 180 183 186 189 192 195 198 201 204 207 210 213 216 219 222 225 228 231 234 237 240 243 246 249 252 255 258 261 264 267 270 273 276 279 282 285 288 291 294 297 300 303 306 309 312 315 318 321 324 327 330 333 336 339 342 345 348 351 354 357 360 363 366 369 372 375 378 381 384 387 390 393 396 399 402 405 408 411 414 417 420 423 426 </DataArray>
<DataArray  type="UInt8"  Name="types"  format="ascii">5 5 5 5 5 5 5 5 5 5 5 5 5 5 5 5 5 5 5 5 5 5 5 5 5 5 5 5 5 5 5 5 5 5 5 5 5 5 5 5 5 5 5 5 5 5 5 5 5 5 5 5 5 5 5 5 5 5 5 5 5 5 5 5 5 5 5 5 5 5 5 5 5 5 5 5 5 5 5 5 5 5 5 5 5 5 5 5 5 5 5 5 5 5 5 5 5 5 5 5 5 5 5 5 5 5 5 5 5 5 5 5 5 5 5 5 5 5 5 5 5 5 5 5 5 5 5 5 5 5 5 5 5 5 5 5 5 5 5 5 5 5 </DataArray>
</Cells>
<PointData  Scalars="u"> 
<DataArray  type="Float64"  Name="u"  format="ascii">1.2602402198835783e+00  1.1543813131440750e+00  1.1543821078314502e+00  1.0515151559515430e+00  1.0402768059758039e+00  1.0515328822719363e+00  9.5381414993557168e-01  9.2347394210665279e-01  9.2365627869610334e-01  9.5386406079879438e-01  6.3080376225433210e-01  -4.8233715825408957e-04  1.6710275744279640e-01  3.2862623080404224e-01  4.8333741645573125e-01  6.7279034755045597e-01  7.2483862139261734e-01  7.8854393936106437e-01  8.6577496454585523e-01  8.1365323230950859e-01  7.9352338755385865e-01  8.1440736907702971e-01  8.6572317645333885e-01  5.1933785664773968e-01  1.2128339901658586e-03  1.8127882390818939e-01  3.5732244943099972e-01  5.6712357383023138e-01  6.3097658959864578e-01  7.1263562964662697e-01  6.5877833864856095e-01  6.5981448390857900e-01  7.1472139972264059e-01  7.8870194165091478e-01  3.9488085277586249e-01  2.5299647408110197e-03  2.0651661718864006e-01  4.5549355646010548e-01  5.4237013249090171e-01  5.0193955863258710e-01  5.4559435551447111e-01  6.3483279710879503e-01  7.2500352832571835e-01  2.4845420817008920e-01  1.2518629397006292e-03  3.4048502085295912e-01  6.7275296428193865e-01  3.4274511760889687e-01  4.6337132848810941e-01  5.7368848399935479e-01  6.3011665779128634e-01  1.8779038941318001e-02  5.2613533326684347e-01  2.5482553545322056e-01  4.0843478366121821e-01  4.8262294707237791e-01  1.3471077740130014e-03  3.7796781687775888e-01  2.3479508073133973e-01  3.2477979112087763e-01  -8.4097021648173280e-03  2.4687125541234933e-01  1.8664703331956864e-01  2.5322826329828868e-01  -7.8289313746407463e-02  3.2709643861015508e-01  2.2357875183841913e-01  1.1441810221774157e-01  3.5643715227438544e-01  3.9658124059357397e-01  5.1094326646772559e-01  5.1178033477391505e-01  4.1699578645917551e-01  4.1797416403765070e-01  1.2877534156618789e-01  2.8542504320051004e-01  1.5898360796613445e-01  -4.1099025492743468e-03  3.1106053428324248e-01  2.1138436200570035e-01  4.0158075721302472e-01  2.1251651057204432e-01  2.8936883988893147e-01  3.6446811465970902e-01  1.6111478268414875e-01  -4.0785698867936105e-03  3.4144791405565428e-01  1.3266367284620065e-01  1.2060182259654637e-01  </DataArray> 
</PointData> 
</Piece>
</UnstructuredGrid>
</VTKFile>