<?xml version="1.0"?>
<VTKFile type="UnstructuredGrid"  version="0.1"  >
<UnstructuredGrid>
<Piece  NumberOfPoints="2324" NumberOfCells="4490">
<Points>
<DataArray  type="Float64"  NumberOfComponents="3"  format="ascii">-1 1 0  -0.75 1 0  -1 0.75 0  -0.5 1 0  -0.75 0.75 0  -1 0.5 0  -0.25 1 0  -0.5 0.75 0  -0.75 0.5 0  -1 0.25 0  1 1 0  1 1.110223024625157e-16 0  1 0.2500000000000001 0  1 0.5 0  1 0.75 0  0.75 1 0  0.5 1 0  0.25 1 0  0 1 0  -0.25 0.75 0  -0.5 0.5 0  -0.75 0.25 0  -1 0 0  0.75 0.75 0  0.75 0 0  0.75 0.25 0  0.75 0.5 0  0.5 0.75 0  0.25 0.75 0  0 0.75 0  -0.25 0.5 0  -0.5 0.25 0  -0.75 0 0  -1 -0.2500000000000001 0  0.5 0.5 0  0.5 0 0  0.5 0.25 0  0.25 0.5 0  0 0.5 0  -0.25 0.25 0  -0.5 0 0  -0.75 -0.2500000000000001 0  -1 -0.5 0  0.25 0.25 0  0.25 0 0  0 0.25 0  -1 -0.75 0  -0.25 0 0  -0.5 -0.25 0  -0.75 -0.5 0  -0.9999999999999999 -1 0  0 0 0  -0.75 -0.75 0  -0.25 -0.25 0  -0.5 -0.5 0  -0.7499999999999999 -1 0  0 -0.25 0  -0.5 -0.75 0  -0.25 -0.5 0  -0.4999999999999999 -0.9999999999999999 0  0 -0.5 0  -0.25 -0.75 0  -0.2499999999999999 -0.9999999999999999 0  0 -0.75 0  0 -0.9999999999999999 0  0.375 0.375 0  0.375 0.25 0  0.375 0.125 0  0.25 0.375 0  0.125 0.375 0  -0.125 0.375 0  -0.375 0.125 0  -0.125 0.25 0  -0.25 0.125 0  0.25 0.125 0  0.125 0.25 0  0.125 0.125 0  0.125 0 0  -0.125 0.125 0  0 0.125 0  -0.375 -0.125 0  -0.125 0 0  -0.25 -0.125 0  -0.375 -0.25 0  -0.125 -0.125 0  0 -0.125 0  -0.375 -0.375 0  -0.125 -0.25 0  -0.125 -0.375 0  0.1875 0.0625 0  0.0625 0.1875 0  -0.0625 0.1875 0  -0.1875 0.0625 0  -0.1875 0 0  -0.1875 -0.0625 0  0.0625 0.0625 0  0.0625 0 0  -0.0625 0.0625 0  0 0.0625 0  -0.0625 0 0  -0.0625 -0.0625 0  0 -0.0625 0  -0.625 -0.625 0  -0.5 -0.625 0  -0.375 -0.5 0  -0.0625 -0.1875 0  -0.375 -0.625 0  -0.375 -0.75 0  -0.125 -0.5 0  -0.25 -0.625 0  -0.3749999999999999 -0.875 0  -0.3749999999999999 -0.9999999999999999 0  -0.125 -0.625 0  0 -0.625 0  -0.2499999999999999 -0.875 0  -0.125 -0.75 0  -0.1249999999999999 -0.875 0  -0.1249999999999999 -0.9999999999999999 0  0 -0.875 0  0.125 0.0625 0  0.0625 0.125 0  -0.0625 0.125 0  -0.125 0.0625 0  -0.125 -0.0625 0  -0.0625 -0.125 0  -0.375 0.875 0  -0.625 0.625 0  -0.375 0.75 0  -0.5 0.625 0  -0.875 0.375 0  -0.625 0.5 0  -0.75 0.375 0  -0.125 0.875 0  -0.375 0.625 0  -0.125 0.75 0  -0.25 0.625 0  -0.625 0.375 0  -0.375 0.5 0  -0.5 0.375 0  -0.875 0.125 0  -0.625 0.25 0  -0.75 0.125 0  0.625 0.125 0  0.625 0.25 0  0.625 0.375 0  0.125 0.625 0  -0.125 0.625 0  0 0.625 0  -0.375 0.375 0  -0.125 0.5 0  -0.25 0.375 0  -0.625 0.125 0  -0.375 0.25 0  -0.5 0.125 0  -0.625 0 0  0.5 0.125 0  -0.625 -0.125 0  0.03125 0.03125 0  0.03125 0 0  -0.03125 0.03125 0  0 0.03125 0  -0.03125 0 0  -0.03125 -0.03125 0  0 -0.03125 0  0.09375 0.03125 0  0.03125 0.09375 0  -0.03125 0.09375 0  0 0.09375 0  -0.09375 0.03125 0  -0.09375 0 0  -0.09375 -0.03125 0  -0.03125 -0.09375 0  0.0625 0.03125 0  0.03125 0.0625 0  -0.03125 0.0625 0  -0.0625 0.03125 0  -0.0625 -0.03125 0  -0.03125 -0.0625 0  -0.875 0.875 0  -0.625 1 0  -0.75 0.875 0  -0.875 0.75 0  -0.625 0.875 0  -0.875 0.625 0  0.875 0.875 0  1 0.1250000000000001 0  0.875 5.551115123125783e-17 0  1 0.3750000000000001 0  0.875 0.1250000000000001 0  0.875 0.2500000000000001 0  1 0.625 0  0.875 0.375 0  0.875 0.5 0  0.875 0.75 0  0.875 0.625 0  0.75 0.875 0  0.625 0.875 0  0.5 0.875 0  0.375 0.875 0  0.25 0.875 0  0.125 0.875 0  0.75 0.625 0  0.625 0.75 0  0.625 0.625 0  0.75 0.125 0  0.75 0.375 0  0.375 0.75 0  0.5 0.625 0  0.375 0.625 0  0.125 0.75 0  0.25 0.625 0  -0.875 -0.125 0  -0.75 -0.125 0  -0.875 -0.2500000000000001 0  0.5 0.375 0  0.375 0.5 0  0.4375 0.4375 0  0.125 0.5 0  0.3125 0.4375 0  0 0.375 0  0.0625 0.4375 0  -0.0625 0.4375 0  -0.375 0 0  -0.5 -0.125 0  -0.4375 0.0625 0  -0.4375 -0.0625 0  -0.875 -0.375 0  -0.625 -0.25 0  -0.75 -0.375 0  -0.875 -0.5 0  0.0625 0.3125 0  -0.0625 0.3125 0  -0.875 -0.625 0  -0.3125 0.0625 0  -0.3125 -0.0625 0  -0.625 -0.375 0  -0.5 -0.375 0  -0.625 -0.5 0  0.015625 0.015625 0  0.015625 0 0  -0.015625 0.015625 0  0 0.015625 0  -0.015625 0 0  -0.015625 -0.015625 0  0 -0.015625 0  0.046875 0.015625 0  0.015625 0.046875 0  -0.015625 0.046875 0  0 0.046875 0  -0.046875 0.015625 0  -0.046875 0 0  -0.046875 -0.015625 0  -0.015625 -0.046875 0  0.03125 0.015625 0  0.015625 0.03125 0  -0.015625 0.03125 0  -0.03125 0.015625 0  -0.03125 -0.015625 0  -0.015625 -0.03125 0  0.625 0 0  0.6875 0.0625 0  0.625 0.5 0  0.6875 0.4375 0  -0.1875 0.4375 0  -0.4375 0.1875 0  0.5625 0.4375 0  0.375 0 0  0.4375 0.0625 0  0.5625 0.0625 0  0.5 0.0625 0  0.4375 0.1875 0  0.5625 0.1875 0  -0.1875 0.3125 0  -0.3125 0.1875 0  -0.1875 0.25 0  -0.25 0.1875 0  -0.1875 0.1875 0  -0.3125 0.3125 0  -0.25 0.3125 0  -0.3125 0.25 0  0.3125 0.3125 0  0.3125 0.25 0  0.3125 0.1875 0  0.1875 0.3125 0  0.25 0.1875 0  0.1875 0.25 0  0.1875 0.1875 0  0.3125 0.0625 0  0.25 0.0625 0  -1 -0.875 0  -0.875 -0.75 0  -0.4375 -0.3125 0  -0.75 -0.625 0  -0.875 -0.875 0  -0.8749999999999999 -1 0  0.0078125 0.0078125 0  0.0078125 0 0  -0.0078125 0.0078125 0  0 0.0078125 0  -0.0078125 0 0  -0.0078125 -0.0078125 0  0 -0.0078125 0  -0.75 -0.875 0  -0.625 -0.75 0  -0.6875 -0.6875 0  -0.25 -0.375 0  -0.3125 -0.1875 0  -0.25 -0.1875 0  -0.3125 -0.25 0  -0.1875 -0.1875 0  -0.3125 -0.3125 0  -0.1875 -0.25 0  -0.1875 -0.3125 0  -0.625 -0.875 0  -0.6249999999999999 -1 0  0 -0.375 0  -0.0625 -0.25 0  -0.0625 -0.3125 0  -0.4999999999999999 -0.875 0  -0.5625 -0.6875 0  -0.4375 -0.8125 0  -0.3125 -0.4375 0  -0.1875 -0.4375 0  -0.1875 -0.5 0  -0.1875 -0.5625 0  -0.4374999999999999 -0.9375 0  -0.0625 -0.4375 0  -0.0625 -0.5 0  -0.0625 -0.5625 0  0.375 0.1875 0  0.3125 0.125 0  0.4375 0.125 0  0.125 0.3125 0  -0.125 0.3125 0  -0.1875 0.375 0  -0.3125 0.125 0  -0.375 0.1875 0  -0.125 0.1875 0  -0.1875 0.125 0  0.1875 0.125 0  0.21875 0.09375 0  0.125 0.1875 0  0.15625 0.09375 0  -0.3125 -0.125 0  -0.1875 -0.125 0  -0.375 -0.3125 0  -0.125 -0.1875 0  -0.09375 -0.15625 0  -0.125 -0.3125 0  -0.09375 -0.21875 0  -0.125 -0.4375 0  0.5625 0.125 0  0.0234375 0.0078125 0  0.0078125 0.0234375 0  -0.0078125 0.0234375 0  0 0.0234375 0  -0.0234375 0.0078125 0  -0.0234375 0 0  -0.0234375 -0.0078125 0  -0.0078125 -0.0234375 0  0.015625 0.0078125 0  0.0078125 0.015625 0  -0.0078125 0.015625 0  -0.015625 0.0078125 0  -0.015625 -0.0078125 0  -0.0078125 -0.015625 0  -1 0.625 0  -0.9375 0.6875 0  -0.375 1 0  -0.5 0.875 0  -0.4375 0.9375 0  -0.5625 0.9375 0  -0.625 0.75 0  -0.75 0.625 0  -0.6875 0.6875 0  -0.6875 0.8125 0  -0.8125 0.6875 0  -0.875 0.5 0  -1 0.375 0  -0.9375 0.4375 0  -0.9375 0.5625 0  -0.125 1 0  -0.25 0.875 0  -0.3125 0.9375 0  -0.1875 0.9375 0  -0.4375 0.8125 0  -0.5625 0.6875 0  -0.5625 0.8125 0  -0.6875 0.5625 0  -0.8125 0.4375 0  -0.8125 0.5625 0  -0.875 0.25 0  -1 0.125 0  -0.9375 0.3125 0  -0.9375 0.1875 0  0.125 1 0  0 0.875 0  -0.0625 0.9375 0  0.0625 0.9375 0  -0.3125 0.8125 0  -0.1875 0.8125 0  -0.3125 0.6875 0  -0.1875 0.75 0  -0.1875 0.6875 0  -0.4375 0.5625 0  -0.5625 0.4375 0  -0.4375 0.5 0  -0.5 0.4375 0  -0.4375 0.4375 0  -0.8125 0.3125 0  -0.6875 0.3125 0  -0.8125 0.1875 0  -0.75 0.1875 0  -0.6875 0.1875 0  -0.875 0 0  -1 -0.125 0  -0.9375 0.0625 0  -0.9375 -0.06250000000000001 0  0.1875 0.8125 0  -0.0625 0.8125 0  0.0625 0.6875 0  -0.0625 0.6875 0  0.0625 0.8125 0  0.0625 0.75 0  -0.3125 0.5625 0  -0.25 0.5625 0  -0.3125 0.5 0  -0.1875 0.5625 0  -0.3125 0.4375 0  -0.25 0.4375 0  -0.5625 0.3125 0  -0.5 0.3125 0  -0.5625 0.25 0  -0.4375 0.3125 0  -0.5625 0.1875 0  -0.4375 0.25 0  -0.8125 0.0625 0  -0.6875 0.0625 0  -0.6875 -0.06250000000000001 0  -0.8125 -0.06250000000000001 0  -0.75 -0.06250000000000001 0  0.4375 0.3125 0  0.4375 0.25 0  0.25 0.4375 0  0.1875 0.4375 0  0.1875 0.5625 0  0.1875 0.5 0  0.0625 0.5625 0  -0.0625 0.5625 0  0 0.5625 0  -0.0625 0.5 0  0.0625 0.5 0  -0.5625 0.0625 0  -0.5 0.0625 0  -0.5625 0 0  -0.5625 -0.06250000000000001 0  -0.5 -0.0625 0  -0.8125 -0.1875000000000001 0  0.1875 0 0  0.21875 0.03125 0  -0.0625 0.25 0  0.0625 0.25 0  0 0.1875 0  0.03125 0.21875 0  -0.03125 0.21875 0  0 0.3125 0  0.03125 0.28125 0  -0.03125 0.28125 0  -0.25 0.0625 0  -0.25 -0.0625 0  -0.21875 0.03125 0  -0.21875 -0.03125 0  -0.3125 0 0  -0.28125 0.03125 0  -0.4375 -0.1875 0  -0.4375 -0.25 0  -0.5625 -0.1875 0  -0.5 -0.1875 0  0.00390625 0.00390625 0  0.00390625 0 0  -0.00390625 0.00390625 0  0 0.00390625 0  -0.00390625 0 0  -0.00390625 -0.00390625 0  0 -0.00390625 0  0 -0.1875 0  -0.03125 -0.21875 0  0.375 0.3125 0  0.1875 0.375 0  0.125 0.4375 0  -0.09375 0.21875 0  -0.21875 0.09375 0  0.09375 0.21875 0  0.09375 0.28125 0  0.09375 0.15625 0  0.15625 0.03125 0  0.03125 0.15625 0  -0.03125 0.15625 0  0.03125 0.125 0  -0.375 -0.1875 0  -0.4375 -0.125 0  -0.21875 -0.09375 0  -0.03125 -0.15625 0  0.0625 0.15625 0  -0.125 0.8125 0  -0.3125 0.625 0  -0.625 0.3125 0  -0.375 0.4375 0  -0.4375 0.375 0  -0.8125 0.125 0  0.125 0.5625 0  -0.0625 0.625 0  -0.125 0.5625 0  -0.3125 0.375 0  -0.375 0.3125 0  -0.5625 0.125 0  -0.625 0.0625 0  -0.5625 -0.125 0  0.125 0.8125 0  -0.8125 -0.125 0  -0.03125 0.34375 0  -0.0625 0.375 0  -0.34375 0.03125 0  -0.375 0.0625 0  0.01171875 0.00390625 0  0.00390625 0.01171875 0  -0.00390625 0.01171875 0  0 0.01171875 0  -0.01171875 0.00390625 0  -0.01171875 0 0  -0.01171875 -0.00390625 0  -0.00390625 -0.01171875 0  0.0078125 0.00390625 0  0.00390625 0.0078125 0  -0.00390625 0.0078125 0  -0.0078125 0.00390625 0  -0.0078125 -0.00390625 0  -0.00390625 -0.0078125 0  -0.875 1 0  -1 0.875 0  -0.9375 0.9375 0  -0.8125 0.9375 0  -0.9375 0.8125 0  1 0.875 0  0.875 1 0  0.9375 0.9375 0  0.9375 0.06250000000000008 0  0.9375 0.1875000000000001 0  0.9375 0.3125000000000001 0  0.9375 0.8125 0  0.9375 0.75 0  0.9375 0.6875 0  0.625 1 0  0.8125 0.9375 0  0.75 0.9375 0  0.6875 0.9375 0  0.375 1 0  0.5625 0.9375 0  0.5 0.9375 0  0.4375 0.9375 0  0.3125 0.9375 0  0.25 0.9375 0  0.1875 0.9375 0  0.8125 0.8125 0  0.6875 0.8125 0  0.8125 2.775557561562891e-17 0  0.8125 0.06250000000000003 0  0.75 0.0625 0  0.
[...]
<PointData  Scalars="u"> 
<DataArray  type="Float64"  Name="u"  format="ascii">1.2599366339416556e+00  1.1552124815637250e+00  1.1551965361902907e+00  1.0525154909304117e+00  1.0399999849498123e+00  1.0525154623365327e+00  9.5488729300420538e-01  9.2502528107000814e-01  9.2501626234223655e-01  9.5488729838142150e-01  6.2998769760730566e-01  -2.6156754599610867e-05  1.6593023852012748e-01  3.2772602209492896e-01  4.8275562908263547e-01  6.7254836493113679e-01  7.2485153027157634e-01  7.8898401924459693e-01  8.6603065066277929e-01  8.1437743878114666e-01  7.9370886901168536e-01  8.1441706500882538e-01  8.6603190049494683e-01  5.1999855848948651e-01  1.0062208331924424e-04  1.8202634889534872e-01  3.5652736037733607e-01  5.6850663465842532e-01  6.3243131958721788e-01  7.1473927010272409e-01  6.6294401033499228e-01  6.6294434445034911e-01  7.1474069479628732e-01  7.8898411053451556e-01  3.9684300944161427e-01  3.7349943492652438e-05  2.0645680868596034e-01  4.5658322488823411e-01  5.4541129951030709e-01  4.9989689623657302e-01  5.4541234273356221e-01  6.3236401492102046e-01  7.2485166700733261e-01  2.5002844546427122e-01  1.1209890121577796e-04  3.4348389140462665e-01  6.7251657173715229e-01  3.4345846534213370e-01  4.5657378666736886e-01  5.6851120501791019e-01  6.2998122524760580e-01  2.9034365969049731e-04  5.1994564490074258e-01  2.5000478408473248e-01  3.9682772965088992e-01  4.8271874939130111e-01  1.1209214076909978e-04  3.5659906137830483e-01  2.0642256240489373e-01  3.2768792261101848e-01  3.7251319091692793e-05  1.8194813751918520e-01  1.6596512339239286e-01  2.4675252433563958e-05  -2.6070235806445875e-05  3.2760155967480492e-01  2.2454236587476759e-01  1.1465735203977714e-01  3.5810068138332746e-01  3.9833528237670240e-01  5.1307426311620785e-01  5.1298548027895330e-01  4.1757185280402537e-01  4.1760296978755745e-01  1.2994914570999477e-01  2.8754784568806163e-01  1.5751914199973749e-01  -9.7419323092824139e-05  3.1477079321052470e-01  2.1648239418955917e-01  3.9835758380259223e-01  2.1628818871671662e-01  2.8754349693031378e-01  3.5811818892192088e-01  1.5752214731508923e-01  -9.7421705090627595e-05  3.2765464026168140e-01  1.2990323864285905e-01  1.1466023234624062e-01  7.2251379931410162e-02  2.5077809673377721e-01  3.2307007443893981e-01  3.2310616291373967e-01  2.8343361299666647e-01  2.5088538249007902e-01  9.9185128011388402e-02  -4.0350328776101997e-05  1.9827742907230353e-01  1.3621581631056948e-01  1.3603952017911650e-01  9.9186413864484888e-02  -4.0341931809758726e-05  4.6044172925468252e-01  3.7476349433141776e-01  3.0402332334896875e-01  7.2250883213830983e-02  2.8557963552147125e-01  2.7046882790857119e-01  1.0445699691785493e-01  1.9274000106340480e-01  2.5800356892797166e-01  2.4753560602201169e-01  9.7203613565464766e-02  -4.0793814742132220e-05  1.7319686271438622e-01  9.1535007253208761e-02  8.6999855694757947e-02  8.3226349259130736e-02  -8.5424416442971281e-05  8.1864070631809782e-02  1.8095700814649601e-01  2.6285495751757776e-01  2.6294821906663890e-01  1.8097257425610430e-01  8.1865503072874227e-02  9.3670671498045632e-01  9.2098863562292843e-01  8.6871158727001563e-01  8.5963903006154418e-01  9.3673157555641229e-01  8.5963595512592761e-01  8.6870786738524286e-01  8.3741819506484150e-01  7.9908823848124544e-01  7.6279064495438753e-01  7.4022654977449320e-01  7.9908819264872810e-01  7.2769016348306470e-01  7.2768974049007107e-01  8.3750823171220889e-01  7.4022599463809624e-01  7.6279105259095303e-01  9.7200933486714991e-02  1.9275076582025882e-01  2.8545824618213028e-01  5.8719862849456805e-01  6.8439849491028060e-01  6.3299007927719497e-01  6.5505513510627100e-01  6.0137996701043472e-01  5.8266754474447413e-01  6.8435812379525762e-01  5.8266922400468790e-01  6.0138067827519925e-01  6.3294637885624383e-01  1.0450904930613877e-01  5.8718530361824461e-01  6.2690562611869435e-02  -2.0130975094076470e-04  1.2482189367075673e-01  8.5548255162035430e-02  8.5356041182109724e-02  6.2687523114647745e-02  -2.0129685865577919e-04  4.5455512035934911e-02  1.5787670280928429e-01  2.0341830426420729e-01  1.7863209627060106e-01  2.0336088808864436e-01  1.7840204662954828e-01  1.5795985883986130e-01  4.5456149346977053e-02  5.1350026899558351e-02  1.1385220847769566e-01  1.6536510339103933e-01  1.6535565000658167e-01  1.1384682154413685e-01  5.1349741375638254e-02  1.1526242240220936e+00  1.1034474998458204e+00  1.0977740183762912e+00  1.0977279017914328e+00  1.0432093239901041e+00  1.0431849156204438e+00  5.7631579762369045e-01  8.3220983348381267e-02  -6.3925708224042924e-05  2.4747964288323537e-01  8.7006663377860768e-02  1.7312480010227460e-01  4.0613089152475484e-01  2.5813456645255622e-01  3.4091764630040600e-01  5.0017333410163889e-01  4.2174795978391855e-01  5.9750859576805571e-01  6.2148585903729636e-01  6.4831574120303115e-01  6.7866921970332728e-01  7.1259127454546922e-01  7.5050207337179986e-01  4.3962321144677724e-01  5.4253531020369172e-01  4.6052258031552562e-01  9.1512635710127174e-02  2.7057256747633929e-01  5.9829832972263630e-01  4.8477008495498775e-01  5.1355708107943043e-01  6.7121549474842768e-01  5.4748850519533809e-01  7.5050236342207099e-01  6.7122020071967525e-01  7.1264295991039595e-01  3.0407637094691298e-01  4.2366093754899281e-01  3.6304602184954310e-01  4.9692100015595653e-01  3.9143885369454029e-01  4.5020700313594814e-01  4.7274846750112720e-01  5.2745677745833797e-01  4.5019481086699265e-01  4.9693706107073282e-01  5.2745611311219831e-01  4.7275142761980010e-01  6.7866684548553124e-01  5.4742555715394503e-01  5.9830285674997030e-01  6.4837545439349409e-01  3.6973068606680509e-01  4.3097121018075191e-01  6.2142466073527092e-01  4.3097196537570748e-01  3.6982524005111572e-01  5.1355334743213432e-01  4.2360939857817581e-01  4.8484920247782021e-01  3.9493403274897310e-02  -9.7400128145878128e-05  7.8757012649404642e-02  5.3868795979245952e-02  5.3747021948778451e-02  3.9491520159420049e-02  -9.7401874610062065e-05  2.8565251734192935e-02  9.9261783473603579e-02  1.2769983023482281e-01  1.1219268789859108e-01  1.2769120392321009e-01  1.1218271120702396e-01  9.9437046015388331e-02  2.8564467396474783e-02  3.2167560113791682e-02  7.1670895999062595e-02  1.0371714730139892e-01  1.0371382388591041e-01  7.1666577549595642e-02  3.2166216651969115e-02  2.3615512177290708e-06  4.7146148230285394e-02  3.7478260402250635e-01  3.2175772711110839e-01  5.9001962980060707e-01  5.8999004827370272e-01  3.4028727927561059e-01  3.5266614728052306e-06  5.4759437158151049e-02  5.0437276147681433e-02  5.2405820566863055e-02  1.6254325908658868e-01  1.5019473672800665e-01  5.0320856518709933e-01  5.0321501213655817e-01  4.5821920149861411e-01  4.5823057396521472e-01  4.1262971922096631e-01  5.8011460704380735e-01  5.4140790798866012e-01  5.4141014122322140e-01  2.9008782888532464e-01  2.3614614294121453e-01  1.7976910623264991e-01  3.2337229570328885e-01  1.9166365948863787e-01  2.6675612505303997e-01  2.0633996849037572e-01  6.1222708650721623e-02  6.5722714388382994e-02  6.5010268946180683e-01  5.9756918542442417e-01  3.9146615682344871e-01  5.4255510120746697e-01  5.7628761976278076e-01  5.5732233882724069e-01  2.4875285373761827e-02  -6.2350989341717096e-05  4.9629729527953595e-02  3.3932500631289692e-02  3.3856104386391236e-02  2.4874434997633973e-02  -6.2352233787020357e-05  5.0022091793914691e-01  4.3967640706894590e-01  4.9070526309103418e-01  2.2457416750343329e-01  3.2345185045653485e-01  2.6674527805010978e-01  3.0541142613854289e-01  2.0625143185359485e-01  2.9000049084275820e-01  1.9153966579591108e-01  1.7981670019841389e-01  4.2174517884284135e-01  4.0612516440563762e-01  3.5197385757175367e-06  6.5699107115846686e-02  6.1229423805924367e-02  3.4097596127020741e-01  4.0787331537366200e-01  3.0651902131094894e-01  2.6564256838497036e-01  1.6252489575827839e-01  1.5593125436290944e-01  1.5025754437502761e-01  2.9358576887054932e-01  5.4829193883388416e-02  5.2407341935775890e-02  5.0440523341015182e-02  1.7035684987037455e-01  1.2132875614058661e-01  1.0914585253484614e-01  3.4484982029954686e-01  4.6628555051311255e-01  5.4710586042336240e-01  4.6629332923741817e-01  5.4710888378708999e-01  3.6689072996343314e-01  3.6683316421093998e-01  1.4123260581249125e-01  1.0223659644403735e-01  2.2551170335437626e-01  1.1320641764642557e-01  3.4487483737412539e-01  2.2551252205736716e-01  3.4174593717816559e-01  1.4122976537155768e-01  1.1320670836677450e-01  1.2132989713388891e-01  1.0236934229247124e-01  1.0907191671616931e-01  1.0055210675268826e-01  1.8115720743743458e-02  6.2452087923289101e-02  8.0433017614769869e-02  7.0566570016076163e-02  8.0430554272921714e-02  7.0563525700322718e-02  6.2568831650287926e-02  1.8114913388757634e-02  2.0261408410243577e-02  4.5152425702822255e-02  6.5377260640215276e-02  6.5376245656508805e-02  4.5150539953121127e-02  2.0260517747412516e-02  1.1034480483897637e+00  1.0998959429939372e+00  1.0028508022856149e+00  9.8934883622679259e-01  9.9533383485948135e-01  1.0471519949858490e+00  9.8232538466172015e-01  9.8230944075266080e-01  9.8140731374101220e-01  1.0408003794243434e+00  1.0408022563035406e+00  9.8934112621120407e-01  1.0028508015552278e+00  9.9535303144059994e-01  1.0471488887063132e+00  9.0912935171513742e-01  8.8584609932024194e-01  9.4508778990996956e-01  8.9680522839594767e-01  9.2996412187219213e-01  9.2202142732541192e-01  9.8498993389422862e-01  9.2201429122704148e-01  9.2995797001327485e-01  9.8495524363993125e-01  8.8584508991453659e-01  9.0912935254421212e-01  9.4508676119779189e-01  8.9684508781695016e-01  8.2586511881451818e-01  7.9219757757401799e-01  8.5124607859948898e-01  8.0864077010778179e-01  8.7645851436100808e-01  8.2515875284795925e-01  8.0557712108067747e-01  7.8814390820717495e-01  7.5037115343603122e-01  7.9499800684851363e-01  7.9499661260942889e-01  7.6057608116019870e-01  7.6057562965113557e-01  7.2605290731966343e-01  8.7644557398634326e-01  8.0557524394590674e-01  8.2515827726676561e-01  7.8814357617876163e-01  7.5037895081895289e-01  7.9219801732600825e-01  8.2584906506783229e-01  8.5124597873657604e-01  8.0863779528248403e-01  6.9169742433890580e-01  7.7683200093941529e-01  6.5156076611518898e-01  6.9867755036541623e-01  7.3217834623041456e-01  6.9243961766516970e-01  7.3249534609603439e-01  7.0196186579713726e-01  6.9507308278107438e-01  6.7229111570733346e-01  6.5706518666446723e-01  6.2321459086516073e-01  7.3250517857676400e-01  6.9507298537433204e-01  7.0196173894164182e-01  6.5706554264009820e-01  6.7229149063816396e-01  6.2321551302773082e-01  7.7683246342598711e-01  6.9867920154195962e-01  6.5158659400019958e-01  7.3217951025713524e-01  6.9244194592315444e-01  2.6567134929620068e-01  2.1475688356315881e-01  4.0840224330082453e-01  4.2747200082158243e-01  5.2205203355316132e-01  4.7573425110551515e-01  5.6569374295736652e-01  6.1605432712302133e-01  5.9006778127980408e-01  5.7261655354814411e-01  5.2023393248834193e-01  6.1608251314877227e-01  5.7261740964559960e-01  5.9004006053223301e-01  5.6568948274907049e-01  5.2022963748107987e-01  6.9168717766843801e-01  1.0573936214618804e-06  3.4555111361203310e-02  3.7879516093519455e-01  3.1298443490765165e-01  2.8347926057758860e-01  2.9771218292906926e-01  3.3220293998806422e-01  3.9861549731658180e-01  3.5626042515918332e-01  3.8791983585948403e-01  3.7879739280908031e-01  3.1289163029994160e-01  3.3211955489123135e-01  2.9768189494003183e-01  3.9867076090417580e-01  3.8796691789069798e-01  4.2744872471103967e-01  4.0841119818512089e-01  5.2204378746772684e-01  4.7577120320666177e-01  1.5667865375900421e-02  -3.9169175994964015e-05  3.1265194914817065e-02  2.1372382947000262e-02  2.1324355984766407e-02  1.5667511914774942e-02  -3.9169777598263595e-05  1.0577423918915092e-06  3.4554703127836615e-02  2.7697098997697589e-01  3.7678601335877060e-01  4.4888210549883051e-01  3.7165094022609174e-01  3.7162655085403795e-01  2.6915315063540324e-01  3.2862391654217865e-01  2.0373297662207060e-01  3.8515462401871793e-02  2.3286393980780720e-01  2.7143969868069551e-01  1.9698747366800876e-01  3.7681429656899029e-01  4.4888342594148883e-01  2.6915385588944440e-01  3.8515666429128667e-02  2.1710395605712116e-01  8.0053828217206469e-01  7.6935339103546918e-01  7.6935210356393413e-01  6.9149355483651198e-01  6.9149354031780208e-01  8.0053840959822176e-01  5.4297295798285883e-01  6.5802827890763760e-01  6.4355799667212188e-01  6.1875220525764807e-01  6.1875273525561747e-01  6.4355886448301070e-01  6.5803018034009098e-01  5.4297751846529352e-01  7.1143327103839615e-01  7.1143267675360911e-01  4.4004006970812964e-01  4.8033330783407080e-01  4.4002010333763131e-01  4.8032882065789306e-01  1.1429627013424560e-02  3.9333514141837569e-02  5.0676774507628218e-02  4.4446625617404319e-02  5.0675951958672034e-02  4.4445540786571751e-02  3.9409171191491947e-02  1.1429193499734870e-02  1.2764543361849432e-02  2.8438509681716389e-02  4.1190656971507318e-02  4.1190301752262251e-02  2.8437740900572245e-02  1.2764128493806573e-02  1.2074560827890588e+00  1.2074559627201766e+00  1.2068545619578386e+00  1.1532707945563927e+00  1.1532530806093522e+00  5.5730008842871825e-01  6.5015566302156402e-01  6.0343886717918949e-01  4.2587785011773918e-02  1.2734995616233385e-01  2.1126256220322262e-01  5.2912346820454825e-01  4.9116815410779679e-01  4.5263828484114693e-01  6.9731503554899488e-01  6.2410185436066234e-01  6.3534139779359577e-01  6.4723669851421428e-01  7.5531802770146694e-01  6.7292407973675961e-01  6.8697118278899760e-01  7.0178669841783392e-01  7.3384454154459244e-01  7.5123322758018973e-01  7.6947426394966456e-01  5.4854217254729198e-01  5.7040593670995043e-01  -3.6290820698700879e-05  4.4705528707661882e-02  4.5723313526869258e-02  1.4089748803189669e-01  1.8711841139774507e-01  2.3271432025635613e-01  1.3347336214628586e-01  1.7743367884847824e-01  2.2090896444833988e-01  1.3695373645876774e-01  2.2657856026680051e-01  3.0652837952536710e-01  4.0786883685868752e-01  6.2346720196537975e-01  5.1408246190408746e-01  5.8287555914331246e-01  5.2717427616439227e-01  5.4125909885235068e-01  6.0948009851513563e-01  6.5550271959130124e-01  6.1473840509653210e-01  5.7283975296872980e-01  5.9055252988530638e-01  7.5528393782839343e-01  7.6940878497038023e-01  7.5123137926740591e-01  7.3388894549585026e-01  4.2930385255153514e-01  4.4136336807575949e-01  4.5473679000399880e-01  4.0958578885431635e-01  3.8527428465094021e-01  4.8825146219370224e-05  1.9913967541971961e-01  2.4720124323102502e-01  2.5581677687860921e-01  4.8529731507615503e-01  5.0285798518840963e-01  4.3923056288421036e-01  4.9895127033273545e-01  5.0930271980941277e-01  4.9895160930662602e-01  5.0930112754586254e-01  6.0955925370735642e-01  6.5550573208273233e-01  5.9050410330934922e-01  6.1477395068127760e-01  5.7288894984269034e-01  6.9729018394626752e-01  7.0173343518966480e-01  6.8697191465081620e-01  6.7297736431210275e-01  7.1409384689378396e-07  3.1836215892297459e-02  5.0281518348103427e-01  4.8530987811993687e-01  4.3921526241948389e-01  5.1413326058861641e-01  6.2346929265440854e-01  5.8287907127721927e-01  5.4126189589669804e-01  5.2717977636888613e-01  9.8666293094937917e-03  -2.4623719147549478e-05  1.9690765014552004e-02  1.3456400186223119e-02  1.3426111852361245e-02  9.8664865623844036e-03  -2.4623975004291640e-05  2.3613945859385105e-01  2.1424921084987067e-01  3.6303020828383159e-01  4.2923922495895422e-01  3.8529678612613394e-01  3.5105431285174421e-01  3.4024085076696753e-01  4.5472990928546353e-01  4.0955668354222102e-01  4.4145353814396898e-01  7.1356082598000698e-07  3.1708616703392659e-02  3.6525486716903383e-01  3.2184342665941634e-01  2.5579200991827428e-01  2.4722527014685611e-01  1.9912159562404599e-01  2.1475037114002624e-01  4.8717345814033491e-05  2.3270422724866946e-01  2.2650495055969419e-01  1.8709811990066533e-01  2.2094955302916180e-01  1.4089693806599848e-01  1.7747155986719582e-01  1.3706138636164020e-01  1.3343550519485262e-01  1.2735012858099151e-01  4.7164286397824905e-02  2.7027352771595089e-05  4.5845626965953991e-02  4.4585198867001859e-02  -2.6176756066166270e-05  4.2559500171037559e-02  1.2989995169664625e-01  1.2063955742687035e-01  1.6794282431929189e-01  4.1526104850935691e-02  3.1689311709935020e-01  3.1678598145411269e-01  2.5986461109329811e-01  2.8862066097523525e-01  2.8881207824431315e-01  3.6540122405632686e-01  3.4103097703497948e-01  2.7149444042383325e-01  2.5096973726913285e-01  2.3280690851040714e-01  2.3850290296878154e-01  1.9701581293591791e-01  2.0373976883118450e-01  1.2990520894781779e-01  1.6795029023730856e-01  1.2064204594509416e-01  4.1526704567375179e-02  3.1507157120294438e-01  3.7644795999561309e-01  2.9630753104674212e-01  2.9360169855701201e-01  3.0251060241068162e-01  2.9354225047960808e-01  3.4447129158336637e-01  2.1711539048200301e-01  8.8932667098259227e-02  1.4201687210227251e-01  7.1229192167788030e-02  2.3099036095605219e-01  2.3100875017605482e-01  1.4202499553726625e-01  8.8934908161516724e-02  7.1230179381101627e-02  4.7218364005644969e-01  3.3059098621092087e-01  2.9424833947922491e-01  2.8513021338161926e-01  2.7756741391463080e-01  2.3955114000885500e-01  2.6397063127191916e-01  1.4524867191174529e-01  4.8676933370636978e-02  9.4176896587024550e-02  1.3025393152466519e-01  8.9164395216046813e-02  4.3583210685765011e-02  6.4450250471651427e-02  6.4451486648136283e-02  1.4523966270415165e-01  9.4200866902528782e-02  2.3954104811047167e-01  2.7760406464021398e-01  2.9427375731520561e-01  5.6657744386163278e-01  5.6657514807737941e-01  5.3854340643511323e-01  4.3594355774933008e-02  1.3029134717485238e-01  8.9123993094819096e-02  2.1586396676711947e-01  2.6398045714845808e-01  6.0914157422177051e-01  6.6302763282798438e-01  6.9515550036293194e-01  6.3895533941551264e-01  4.7215302615659083e-01  4.1810617459785260e-01  5.5650054568873186e-01  4.9856492241670908e-01  5.2979172011239406e-01  4.6932656532596118e-01  6.9515362554241045e-01  4.6121107323850147e-01  4.1040037281957853e-01  4.2276644532693508e-01  4.6121731492549983e-01  4.1035060681283547e-01  4.2277495663054898e-01  6.3895651625984906e-01  6.6303075476439199e-01  5.2978664223183880e-01  5.5650343311427919e-01  4.6931071750148606e-01  4.9856383795284731e-01  2.8032962897678541e-02  2.9693685261177039e-02  5.7639463938267008e-02  7.1988346352716698e-03  2.4774954811420384e-02  3.1924179484638479e-02  2.7997077848229850e-02  3.1923876902054685e-02  2.7996666202343000e-02  2.4822976834641575e-02  7.1986440200024074e-03  2.0254499087475403e-01  1.9304075163038087e-01  2.7698363444971374e-01  1.7043485055230456e-01  2.9693576487686613e-02  2.8032311822806164e-02  5.7639018713299385e-02  8.0394180094635094e-03  1.7911600309388220e-02  2.5946280064881637e-02  2.5946146447713970e-02  1.7911292313469780e-02  8.0392435645016691e-03  1.1292240589541562e+00  1.1265065448958358e+00  1.0999251974372160e+00  1.0970647946501528e+00  1.0688676707024458e+00  1.0688938591287320e+00  8.9671593725375087e-01  8.9239890614537321e-01  8.6315525977358265e-01  9.5732810107109689e-01  9.2726842994580960e-01  8.9239280417134570e-01  8.9671004232964369e-01  8.6317609359363556e-01  9.5731774990431906e-01  9.2726067354024988e-01  2.8780747303055898e-01  3.6716902413021352e-01  2.9364911466189053e-01  3.3408736803320854e-01  3.7414224461421414e-01  8.5851169114883563e-01  8.2662174311227110e-01  8.2662061808195519e-01  7.9398890936019162e-01  7.9398816122637705e-01  5.0977775248446922e-01  4.7034047841328985e-01  5.5909170881662262e-01  4.8018891352139409e-01  5.3093666681640550e-01  4.9073883942452140e-01  5.4508620155475196e-01  3.2971332305290808e-05  3.4844595214162150e-01  3.8973082203335541e-01  3.9840418066210070e-01  3.1383617867704333e-01  3.3131829786465866e-01  5.9527518912006483e-01  6.0889443858605030e-01  5.5509960597969510e-01  5.4122675225897499e-01  6.5120578355880676e-01  7.3833085708497492e-01  6.7445737684016904e-01  7.5405080132881275e-01  7.4599333323314676e-01  7.0655063048522160e-01  6.31