<?xml version="1.0"?>
<VTKFile type="UnstructuredGrid"  version="0.1"  >
<UnstructuredGrid>
<Piece  NumberOfPoints="259" NumberOfCells="467">
<Points>
<DataArray  type="Float64"  NumberOfComponents="3"  format="ascii">-1 1 0  -0.75 1 0  -1 0.75 0  -0.5 1 0  -0.75 0.75 0  -1 0.5 0  -0.25 1 0  -0.5 0.75 0  -0.75 0.5 0  -1 0.25 0  1 1 0  1 1.110223024625157e-16 0  1 0.2500000000000001 0  1 0.5 0  1 0.75 0  0.75 1 0  0.5 1 0  0.25 1 0  0 1 0  -0.25 0.75 0  -0.5 0.5 0  -0.75 0.25 0  -1 0 0  0.75 0.75 0  0.75 0 0  0.75 0.25 0  0.75 0.5 0  0.5 0.75 0  0.25 0.75 0  0 0.75 0  -0.25 0.5 0  -0.5 0.25 0  -0.75 0 0  -1 -0.2500000000000001 0  0.5 0.5 0  0.5 0 0  0.5 0.25 0  0.25 0.5 0  0 0.5 0  -0.25 0.25 0  -0.5 0 0  -0.75 -0.2500000000000001 0  -1 -0.5 0  0.25 0.25 0  0.25 0 0  0 0.25 0  -1 -0.75 0  -0.25 0 0  -0.5 -0.25 0  -0.75 -0.5 0  -0.9999999999999999 -1 0  0 0 0  -0.75 -0.75 0  -0.25 -0.25 0  -0.5 -0.5 0  -0.7499999999999999 -1 0  0 -0.25 0  -0.5 -0.75 0  -0.25 -0.5 0  -0.4999999999999999 -0.9999999999999999 0  0 -0.5 0  -0.25 -0.75 0  -0.2499999999999999 -0.9999999999999999 0  0 -0.75 0  0 -0.9999999999999999 0  0.375 0.375 0  0.375 0.25 0  0.375 0.125 0  0.25 0.375 0  0.125 0.375 0  -0.125 0.375 0  -0.375 0.125 0  -0.125 0.25 0  -0.25 0.125 0  0.25 0.125 0  0.125 0.25 0  0.125 0.125 0  0.125 0 0  -0.125 0.125 0  0 0.125 0  -0.375 -0.125 0  -0.125 0 0  -0.25 -0.125 0  -0.375 -0.25 0  -0.125 -0.125 0  0 -0.125 0  -0.375 -0.375 0  -0.125 -0.25 0  -0.125 -0.375 0  0.1875 0.0625 0  0.0625 0.1875 0  -0.0625 0.1875 0  -0.1875 0.0625 0  -0.1875 0 0  -0.1875 -0.0625 0  0.0625 0.0625 0  0.0625 0 0  -0.0625 0.0625 0  0 0.0625 0  -0.0625 0 0  -0.0625 -0.0625 0  0 -0.0625 0  -0.625 -0.625 0  -0.5 -0.625 0  -0.375 -0.5 0  -0.0625 -0.1875 0  -0.375 -0.625 0  -0.375 -0.75 0  -0.125 -0.5 0  -0.25 -0.625 0  -0.3749999999999999 -0.875 0  -0.3749999999999999 -0.9999999999999999 0  -0.125 -0.625 0  0 -0.625 0  -0.2499999999999999 -0.875 0  -0.125 -0.75 0  -0.1249999999999999 -0.875 0  -0.1249999999999999 -0.9999999999999999 0  0 -0.875 0  0.125 0.0625 0  0.0625 0.125 0  -0.0625 0.125 0  -0.125 0.0625 0  -0.125 -0.0625 0  -0.0625 -0.125 0  -0.375 0.875 0  -0.625 0.625 0  -0.375 0.75 0  -0.5 0.625 0  -0.875 0.375 0  -0.625 0.5 0  -0.75 0.375 0  -0.125 0.875 0  -0.375 0.625 0  -0.125 0.75 0  -0.25 0.625 0  -0.625 0.375 0  -0.375 0.5 0  -0.5 0.375 0  -0.875 0.125 0  -0.625 0.25 0  -0.75 0.125 0  0.625 0.125 0  0.625 0.25 0  0.625 0.375 0  0.125 0.625 0  -0.125 0.625 0  0 0.625 0  -0.375 0.375 0  -0.125 0.5 0  -0.25 0.375 0  -0.625 0.125 0  -0.375 0.25 0  -0.5 0.125 0  -0.625 0 0  0.5 0.125 0  -0.625 -0.125 0  0.03125 0.03125 0  0.03125 0 0  -0.03125 0.03125 0  0 0.03125 0  -0.03125 0 0  -0.03125 -0.03125 0  0 -0.03125 0  0.09375 0.03125 0  0.03125 0.09375 0  -0.03125 0.09375 0  0 0.09375 0  -0.09375 0.03125 0  -0.09375 0 0  -0.09375 -0.03125 0  -0.03125 -0.09375 0  0.0625 0.03125 0  0.03125 0.0625 0  -0.03125 0.0625 0  -0.0625 0.03125 0  -0.0625 -0.03125 0  -0.03125 -0.0625 0  -0.875 0.875 0  -0.625 1 0  -0.75 0.875 0  -0.875 0.75 0  -0.625 0.875 0  -0.875 0.625 0  0.875 0.875 0  1 0.1250000000000001 0  0.875 5.551115123125783e-17 0  1 0.3750000000000001 0  0.875 0.1250000000000001 0  0.875 0.2500000000000001 0  1 0.625 0  0.875 0.375 0  0.875 0.5 0  0.875 0.75 0  0.875 0.625 0  0.75 0.875 0  0.625 0.875 0  0.5 0.875 0  0.375 0.875 0  0.25 0.875 0  0.125 0.875 0  0.75 0.625 0  0.625 0.75 0  0.625 0.625 0  0.75 0.125 0  0.75 0.375 0  0.375 0.75 0  0.5 0.625 0  0.375 0.625 0  0.125 0.75 0  0.25 0.625 0  -0.875 -0.125 0  -0.75 -0.125 0  -0.875 -0.2500000000000001 0  0.5 0.375 0  0.375 0.5 0  0.4375 0.4375 0  0.125 0.5 0  0.3125 0.4375 0  0 0.375 0  0.0625 0.4375 0  -0.0625 0.4375 0  -0.375 0 0  -0.5 -0.125 0  -0.4375 0.0625 0  -0.4375 -0.0625 0  -0.875 -0.375 0  -0.625 -0.25 0  -0.75 -0.375 0  -0.875 -0.5 0  0.0625 0.3125 0  -0.0625 0.3125 0  -0.875 -0.625 0  -0.3125 0.0625 0  -0.3125 -0.0625 0  -0.625 -0.375 0  -0.5 -0.375 0  -0.625 -0.5 0  0.015625 0.015625 0  0.015625 0 0  -0.015625 0.015625 0  0 0.015625 0  -0.015625 0 0  -0.015625 -0.015625 0  0 -0.015625 0  0.046875 0.015625 0  0.015625 0.046875 0  -0.015625 0.046875 0  0 0.046875 0  -0.046875 0.015625 0  -0.046875 0 0  -0.046875 -0.015625 0  -0.015625 -0.046875 0  0.03125 0.015625 0  0.015625 0.03125 0  -0.015625 0.03125 0  -0.03125 0.015625 0  -0.03125 -0.015625 0  -0.015625 -0.03125 0  </DataArray>
</Points>
<Cells>
<DataArray  type="UInt32"  Name="connectivity"  format="ascii">0 2 178  0 1 178  2 5 183  2 181 183  4 181 183  1 180 182  4 180 182  1 179 182  3 179 182  4 178 181  2 178 181  4 178 180  1 178 180  9 22 139  9 21 139  8 131 136  21 131 136  8 130 136  20 130 136  5 9 129  5 8 129  9 21 129  21 129 131  8 129 131  6 19 132  6 18 132  3 7 125  3 6 125  7 128 133  20 128 133  7 127 133  19 127 133  19 125 127  7 125 127  6 19 125  5 8 183  4 8 183  20 126 130  8 126 130  20 126 128  7 126 128  4 7 182  3 7 182  4 8 126  4 7 126  97 122 168  81 122 168  78 97 122  99 168 175  97 168 175  99 168 169  81 168 169  159 175 249  99 175 249  97 159 175  161 249 256  159 249 256  161 249 250  99 249 250  161 240 256  159 240 256  161 240 242  51 240 242  81 92 122  78 92 122  81 92 93  47 92 93  97 121 166  79 121 166  78 97 121  98 166 174  97 166 174  98 166 167  79 166 167  159 174 247  98 174 247  97 159 174  160 247 255  159 247 255  160 247 248  98 247 248  160 240 255  159 240 255  160 240 241  51 240 241  79 91 121  78 91 121  45 79 91  70 72 231  45 72 231  39 70 72  70 221 231  38 219 221  45 219 231  219 221 231  71 224 233  40 222 224  47 222 233  222 224 233  71 73 233  47 73 233  39 71 73  39 73 78  47 73 92  73 78 92  39 72 78  45 72 91  72 78 91  29 132 134  19 132 134  18 29 132  30 133 137  20 133 137  30 133 135  19 133 135  38 146 149  30 146 149  38 146 147  29 146 147  19 135 146  30 135 146  19 134 146  29 134 146  22 32 139  32 139 141  21 139 141  40 151 154  32 151 154  40 151 153  31 151 153  31 136 140  21 136 140  31 136 138  20 136 138  21 141 151  32 141 151  21 140 151  31 140 151  39 70 150  30 70 150  70 149 221  38 149 221  30 70 149  20 138 148  31 138 148  20 137 148  30 137 148  71 153 224  40 153 224  31 71 153  39 71 152  31 71 152  39 148 152  31 148 152  39 148 150  30 148 150  22 33 211  22 32 211  33 42 226  33 213 226  41 213 226  41 156 212  32 156 212  32 154 156  40 154 156  41 211 213  33 211 213  41 211 212  32 211 212  46 50 52  54 102 237  49 102 237  49 52 102  42 229 232  49 229 232  42 46 232  49 52 232  46 52 232  47 82 94  82 84 94  53 82 84  81 93 94  47 93 94  81 94 123  84 94 123  99 169 170  81 169 170  99 170 176  100 170 176  161 250 251  99 250 251  161 251 257  162 251 257  161 242 243  51 242 243  161 243 257  162 243 257  162 176 251  99 176 251  100 162 176  100 123 170  81 123 170  84 100 123  48 80 223  80 223 225  40 223 225  80 225 234  40 222 225  47 222 234  222 225 234  54 86 236  48 86 236  48 83 86  53 83 86  53 80 83  48 80 83  53 80 82  80 82 234  47 82 234  49 226 229  42 226 229  49 226 228  41 226 228  54 235 237  49 235 237  54 235 236  48 235 236  48 156 227  41 156 227  48 156 223  40 156 223  41 228 235  49 228 235  41 227 235  48 227 235  64 116 118  63 116 118  64 116 117  62 116 117  63 112 115  61 112 115  63 112 113  60 112 113  62 110 114  61 110 114  62 110 111  59 110 111  61 115 116  63 115 116  61 114 116  62 114 116  84 87 105  56 87 105  53 84 87  85 105 124  84 105 124  56 85 105  100 124 171  85 124 171  84 100 124  101 171 177  100 171 177  85 101 171  162 177 252  101 177 252  100 162 177  163 252 258  162 252 258  101 163 252  163 243 258  162 243 258  163 243 244  51 243 244  58 86 104  54 86 104  53 58 86  60 88 108  58 88 108  56 60 88  53 58 88  53 87 88  56 87 88  50 52 55  55 57 59  57 102 103  54 102 103  52 57 102  52 55 57  58 109 112  61 109 112  58 108 112  60 108 112  54 104 106  58 104 106  54 103 106  57 103 106  57 107 110  61 107 110  57 59 110  61 106 109  58 106 109  61 106 107  57 106 107  17 18 200  18 29 200  29 145 209  28 145 209  29 145 147  38 145 147  16 17 198  17 198 199  28 198 199  28 199 200  17 199 200  28 200 209  29 200 209  45 75 90  75 76 90  43 75 76  79 90 120  76 90 120  45 79 90  95 120 165  79 120 165  76 95 120  98 165 173  95 165 173  98 165 167  79 165 167  157 173 246  98 173 246  95 157 173  160 246 254  157 246 254  160 246 248  98 246 248  160 238 254  157 238 254  160 238 241  51 238 241  65 216 218  34 215 216  37 215 218  215 216 218  65 68 218  37 68 218  43 65 68  69 217 220  38 217 220  37 69 217  69 220 230  38 219 220  45 219 230  219 220 230  43 68 69  37 68 69  43 69 75  69 75 230  45 75 230  10 15 184  15 184 195  23 184 195  15 16 196  16 196 197  27 196 197  27 202 203  23 202 203  27 203 207  34 203 207  23 195 196  15 195 196  23 196 202  27 196 202  37 145 210  28 145 210  38 145 217  37 145 217  34 207 208  27 207 208  34 208 215  37 208 215  27 197 198  16 197 198  27 198 206  28 198 206  28 206 208  27 206 208  28 208 210  37 208 210  11 186 188  24 186 188  11 185 188  12 185 188  12 189 191  25 189 191  12 187 191  13 187 191  24 35 142  25 142 204  24 142 204  25 188 204  24 188 204  25 188 189  12 188 189  10 14 184  14 184 193  23 184 193  26 201 203  23 201 203  26 34 203  13 192 194  26 192 194  13 190 194  14 190 194  23 193 194  14 193 194  23 194 201  26 194 201  44 74 89  74 76 89  43 74 76  77 89 119  76 89 119  44 77 89  95 119 164  77 119 164  76 95 119  96 164 172  95 164 172  77 96 164  157 172 245  96 172 245  95 157 172  158 245 253  157 245 253  96 158 245  158 238 253  157 238 253  158 238 239  51 238 239  35 44 67  36 67 155  35 67 155  36 65 214  65 214 216  34 214 216  36 65 66  43 65 66  43 66 67  36 66 67  43 67 74  44 67 74  26 191 205  25 191 205  26 191 192  13 191 192  26 34 144  36 144 214  34 144 214  36 142 155  35 142 155  36 142 143  25 142 143  25 143 144  36 143 144  26 144 205  25 144 205  </DataArray>
<DataArray  type="UInt32"  Name="offsets"  format="ascii">3 6 9 12 15 18 21 24 27 30 33 36 39 42 45 48 51 54 57 60 63 66 69 72 75 78 81 84 87 90 93 96 99 102 105 108 111 114 117 120 123 126 129 132 135 138 141 144 147 150 153 156 159 162 165 168 171 174 177 180 183 186 189 192 195 198 201 204 207 210 213 216 219 222 225 228 231 234 237 240 243 246 249 252 255 258 261 264 267 270 273 276 279 282 285 288 291 294 297 300 303 306 309 312 315 318 321 324 327 330 333 336 339 342 345 348 351 354 357 360 363 366 369 372 375 378 381 384 387 390 393 396 399 402 405 408 411 414 417 420 423 426 429 432 435 438 441 444 447 450 453 456 459 462 465 468 471 474 477 480 483 486 489 492 495 498 501 504 507 510 513 516 519 522 525 528 531 534 537 540 543 546 549 552 555 558 561 564 567 570 573 576 579 582 585 588 591 594 597 600 603 606 609 612 615 618 621 624 627 630 633 636 639 642 645 648 651 654 657 660 663 666 669 672 675 678 681 684 687 690 693 696 699 702 705 708 711 714 717 720 723 726 729 732 735 738 741 744 747 750 753 756 759 762 765 768 771 774 777 780 783 786 789 792 795 798 801 804 807 810 813 816 819 822 825 828 831 834 837 840 843 846 849 852 855 858 861 864 867 870 873 876 879 882 885 888 891 894 897 900 903 906 909 912 915 918 921 924 927 930 933 936 939 942 945 948 951 954 957 960 963 966 969 972 975 978 981 984 987 990 993 996 999 1002 1005 1008 1011 1014 1017 1020 1023 1026 1029 1032 1035 1038 1041 1044 1047 1050 1053 1056 1059 1062 1065 1068 1071 1074 1077 1080 1083 1086 1089 1092 1095 1098 1101 1104 1107 1110 1113 1116 1119 1122 1125 1128 1131 1134 1137 1140 1143 1146 1149 1152 1155 1158 1161 1164 1167 1170 1173 1176 1179 1182 1185 1188 1191 1194 1197 1200 1203 1206 1209 1212 1215 1218 1221 1224 1227 1230 1233 1236 1239 1242 1245 1248 1251 1254 1257 1260 1263 1266 1269 1272 1275 1278 1281 1284 1287 1290 1293 1296 1299 1302 1305 1308 1311 1314 1317 1320 1323 1326 1329 1332 1335 1338 1341 1344 1347 1350 1353 1356 1359 1362 1365 1368 1371 1374 1377 1380 1383 1386 1389 1392 1395 1398 1401 </DataArray>
<DataArray  type="UInt8"  Name="types"  format="ascii">5 5 5 5 5 5 5 5 5 5 5 5 5 5 5 5 5 5 5 5 5 5 5 5 5 5 5 5 5 5 5 5 5 5 5 5 5 5 5 5 5 5 5 5 5 5 5 5 5 5 5 5 5 5 5 5 5 5 5 5 5 5 5 5 5 5 5 5 5 5 5 5 5 5 5 5 5 5 5 5 5 5 5 5 5 5 5 5 5 5 5 5 5 5 5 5 5 5 5 5 5 5 5 5 5 5 5 5 5 5 5 5 5 5 5 5 5 5 5 5 5 5 5 5 5 5 5 5 5 5 5 5 5 5 5 5 5 5 5 5 5 5 5 5 5 5 5 5 5 5 5 5 5 5 5 5 5 5 5 5 5 5 5 5 5 5 5 5 5 5 5 5 5 5 5 5 5 5 5 5 5 5 5 5 5 5 5 5 5 5 5 5 5 5 5 5 5 5 5 5 5 5 5 5 5 5 5 5 5 5 5 5 5 5 5 5 5 5 5 5 5 5 5 5 5 5 5 5 5 5 5 5 5 5 5 5 5 5 5 5 5 5 5 5 5 5 5 5 5 5 5 5 5 5 5 5 5 5 5 5 5 5 5 5 5 5 5 5 5 5 5 5 5 5 5 5 5 5 5 5 5 5 5 5 5 5 5 5 5 5 5 5 5 5 5 5 5 5 5 5 5 5 5 5 5 5 5 5 5 5 5 5 5 5 5 5 5 5 5 5 5 5 5 5 5 5 5 5 5 5 5 5 5 5 5 5 5 5 5 5 5 5 5 5 5 5 5 5 5 5 5 5 5 5 5 5 5 5 5 5 5 5 5 5 5 5 5 5 5 5 5 5 5 5 5 5 5 5 5 5 5 5 5 5 5 5 5 5 5 5 5 5 5 5 5 5 5 5 5 5 5 5 5 5 5 5 5 5 5 5 5 5 5 5 5 5 5 5 5 5 5 5 5 5 5 5 5 5 5 5 5 5 5 5 5 5 5 5 5 5 5 5 5 5 5 5 5 5 5 5 5 5 5 5 5 5 5 5 5 5 5 5 5 5 5 5 5 </DataArray>
</Cells>
<PointData  Scalars="u"> 
<DataArray  type="Float64"  Name="u"  format="ascii">1.2601738582568207e+00  1.1549863288482234e+00  1.1549548658016890e+00  1.0523455622016080e+00  1.0399484646828248e+00  1.0522701314057847e+00  9.5462013248526489e-01  9.2433602863386555e-01  9.2435247434381884e-01  9.5462199135234072e-01  6.3042613689457250e-01  -3.4403738241367652e-04  1.6612688662761818e-01  3.2784388808659254e-01  4.8289329732460623e-01  6.7221939849825618e-01  7.2444241762190831e-01  7.8846623140147609e-01  8.6614464371014088e-01  8.1411491942247027e-01  7.9345703946976898e-01  8.1433173671734105e-01  8.6614472512716456e-01  5.1997660736569573e-01  2.7314002252582621e-04  1.8188640462592401e-01  3.5647780641947996e-01  5.6821786751446879e-01  6.3216004833546768e-01  7.1425144373704486e-01  6.6175308024746049e-01  6.6172946349037165e-01  7.1422949922200285e-01  7.8846565355589815e-01  3.9613533773776843e-01  4.4621064949162872e-04  2.0648892682707717e-01  4.5634809120391218e-01  5.4414901820683592e-01  4.9932132702052395e-01  5.4409112291820338e-01  6.3212301207768007e-01  7.2443512311838731e-01  2.4895195431387859e-01  1.6627870782815813e-03  3.4143202637829034e-01  6.7237983462704209e-01  3.4102785223784804e-01  4.5632915429050025e-01  5.6795228164393574e-01  6.3078739792020289e-01  4.6454351523263797e-03  5.1957774586528538e-01  2.4844859240271083e-01  3.9644633918005162e-01  4.8328491719697919e-01  1.6083213067982385e-03  3.5731219786972529e-01  2.0613045540253930e-01  3.2776320692563460e-01  4.0752752391249957e-04  1.8198199285550312e-01  1.6613531693000388e-01  3.0662693628013540e-04  -3.4758098989843829e-04  3.2766793140861544e-01  2.2395784582005823e-01  1.1452584627999422e-01  3.5733721599950236e-01  3.9769400352363210e-01  5.1231703777800131e-01  5.1182860183373569e-01  4.1627206283888102e-01  4.1630041884552305e-01  1.2840962265191000e-01  2.8540397413445889e-01  1.5759409754762421e-01  -3.9619410255180981e-04  3.1422195247814771e-01  2.1572368429060709e-01  3.9760837126397935e-01  2.1471294428690610e-01  2.8537565014956162e-01  3.5733884404683075e-01  1.5762365370600021e-01  -3.9487969806638784e-04  3.2828330663263333e-01  1.2853707402962336e-01  1.1515415825942128e-01  7.2389440285515222e-02  2.4853256025354004e-01  3.2119470748513701e-01  3.2158459564257086e-01  2.8195702826810715e-01  2.4964805901335593e-01  9.9339358097348091e-02  -2.3652030795193852e-04  1.9831703039168694e-01  1.3549103579983973e-01  1.3505784881040975e-01  9.9266670425809542e-02  -2.3635828769321925e-04  4.6023567017668121e-01  3.7495314397542917e-01  3.0385521854947095e-01  7.2405195082278884e-02  2.8571441463020286e-01  2.7075555956909919e-01  1.0416153114893449e-01  1.9257815967967279e-01  2.5871940482663103e-01  2.4749624062281914e-01  9.7504308204378456e-02  -1.9884478978265165e-04  1.7331856484281644e-01  9.1448432561213280e-02  8.7327150235358475e-02  8.3162169822462037e-02  -1.2676625185912367e-04  8.0871606571281549e-02  1.8033694725969948e-01  2.6187608786295680e-01  2.6190645882082175e-01  1.8026925165468560e-01  8.0871002402017819e-02  9.3609219305313218e-01  9.2062495731458793e-01  8.6844412726142362e-01  8.5937705912348306e-01  9.3605588936103623e-01  8.5937718201521629e-01  8.6843837065638163e-01  8.3652415573465078e-01  7.9818791856965654e-01  7.6234205388153375e-01  7.3970570548809367e-01  7.9827681064363776e-01  7.2719524385543266e-01  7.2718771225410517e-01  8.3665044189421212e-01  7.3968791914041598e-01  7.6232406570088440e-01  9.7601749861566736e-02  1.9268229988316843e-01  2.8533429420398387e-01  5.8689553533721228e-01  6.8354147804624732e-01  6.3240746902988454e-01  6.5377291868834009e-01  5.9999275671280083e-01  5.8181959048822218e-01  6.8310777356432217e-01  5.8179968455284159e-01  5.9994744746183104e-01  6.3237297994959507e-01  1.0421457241662134e-01  5.8671082961822263e-01  6.2430729422063035e-02  -5.2546620627300718e-04  1.2475053016543179e-01  8.5077977359103538e-02  8.4557770238292029e-02  6.2383576616478913e-02  -5.2555668138365777e-04  4.5626003087942943e-02  1.5723573782136185e-01  2.0263471866971486e-01  1.7775684738951480e-01  2.0245836315506757e-01  1.7749041270235058e-01  1.5734084001699505e-01  4.5607297534349660e-02  5.0954022731969292e-02  1.1354416534116496e-01  1.6454684549427584e-01  1.6447365120159180e-01  1.1343484367667762e-01  5.0920951716417154e-02  1.1524317113489542e+00  1.1035148863156858e+00  1.0977007844353959e+00  1.0976751842232297e+00  1.0428265048156686e+00  1.0429500504591680e+00  5.7646099344028601e-01  8.3165070186915713e-02  -1.2428830593489738e-04  2.4750787295545701e-01  8.7291605845163225e-02  1.7317728770000318e-01  4.0613169567558421e-01  2.5832952967264888e-01  3.4088933698590490e-01  5.0020911888719499e-01  4.2183496238881851e-01  5.9737215478019201e-01  6.2155261371479853e-01  6.4807584334611668e-01  6.7857005336790666e-01  7.1217640925533476e-01  7.4996122471472604e-01  4.3956958569750376e-01  5.4253514505345435e-01  4.6088360829919350e-01  9.1444496486752833e-02  2.7060192435439312e-01  5.9794101825894008e-01  4.8451699436795809e-01  5.1300567540769659e-01  6.7083936275644684e-01  5.4693397537058630e-01  7.4994563618250398e-01  6.7081492451254165e-01  7.1214908993072712e-01  3.0415860573352538e-01  4.2309587734096576e-01  3.6256725341169660e-01  4.9629750177800858e-01  3.9084328806269747e-01  4.4879789675233617e-01  4.7204758027917709e-01  5.2643888464867938e-01  4.4867508074622015e-01  4.9626869074313251e-01  5.2636839254668211e-01  4.7197609413551966e-01  6.7850075280570465e-01  5.4692304296250427e-01  5.9785894751772772e-01  6.4794604442842507e-01  3.6882497954593152e-01  4.2966792909002094e-01  6.2116680518211054e-01  4.2959859007204904e-01  3.6865227283514307e-01  5.1307405162436559e-01  4.2339613110941465e-01  4.8457275087427581e-01  3.9601568445033909e-02  -1.0158583076122771e-03  7.8394255148907854e-02  5.2527102961357867e-02  5.2511535415162056e-02  3.9580549305985910e-02  -1.0161004710003551e-03  2.8736341079395284e-02  9.8759074827467402e-02  1.2738833445092668e-01  1.1160282450371793e-01  1.2732904646474075e-01  1.1152686240515652e-01  9.8881851309982130e-02  2.8716141576841308e-02  3.2249124314795104e-02  7.1025116406443878e-02  1.0347286314157980e-01  1.0344793879547370e-01  7.0977819548193807e-02  3.2226892830577170e-02  </DataArray> 
</PointData> 
</Piece>
</UnstructuredGrid>
</VTKFile>