<?xml version="1.0"?>
<VTKFile type="UnstructuredGrid"  version="0.1"  >
<UnstructuredGrid>
<Piece  NumberOfPoints="780" NumberOfCells="1473">
<Points>
<DataArray  type="Float64"  NumberOfComponents="3"  format="ascii">-1 1 0  -0.75 1 0  -1 0.75 0  -0.5 1 0  -0.75 0.75 0  -1 0.5 0  -0.25 1 0  -0.5 0.75 0  -0.75 0.5 0  -1 0.25 0  1 1 0  1 1.110223024625157e-16 0  1 0.2500000000000001 0  1 0.5 0  1 0.75 0  0.75 1 0  0.5 1 0  0.25 1 0  0 1 0  -0.25 0.75 0  -0.5 0.5 0  -0.75 0.25 0  -1 0 0  0.75 0.75 0  0.75 0 0  0.75 0.25 0  0.75 0.5 0  0.5 0.75 0  0.25 0.75 0  0 0.75 0  -0.25 0.5 0  -0.5 0.25 0  -0.75 0 0  -1 -0.2500000000000001 0  0.5 0.5 0  0.5 0 0  0.5 0.25 0  0.25 0.5 0  0 0.5 0  -0.25 0.25 0  -0.5 0 0  -0.75 -0.2500000000000001 0  -1 -0.5 0  0.25 0.25 0  0.25 0 0  0 0.25 0  -1 -0.75 0  -0.25 0 0  -0.5 -0.25 0  -0.75 -0.5 0  -0.9999999999999999 -1 0  0 0 0  -0.75 -0.75 0  -0.25 -0.25 0  -0.5 -0.5 0  -0.7499999999999999 -1 0  0 -0.25 0  -0.5 -0.75 0  -0.25 -0.5 0  -0.4999999999999999 -0.9999999999999999 0  0 -0.5 0  -0.25 -0.75 0  -0.2499999999999999 -0.9999999999999999 0  0 -0.75 0  0 -0.9999999999999999 0  0.375 0.375 0  0.375 0.25 0  0.375 0.125 0  0.25 0.375 0  0.125 0.375 0  -0.125 0.375 0  -0.375 0.125 0  -0.125 0.25 0  -0.25 0.125 0  0.25 0.125 0  0.125 0.25 0  0.125 0.125 0  0.125 0 0  -0.125 0.125 0  0 0.125 0  -0.375 -0.125 0  -0.125 0 0  -0.25 -0.125 0  -0.375 -0.25 0  -0.125 -0.125 0  0 -0.125 0  -0.375 -0.375 0  -0.125 -0.25 0  -0.125 -0.375 0  0.1875 0.0625 0  0.0625 0.1875 0  -0.0625 0.1875 0  -0.1875 0.0625 0  -0.1875 0 0  -0.1875 -0.0625 0  0.0625 0.0625 0  0.0625 0 0  -0.0625 0.0625 0  0 0.0625 0  -0.0625 0 0  -0.0625 -0.0625 0  0 -0.0625 0  -0.625 -0.625 0  -0.5 -0.625 0  -0.375 -0.5 0  -0.0625 -0.1875 0  -0.375 -0.625 0  -0.375 -0.75 0  -0.125 -0.5 0  -0.25 -0.625 0  -0.3749999999999999 -0.875 0  -0.3749999999999999 -0.9999999999999999 0  -0.125 -0.625 0  0 -0.625 0  -0.2499999999999999 -0.875 0  -0.125 -0.75 0  -0.1249999999999999 -0.875 0  -0.1249999999999999 -0.9999999999999999 0  0 -0.875 0  0.125 0.0625 0  0.0625 0.125 0  -0.0625 0.125 0  -0.125 0.0625 0  -0.125 -0.0625 0  -0.0625 -0.125 0  -0.375 0.875 0  -0.625 0.625 0  -0.375 0.75 0  -0.5 0.625 0  -0.875 0.375 0  -0.625 0.5 0  -0.75 0.375 0  -0.125 0.875 0  -0.375 0.625 0  -0.125 0.75 0  -0.25 0.625 0  -0.625 0.375 0  -0.375 0.5 0  -0.5 0.375 0  -0.875 0.125 0  -0.625 0.25 0  -0.75 0.125 0  0.625 0.125 0  0.625 0.25 0  0.625 0.375 0  0.125 0.625 0  -0.125 0.625 0  0 0.625 0  -0.375 0.375 0  -0.125 0.5 0  -0.25 0.375 0  -0.625 0.125 0  -0.375 0.25 0  -0.5 0.125 0  -0.625 0 0  0.5 0.125 0  -0.625 -0.125 0  0.03125 0.03125 0  0.03125 0 0  -0.03125 0.03125 0  0 0.03125 0  -0.03125 0 0  -0.03125 -0.03125 0  0 -0.03125 0  0.09375 0.03125 0  0.03125 0.09375 0  -0.03125 0.09375 0  0 0.09375 0  -0.09375 0.03125 0  -0.09375 0 0  -0.09375 -0.03125 0  -0.03125 -0.09375 0  0.0625 0.03125 0  0.03125 0.0625 0  -0.03125 0.0625 0  -0.0625 0.03125 0  -0.0625 -0.03125 0  -0.03125 -0.0625 0  -0.875 0.875 0  -0.625 1 0  -0.75 0.875 0  -0.875 0.75 0  -0.625 0.875 0  -0.875 0.625 0  0.875 0.875 0  1 0.1250000000000001 0  0.875 5.551115123125783e-17 0  1 0.3750000000000001 0  0.875 0.1250000000000001 0  0.875 0.2500000000000001 0  1 0.625 0  0.875 0.375 0  0.875 0.5 0  0.875 0.75 0  0.875 0.625 0  0.75 0.875 0  0.625 0.875 0  0.5 0.875 0  0.375 0.875 0  0.25 0.875 0  0.125 0.875 0  0.75 0.625 0  0.625 0.75 0  0.625 0.625 0  0.75 0.125 0  0.75 0.375 0  0.375 0.75 0  0.5 0.625 0  0.375 0.625 0  0.125 0.75 0  0.25 0.625 0  -0.875 -0.125 0  -0.75 -0.125 0  -0.875 -0.2500000000000001 0  0.5 0.375 0  0.375 0.5 0  0.4375 0.4375 0  0.125 0.5 0  0.3125 0.4375 0  0 0.375 0  0.0625 0.4375 0  -0.0625 0.4375 0  -0.375 0 0  -0.5 -0.125 0  -0.4375 0.0625 0  -0.4375 -0.0625 0  -0.875 -0.375 0  -0.625 -0.25 0  -0.75 -0.375 0  -0.875 -0.5 0  0.0625 0.3125 0  -0.0625 0.3125 0  -0.875 -0.625 0  -0.3125 0.0625 0  -0.3125 -0.0625 0  -0.625 -0.375 0  -0.5 -0.375 0  -0.625 -0.5 0  0.015625 0.015625 0  0.015625 0 0  -0.015625 0.015625 0  0 0.015625 0  -0.015625 0 0  -0.015625 -0.015625 0  0 -0.015625 0  0.046875 0.015625 0  0.015625 0.046875 0  -0.015625 0.046875 0  0 0.046875 0  -0.046875 0.015625 0  -0.046875 0 0  -0.046875 -0.015625 0  -0.015625 -0.046875 0  0.03125 0.015625 0  0.015625 0.03125 0  -0.015625 0.03125 0  -0.03125 0.015625 0  -0.03125 -0.015625 0  -0.015625 -0.03125 0  0.625 0 0  0.6875 0.0625 0  0.625 0.5 0  0.6875 0.4375 0  -0.1875 0.4375 0  -0.4375 0.1875 0  0.5625 0.4375 0  0.375 0 0  0.4375 0.0625 0  0.5625 0.0625 0  0.5 0.0625 0  0.4375 0.1875 0  0.5625 0.1875 0  -0.1875 0.3125 0  -0.3125 0.1875 0  -0.1875 0.25 0  -0.25 0.1875 0  -0.1875 0.1875 0  -0.3125 0.3125 0  -0.25 0.3125 0  -0.3125 0.25 0  0.3125 0.3125 0  0.3125 0.25 0  0.3125 0.1875 0  0.1875 0.3125 0  0.25 0.1875 0  0.1875 0.25 0  0.1875 0.1875 0  0.3125 0.0625 0  0.25 0.0625 0  -1 -0.875 0  -0.875 -0.75 0  -0.4375 -0.3125 0  -0.75 -0.625 0  -0.875 -0.875 0  -0.8749999999999999 -1 0  0.0078125 0.0078125 0  0.0078125 0 0  -0.0078125 0.0078125 0  0 0.0078125 0  -0.0078125 0 0  -0.0078125 -0.0078125 0  0 -0.0078125 0  -0.75 -0.875 0  -0.625 -0.75 0  -0.6875 -0.6875 0  -0.25 -0.375 0  -0.3125 -0.1875 0  -0.25 -0.1875 0  -0.3125 -0.25 0  -0.1875 -0.1875 0  -0.3125 -0.3125 0  -0.1875 -0.25 0  -0.1875 -0.3125 0  -0.625 -0.875 0  -0.6249999999999999 -1 0  0 -0.375 0  -0.0625 -0.25 0  -0.0625 -0.3125 0  -0.4999999999999999 -0.875 0  -0.5625 -0.6875 0  -0.4375 -0.8125 0  -0.3125 -0.4375 0  -0.1875 -0.4375 0  -0.1875 -0.5 0  -0.1875 -0.5625 0  -0.4374999999999999 -0.9375 0  -0.0625 -0.4375 0  -0.0625 -0.5 0  -0.0625 -0.5625 0  0.375 0.1875 0  0.3125 0.125 0  0.4375 0.125 0  0.125 0.3125 0  -0.125 0.3125 0  -0.1875 0.375 0  -0.3125 0.125 0  -0.375 0.1875 0  -0.125 0.1875 0  -0.1875 0.125 0  0.1875 0.125 0  0.21875 0.09375 0  0.125 0.1875 0  0.15625 0.09375 0  -0.3125 -0.125 0  -0.1875 -0.125 0  -0.375 -0.3125 0  -0.125 -0.1875 0  -0.09375 -0.15625 0  -0.125 -0.3125 0  -0.09375 -0.21875 0  -0.125 -0.4375 0  0.5625 0.125 0  0.0234375 0.0078125 0  0.0078125 0.0234375 0  -0.0078125 0.0234375 0  0 0.0234375 0  -0.0234375 0.0078125 0  -0.0234375 0 0  -0.0234375 -0.0078125 0  -0.0078125 -0.0234375 0  0.015625 0.0078125 0  0.0078125 0.015625 0  -0.0078125 0.015625 0  -0.015625 0.0078125 0  -0.015625 -0.0078125 0  -0.0078125 -0.015625 0  -1 0.625 0  -0.9375 0.6875 0  -0.375 1 0  -0.5 0.875 0  -0.4375 0.9375 0  -0.5625 0.9375 0  -0.625 0.75 0  -0.75 0.625 0  -0.6875 0.6875 0  -0.6875 0.8125 0  -0.8125 0.6875 0  -0.875 0.5 0  -1 0.375 0  -0.9375 0.4375 0  -0.9375 0.5625 0  -0.125 1 0  -0.25 0.875 0  -0.3125 0.9375 0  -0.1875 0.9375 0  -0.4375 0.8125 0  -0.5625 0.6875 0  -0.5625 0.8125 0  -0.6875 0.5625 0  -0.8125 0.4375 0  -0.8125 0.5625 0  -0.875 0.25 0  -1 0.125 0  -0.9375 0.3125 0  -0.9375 0.1875 0  0.125 1 0  0 0.875 0  -0.0625 0.9375 0  0.0625 0.9375 0  -0.3125 0.8125 0  -0.1875 0.8125 0  -0.3125 0.6875 0  -0.1875 0.75 0  -0.1875 0.6875 0  -0.4375 0.5625 0  -0.5625 0.4375 0  -0.4375 0.5 0  -0.5 0.4375 0  -0.4375 0.4375 0  -0.8125 0.3125 0  -0.6875 0.3125 0  -0.8125 0.1875 0  -0.75 0.1875 0  -0.6875 0.1875 0  -0.875 0 0  -1 -0.125 0  -0.9375 0.0625 0  -0.9375 -0.06250000000000001 0  0.1875 0.8125 0  -0.0625 0.8125 0  0.0625 0.6875 0  -0.0625 0.6875 0  0.0625 0.8125 0  0.0625 0.75 0  -0.3125 0.5625 0  -0.25 0.5625 0  -0.3125 0.5 0  -0.1875 0.5625 0  -0.3125 0.4375 0  -0.25 0.4375 0  -0.5625 0.3125 0  -0.5 0.3125 0  -0.5625 0.25 0  -0.4375 0.3125 0  -0.5625 0.1875 0  -0.4375 0.25 0  -0.8125 0.0625 0  -0.6875 0.0625 0  -0.6875 -0.06250000000000001 0  -0.8125 -0.06250000000000001 0  -0.75 -0.06250000000000001 0  0.4375 0.3125 0  0.4375 0.25 0  0.25 0.4375 0  0.1875 0.4375 0  0.1875 0.5625 0  0.1875 0.5 0  0.0625 0.5625 0  -0.0625 0.5625 0  0 0.5625 0  -0.0625 0.5 0  0.0625 0.5 0  -0.5625 0.0625 0  -0.5 0.0625 0  -0.5625 0 0  -0.5625 -0.06250000000000001 0  -0.5 -0.0625 0  -0.8125 -0.1875000000000001 0  0.1875 0 0  0.21875 0.03125 0  -0.0625 0.25 0  0.0625 0.25 0  0 0.1875 0  0.03125 0.21875 0  -0.03125 0.21875 0  0 0.3125 0  0.03125 0.28125 0  -0.03125 0.28125 0  -0.25 0.0625 0  -0.25 -0.0625 0  -0.21875 0.03125 0  -0.21875 -0.03125 0  -0.3125 0 0  -0.28125 0.03125 0  -0.4375 -0.1875 0  -0.4375 -0.25 0  -0.5625 -0.1875 0  -0.5 -0.1875 0  0.00390625 0.00390625 0  0.00390625 0 0  -0.00390625 0.00390625 0  0 0.00390625 0  -0.00390625 0 0  -0.00390625 -0.00390625 0  0 -0.00390625 0  0 -0.1875 0  -0.03125 -0.21875 0  0.375 0.3125 0  0.1875 0.375 0  0.125 0.4375 0  -0.09375 0.21875 0  -0.21875 0.09375 0  0.09375 0.21875 0  0.09375 0.28125 0  0.09375 0.15625 0  0.15625 0.03125 0  0.03125 0.15625 0  -0.03125 0.15625 0  0.03125 0.125 0  -0.375 -0.1875 0  -0.4375 -0.125 0  -0.21875 -0.09375 0  -0.03125 -0.15625 0  0.0625 0.15625 0  -0.125 0.8125 0  -0.3125 0.625 0  -0.625 0.3125 0  -0.375 0.4375 0  -0.4375 0.375 0  -0.8125 0.125 0  0.125 0.5625 0  -0.0625 0.625 0  -0.125 0.5625 0  -0.3125 0.375 0  -0.375 0.3125 0  -0.5625 0.125 0  -0.625 0.0625 0  -0.5625 -0.125 0  0.125 0.8125 0  -0.8125 -0.125 0  -0.03125 0.34375 0  -0.0625 0.375 0  -0.34375 0.03125 0  -0.375 0.0625 0  0.01171875 0.00390625 0  0.00390625 0.01171875 0  -0.00390625 0.01171875 0  0 0.01171875 0  -0.01171875 0.00390625 0  -0.01171875 0 0  -0.01171875 -0.00390625 0  -0.00390625 -0.01171875 0  0.0078125 0.00390625 0  0.00390625 0.0078125 0  -0.00390625 0.0078125 0  -0.0078125 0.00390625 0  -0.0078125 -0.00390625 0  -0.00390625 -0.0078125 0  -0.875 1 0  -1 0.875 0  -0.9375 0.9375 0  -0.8125 0.9375 0  -0.9375 0.8125 0  1 0.875 0  0.875 1 0  0.9375 0.9375 0  0.9375 0.06250000000000008 0  0.9375 0.1875000000000001 0  0.9375 0.3125000000000001 0  0.9375 0.8125 0  0.9375 0.75 0  0.9375 0.6875 0  0.625 1 0  0.8125 0.9375 0  0.75 0.9375 0  0.6875 0.9375 0  0.375 1 0  0.5625 0.9375 0  0.5 0.9375 0  0.4375 0.9375 0  0.3125 0.9375 0  0.25 0.9375 0  0.1875 0.9375 0  0.8125 0.8125 0  0.6875 0.8125 0  0.8125 2.775557561562891e-17 0  0.8125 0.06250000000000003 0  0.75 0.0625 0  0.6
[...]
<PointData  Scalars="u"> 
<DataArray  type="Float64"  Name="u"  format="ascii">1.2599817071528800e+00  1.1552255306141965e+00  1.1551583947186337e+00  1.0524678738287219e+00  1.0400857548916309e+00  1.0524713227717075e+00  9.5484457979397053e-01  9.2494168848016323e-01  9.2492428098131563e-01  9.5484461937626774e-01  6.3007011991119732e-01  -9.6946421287676771e-05  1.6598805958576221e-01  3.2783381503572318e-01  4.8278560759857475e-01  6.7245082223216079e-01  7.2473510046540723e-01  7.8885142939291042e-01  8.6605122268898971e-01  8.1435364689892831e-01  7.9370299216265172e-01  8.1444986023990951e-01  8.6605121510467509e-01  5.1992383468644165e-01  7.5633096650243092e-05  1.8199073311314956e-01  3.5668115658346006e-01  5.6842157533637150e-01  6.3230507699911498e-01  7.1471372310414516e-01  6.6266110363360609e-01  6.6266345683980421e-01  7.1471701111463282e-01  7.8885266364635032e-01  3.9690112545993034e-01  1.3677396186014519e-04  2.0647589050169887e-01  4.5650335742060655e-01  5.4508468898863638e-01  4.9974550594227163e-01  5.4510431774259660e-01  6.3230056557968739e-01  7.2473955468378948e-01  2.4995725995377585e-01  1.0770472388954428e-04  3.4307450566132158e-01  6.7257773459711323e-01  3.4290372891890863e-01  4.5650539852440919e-01  5.6844189036380344e-01  6.3015484519673914e-01  1.1609438914003177e-03  5.1984710622925479e-01  2.4996310658996326e-01  3.9668580979451901e-01  4.8282608891892798e-01  1.0787878925571616e-04  3.5680630826209353e-01  2.0642472355026067e-01  3.2767427015217365e-01  1.3578608969482147e-04  1.8201484819095623e-01  1.6590380361799281e-01  8.3571735624740677e-05  -9.8250302921889778e-05  3.2739726962166099e-01  2.2441430015479893e-01  1.1466919663236970e-01  3.5785201335458694e-01  3.9815629133376867e-01  5.1311550536152783e-01  5.1290648154576768e-01  4.1717269419429215e-01  4.1715400859123891e-01  1.2960014028619787e-01  2.8707443233449786e-01  1.5752814267711740e-01  -4.9567128684704421e-04  3.1450633099975311e-01  2.1619799821722399e-01  3.9823968582132169e-01  2.1594414186083430e-01  2.8715370162578557e-01  3.5804025066374007e-01  1.5755453754848719e-01  -4.9559682657893892e-04  3.2763650313334902e-01  1.2943316075866118e-01  1.1465670703128594e-01  7.2267693369569300e-02  2.5021504103034070e-01  3.2269442151365924e-01  3.2289392131031791e-01  2.8292491309662832e-01  2.5048828691462449e-01  9.9450468970829917e-02  -2.5444994858707208e-04  1.9813653844596496e-01  1.3580455417316789e-01  1.3546116032082947e-01  9.9454159963822411e-02  -2.5430225853065904e-04  4.6045341816758084e-01  3.7488048102808214e-01  3.0386832962561378e-01  7.2260386766704418e-02  2.8555889757973635e-01  2.7061880314148967e-01  1.0423658046170932e-01  1.9268194479037012e-01  2.5808248290742197e-01  2.4758214654460692e-01  9.7224167211346899e-02  -1.9302471768730263e-04  1.7339742062965346e-01  9.1514960043908120e-02  8.7107796816118549e-02  8.3203279066415461e-02  -8.3563824139373295e-05  8.1601731591580517e-02  1.8067392945458094e-01  2.6262504017648375e-01  2.6276096792582859e-01  1.8073175616835413e-01  8.1607835001641496e-02  9.3657332605859422e-01  9.2094627472576429e-01  8.6850368033794589e-01  8.5924767268121360e-01  9.3658215543434764e-01  8.5924271491525217e-01  8.6849615430389171e-01  8.3725128324575837e-01  7.9899842093461970e-01  7.6277956881875109e-01  7.4002732154179707e-01  7.9900191251885744e-01  7.2767635708998524e-01  7.2767614517502077e-01  8.3727097185748434e-01  7.4002804739260919e-01  7.6278146251040235e-01  9.7277791480851472e-02  1.9270803915981341e-01  2.8545386282383362e-01  5.8709320536824572e-01  6.8424900111392428e-01  6.3284610233980676e-01  6.5481713670195707e-01  6.0103851173942868e-01  5.8256078996022165e-01  6.8397422077638603e-01  5.8256191801172885e-01  6.0104730748968804e-01  6.3264546627545648e-01  1.0440555436478569e-01  5.8701450739633487e-01  6.2612008706971090e-02  -1.5684568755260897e-04  1.2500027041314729e-01  8.5474967578581057e-02  8.5270446142990258e-02  6.2604317310731267e-02  -1.5682658415271390e-04  4.5471155894583469e-02  1.5755736364107101e-01  2.0302713024891497e-01  1.7812379716066540e-01  2.0267577040220272e-01  1.7806088054421684e-01  1.5783789715031651e-01  4.5473789023846911e-02  5.0795690528970643e-02  1.1373322684278421e-01  1.6467637250350448e-01  1.6461362465162199e-01  1.1372167105905165e-01  5.0796276234091296e-02  1.1526309586326888e+00  1.1034585702312931e+00  1.0975411525300405e+00  1.0976628534491448e+00  1.0432089117537127e+00  1.0431423277610905e+00  5.7630700722382600e-01  8.3170380337670186e-02  -6.2706814743661784e-05  2.4746244621262439e-01  8.7071709325573107e-02  1.7319462964497809e-01  4.0614925008908404e-01  2.5847005888946595e-01  3.4082256402176714e-01  5.0028640309911587e-01  4.2170804533151762e-01  5.9749338843747701e-01  6.2163779120905727e-01  6.4818896160150241e-01  6.7860351286871368e-01  7.1242443869356442e-01  7.5029822404729385e-01  4.3952376215165889e-01  5.4238613741260022e-01  4.6048539412145645e-01  9.1506517131512866e-02  2.7067157209444742e-01  5.9817841353992074e-01  4.8473674911056963e-01  5.1344439849048107e-01  6.7110378281830396e-01  5.4737216508895037e-01  7.5029856662329575e-01  6.7110554763332109e-01  7.1254534463452168e-01  3.0413932300772500e-01  4.2359718470485425e-01  3.6275290996621484e-01  4.9670809487361928e-01  3.9128189537241037e-01  4.4996172801411688e-01  4.7257882178054966e-01  5.2707300961425740e-01  4.4999709782432806e-01  4.9676688435227195e-01  5.2708987740638125e-01  4.7261582213833647e-01  6.7859049411156436e-01  5.4727982196153058e-01  5.9817393263984608e-01  6.4824744143896618e-01  3.6960596070266677e-01  4.3081172427098940e-01  6.2133768123976096e-01  4.3081325486854644e-01  3.6961053289408424e-01  5.1341615484244119e-01  4.2345022641056435e-01  4.8479649716570095e-01  3.9446400193236482e-02  -9.8508557638872632e-05  7.8735880549030426e-02  5.3808899392420187e-02  5.3683505047277896e-02  3.9441308145368573e-02  -9.8511792892657854e-05  2.8702108740056863e-02  9.9098259740418929e-02  1.2767594023165041e-01  1.1199969904653484e-01  1.2764464804153863e-01  1.1197132735541229e-01  9.9269328056590209e-02  2.8700270729044693e-02  3.2112589699373056e-02  7.1623001350115609e-02  1.0375334403179209e-01  1.0374217479105151e-01  7.1611609872733892e-02  3.2109103072291367e-02  2.2040485286588958e-06  4.7134667420637218e-02  3.7487416550946601e-01  3.2175597052682936e-01  5.8988287641116954e-01  5.8982365713435414e-01  3.3999734462221598e-01  3.5042397329165887e-06  5.4494443176455583e-02  5.0431703417206028e-02  5.2310515703174756e-02  1.6251180601267878e-01  1.5010728426696313e-01  5.0279558205665775e-01  5.0279308322382366e-01  4.5782819261831242e-01  4.5782442868868944e-01  4.1211956697656033e-01  5.8002484026586221e-01  5.4113345502806420e-01  5.4113309588369163e-01  2.8996510884063675e-01  2.3609371235006898e-01  1.7952669818350292e-01  3.2306739016265906e-01  1.9146828433055008e-01  2.6664777789778210e-01  2.0650564069976687e-01  6.1103876760234307e-02  6.5891811798805600e-02  6.5023241442483370e-01  5.9747399781362087e-01  3.9138349454818816e-01  5.4250093937266375e-01  5.7621564801123659e-01  5.5741464145112529e-01  2.4827834596200502e-02  -5.9027992564894454e-05  4.9561473139741498e-02  3.3841963839969312e-02  3.3762506955366624e-02  2.4825476915337336e-02  -5.9031225520743415e-05  5.0036294009801541e-01  4.3972787362417759e-01  4.9074233695930730e-01  2.2445171078175377e-01  3.2336030210527095e-01  2.6667969446229917e-01  3.0530752487414620e-01  2.0610485950377766e-01  2.8977573162471881e-01  1.9119469930880753e-01  1.7961329921091185e-01  4.2173446022663086e-01  4.0614291323283996e-01  3.4935410431767665e-06  6.5859768706416633e-02  6.1368276575660768e-02  3.4103071603760543e-01  4.0796534605176177e-01  3.0660403979555267e-01  2.6561050815043535e-01  1.6249120567836059e-01  1.5592462356560235e-01  1.5030735200570466e-01  2.9364917304051524e-01  5.4631025572350438e-02  5.2329315944517341e-02  5.0473172429155125e-02  1.7022539676108478e-01  1.2120955480802977e-01  1.0910731749064376e-01  3.4445935471693206e-01  4.6597926180678745e-01  5.4693492957930478e-01  4.6597312906264149e-01  5.4693705997730102e-01  3.6683176829013669e-01  3.6687446724433354e-01  1.4117329871017439e-01  1.0213869743613491e-01  2.2519450096167956e-01  1.1327666991417212e-01  3.4459109992236281e-01  2.2524142359742158e-01  3.4166621800366542e-01  1.4115655138222505e-01  1.1327861306749472e-01  1.2117875998031288e-01  1.0225684376906935e-01  1.0897174450965956e-01  1.0048025294835400e-01  1.8118034407747619e-02  6.2392361170194269e-02  8.0402794049281967e-02  7.0510193511278685e-02  8.0395286074478933e-02  7.0501399281659397e-02  6.2505656400161341e-02  1.8115873274858026e-02  2.0236294379647628e-02  4.5095009056576603e-02  6.5332232212236566e-02  6.5329223014205642e-02  4.5089783154386331e-02  2.0233884962084329e-02  1.1034377636256139e+00  1.0998592712088933e+00  1.0028292924085835e+00  9.8928494268393086e-01  9.9518673318705142e-01  1.0471859419955374e+00  9.8227288631054932e-01  9.8225688506274722e-01  9.8132948028000511e-01  1.0408296057065189e+00  1.0408076911692250e+00  9.8926276816761982e-01  1.0028292365378433e+00  9.9527572639419670e-01  1.0471421297125616e+00  9.0909712464807113e-01  8.8567815486166224e-01  9.4506324470488645e-01  8.9657336727198822e-01  9.2988719535378239e-01  9.2195625999646580e-01  9.8494279416682684e-01  9.2194650747059415e-01  9.2987313196014154e-01  9.8486107144929846e-01  8.8567624937809220e-01  9.0909712582090119e-01  9.4506068402854326e-01  8.9673812117967022e-01  8.2573904559101841e-01  7.9200187777894138e-01  8.5117604741647845e-01  8.0856391380314474e-01  8.7628539722871890e-01  8.2496620815180921e-01  8.0539894207573204e-01  7.8801969598266708e-01  7.5013009978105571e-01  7.9481561459526606e-01  7.9481340753506391e-01  7.6046720747141483e-01  7.6046661719621056e-01  7.2602163783005713e-01  8.7630048729562959e-01  8.0539605326701558e-01  8.2496588555587813e-01  7.8802010623330665e-01  7.5026526332477927e-01  7.9200287322269758e-01  8.2568488355920300e-01  8.5117633454308961e-01  8.0856420394729733e-01  6.9172301434102657e-01  7.7681399712919319e-01  6.5124334409915874e-01  6.9838039190167256e-01  7.3204702531915844e-01  6.9235260834372825e-01  7.3240915299704545e-01  7.0187170727678461e-01  6.9495205489462542e-01  6.7232791557299287e-01  6.5680502387132478e-01  6.2299090061819096e-01  7.3246632642132503e-01  6.9495279227920448e-01  7.0187356657891198e-01  6.5680584680749554e-01  6.7233236915398242e-01  6.2299305329859544e-01  7.7680772776529483e-01  6.9838545897497972e-01  6.5139677006768459e-01  7.3204861460210668e-01  6.9235552621815177e-01  2.6562471535745047e-01  2.1469619746640292e-01  4.0823609520642468e-01  4.2736561348153218e-01  5.2195774989454202e-01  4.7559838000538496e-01  5.6560793552179323e-01  6.1587023385238826e-01  5.8987883162345944e-01  5.7239343102282714e-01  5.2008052660566373e-01  6.1599642017017320e-01  5.7240719270058305e-01  5.8989291950009226e-01  5.6562254797564882e-01  5.2010141471562454e-01  6.9172245407257060e-01  1.1089841941229769e-05  3.4613026492067413e-02  3.7875001045236956e-01  3.1277452741465128e-01  2.8308865426349805e-01  2.9754286791212803e-01  3.3189079009284084e-01  3.9854831491483872e-01  3.5586599554991966e-01  3.8779396633602309e-01  3.7868816254133991e-01  3.1276135773255298e-01  3.3177537850846284e-01  2.9752024510966629e-01  3.9856034598629514e-01  3.8776681891120635e-01  4.2725405776226594e-01  4.0827243433288052e-01  5.2188916647813233e-01  4.7568875528164378e-01  1.5597887087713832e-02  -1.3127056513178749e-04  3.1173965892090094e-02  2.1255900972402784e-02  2.1135395402836387e-02  1.5596900223618001e-02  -1.3127696661434832e-04  1.1090026996854581e-05  3.4606735657326707e-02  2.7676833198766110e-01  3.7659275666864739e-01  4.4866408836140015e-01  3.7129345553194909e-01  3.7120157039392315e-01  2.6878228924441866e-01  3.2833907598740725e-01  2.0345541786003213e-01  3.8426736099998082e-02  2.3273756531660572e-01  2.7131904695436571e-01  1.9674404119520678e-01  3.7669252253802932e-01  4.4869575791442412e-01  2.6886775558182713e-01  3.8426175856325268e-02  2.1677104837177952e-01  8.0043113859957316e-01  7.6925017919979610e-01  7.6924888655096835e-01  6.9139163035302054e-01  6.9139178915762323e-01  8.0043202446539452e-01  5.4280768252574230e-01  6.5786418850535555e-01  6.4341655353441918e-01  6.1858821209034887e-01  6.1858869614417522e-01  6.4342390101259106e-01  6.5787180707331916e-01  5.4284660546335917e-01  7.1128194063131078e-01  7.1128270579490382e-01  4.3977105533083172e-01  4.8000534830917690e-01  4.3980161347915919e-01  4.8002295234704301e-01  1.1409044204983492e-02  3.9270160518020000e-02  5.0611535240550731e-02  4.4377375891721998e-02  5.0609156406530194e-02  4.4374283017983650e-02  3.9344082951541196e-02  1.1407857018144164e-02  1.2735590140364517e-02  2.8365164443024379e-02  4.1109984293280076e-02  4.1108965873513870e-02  2.8363011014379838e-02  1.2734442884856586e-02  1.2074475720440139e+00  1.2074504105051125e+00  1.2068227919598513e+00  1.1532011150876349e+00  1.1532127624627411e+00  5.5732429750556089e-01  6.5012797447132509e-01  6.0346460580291017e-01  4.2574311170033144e-02  1.2741371213600347e-01  2.1133749955466474e-01  5.2917844503280265e-01  4.9121777561769858e-01  4.5262360036379573e-01  6.9728649271215126e-01  6.2409665352916144e-01  6.3527733049645996e-01  6.4715022473277029e-01  7.5528371124043658e-01  6.7295408642799015e-01  6.8687599723886217e-01  7.0166594283237116e-01  7.3374293661982903e-01  7.5112279269876525e-01  7.6947605794470697e-01  5.4858610456564361e-01  5.7031280253701444e-01  -3.4565096502615488e-05  4.4709920418550160e-02  4.5815282216126046e-02  1.4096508073465910e-01  1.8712552761993065e-01  2.3264897315836139e-01  1.3352842346126576e-01  1.7741866795767064e-01  2.2106716321087530e-01  1.3691714052303697e-01  2.2662546395800526e-01  3.0656189259520050e-01  4.0802524703981169e-01  6.2325340840910182e-01  5.1401937647993201e-01  5.8276423406122124e-01  5.2711053685970355e-01  5.4118332152845061e-01  6.0938943529695377e-01  6.5528109363659126e-01  6.1463120925756698e-01  5.7275433254842378e-01  5.9043936929437602e-01  7.5513550106563110e-01  7.6938534536943948e-01  7.5112158592531730e-01  7.3376556882649802e-01  4.2929011776179726e-01  4.4139292023887333e-01  4.5468523969086377e-01  4.0951695267436661e-01  3.8525236007299463e-01  1.0167373543556451e-04  1.9910004050693467e-01  2.4719327188084100e-01  2.5574928499523442e-01  4.8516804465105812e-01  5.0270756256285387e-01  4.3915637781476730e-01  4.9863281477414273e-01  5.0915362070259640e-01  4.9865939530355413e-01  5.0917984794810611e-01  6.0939295201248489e-01  6.5527921730234073e-01  5.9039823194220997e-01  6.1462662311383387e-01  5.7278660040038720e-01  6.9715644761537310e-01  7.0162619159337603e-01  6.8686565799896970e-01  6.7296481429735422e-01  -3.6701294218185757e-06  3.1762188638398227e-02  5.0269816906844045e-01  4.8523624847245850e-01  4.3911877056336912e-01  5.1415388994783817e-01  6.2325657658887157e-01  5.8276749763728175e-01  5.4117544048763910e-01  5.2712020184096220e-01  9.8943334241429412e-03  -2.5387360789126527e-04  1.9590165833600886e-02  1.3124578214653159e-02  1.3124309021079663e-02  9.8939371832567104e-03  -2.5387884991193285e-04  2.3604941417218481e-01  2.1425534465848775e-01  3.6293938444555385e-01  4.2923908821610668e-01  3.8530640378047942e-01  3.5101395353082554e-01  3.4020867144669681e-01  4.5464173137791170e-01  4.0948344573239009e-01  4.4134917234726945e-01  -3.6592783862929082e-06  3.1782853612680052e-02  3.6531666391950990e-01  3.2179570817227970e-01  2.5579186043305735e-01  2.4730764609246961e-01  1.9911597886681284e-01  2.1460258363980037e-01  1.0095080751493105e-04  2.3266653078290864e-01  2.2662114362073110e-01  1.8714859249686000e-01  2.2093229365792433e-01  1.4096046516267591e-01  1.7753267170908921e-01  1.3703601622186420e-01  1.3345339914242765e-01  1.2748129330699309e-01  4.7115364967298352e-02  3.8767423352678492e-05  4.5906777691693941e-02  4.4607542165910986e-02  -3.5044081137241198e-05  4.2582281526828317e-02  1.2975411730061673e-01  1.2048380706978803e-01  1.6784576304042939e-01  4.1666765315902930e-02  3.1668776348853600e-01  3.1662692594032216e-01  2.5968269090443574e-01  2.8842345037849981e-01  2.8844222130656932e-01  3.6515093748874283e-01  3.4090396402534667e-01  2.7117386217787554e-01  2.5079580822916331e-01  2.3278499614201054e-01  2.3814252193005611e-01  1.9678380457196620e-01  2.0352141742192653e-01  1.2977701352216048e-01  1.6788886035458278e-01  1.2049788416357461e-01  4.1669196221980315e-02  3.1495313192424002e-01  3.7635753507391495e-01  2.9625156023637644e-01  2.9334929447653568e-01  3.0229692909547273e-01  2.9340744547916375e-01  3.4440696138323834e-01  2.1687252726838199e-01  8.8785989019189895e-02  1.4176043908138997e-01  7.1042484985372661e-02  2.3059829133459156e-01  2.3060961673000893e-01  1.4178113219540972e-01  8.8795128208906005e-02  7.1046682970037467e-02  4.7216526331120806e-01  3.3061793214962343e-01  2.9421892075693162e-01  2.8506955219700353e-01  2.7766570247176647e-01  2.3953482169124454e-01  2.6411619707367318e-01  1.4524042957817143e-01  4.8652800041670073e-02  9.4161738648950374e-02  1.3033851045384251e-01  8.9262590427741650e-02  4.3541012739566377e-02  6.4350257286964210e-02  6.4355433536919388e-02  1.4519453909666377e-01  9.4244178371400186e-02  2.3951921072693200e-01  2.7769993038350743e-01  2.9419811291481729e-01  5.6643513925731326e-01  5.6643648814137804e-01  5.3856332043830679e-01  4.3529866948180292e-02  1.3027897671553496e-01  8.9151763832399256e-02  2.1594136946135684e-01  2.6408794507477767e-01  6.0910302164198526e-01  6.6291148625974039e-01  6.9502977294003432e-01  6.3880760249219037e-01  4.7214442745800161e-01  4.1812704523621258e-01  5.5640074557896235e-01  4.9853272497752210e-01  5.2969491717531214e-01  4.6925333362810911e-01  6.9503286570233924e-01  4.6102302018275204e-01  4.1016982386237166e-01  4.2243881973620651e-01  4.6106009815139065e-01  4.1021448189940096e-01  4.2248282368239026e-01  6.3880264610011561e-01  6.6291761907721569e-01  5.2967306106292578e-01  5.5638507134015891e-01  4.6918823917532437e-01  4.9850701358479421e-01  2.7993268828287052e-02  2.9710966630883379e-02  5.7564727278506755e-02  7.1807795145113927e-03  2.4670988276277041e-02  3.1825850780049458e-02  2.7879479253461625e-02  3.1824990906668182e-02  2.7878315588497963e-02  2.4720259657056775e-02  7.1802503631117742e-03  2.0253048316322389e-01  1.9298205084102546e-01  2.7684823076938503e-01  1.7035638098835640e-01  2.9705873911319364e-02  2.7991012778525858e-02  5.7558384996378414e-02  8.0575521884597590e-03  1.7744269017737690e-02  2.5854053361894093e-02  2.5853672674554726e-02  1.7743406213933395e-02  8.0570688945335034e-03  </DataArray> 
</PointData> 
</Piece>
</UnstructuredGrid>
</VTKFile>