<?xml version="1.0"?>
<VTKFile type="UnstructuredGrid"  version="0.1"  >
<UnstructuredGrid>
<Piece  NumberOfPoints="5863" NumberOfCells="11463">
<Points>
<DataArray  type="Float64"  NumberOfComponents="3"  format="ascii">-1 1 0  -0.75 1 0  -1 0.75 0  -0.5 1 0  -0.75 0.75 0  -1 0.5 0  -0.25 1 0  -0.5 0.75 0  -0.75 0.5 0  -1 0.25 0  1 1 0  1 1.110223024625157e-16 0  1 0.2500000000000001 0  1 0.5 0  1 0.75 0  0.75 1 0  0.5 1 0  0.25 1 0  0 1 0  -0.25 0.75 0  -0.5 0.5 0  -0.75 0.25 0  -1 0 0  0.75 0.75 0  0.75 0 0  0.75 0.25 0  0.75 0.5 0  0.5 0.75 0  0.25 0.75 0  0 0.75 0  -0.25 0.5 0  -0.5 0.25 0  -0.75 0 0  -1 -0.2500000000000001 0  0.5 0.5 0  0.5 0 0  0.5 0.25 0  0.25 0.5 0  0 0.5 0  -0.25 0.25 0  -0.5 0 0  -0.75 -0.2500000000000001 0  -1 -0.5 0  0.25 0.25 0  0.25 0 0  0 0.25 0  -1 -0.75 0  -0.25 0 0  -0.5 -0.25 0  -0.75 -0.5 0  -0.9999999999999999 -1 0  0 0 0  -0.75 -0.75 0  -0.25 -0.25 0  -0.5 -0.5 0  -0.7499999999999999 -1 0  0 -0.25 0  -0.5 -0.75 0  -0.25 -0.5 0  -0.4999999999999999 -0.9999999999999999 0  0 -0.5 0  -0.25 -0.75 0  -0.2499999999999999 -0.9999999999999999 0  0 -0.75 0  0 -0.9999999999999999 0  0.375 0.125 0  0.125 0.375 0  -0.125 0.375 0  -0.375 0.125 0  -0.125 0.25 0  -0.25 0.125 0  0.25 0.125 0  0.125 0.25 0  0.125 0.125 0  0.125 0 0  -0.125 0.125 0  0 0.125 0  -0.375 -0.125 0  -0.125 0 0  -0.25 -0.125 0  -0.125 -0.125 0  -0.125 -0.375 0  -0.375 -0.625 0  -0.125 -0.5 0  -0.25 -0.625 0  -0.3749999999999999 -0.875 0  -0.125 -0.625 0  0 -0.625 0  -0.2499999999999999 -0.875 0  -0.125 -0.75 0  -0.1249999999999999 -0.875 0  -0.1249999999999999 -0.9999999999999999 0  0 -0.875 0  -0.375 0.625 0  -0.625 0.375 0  -0.375 0.5 0  -0.5 0.375 0  -0.375 0.375 0  -0.25 0.375 0  -0.375 0.25 0  0.1875 0.0625 0  0.1875 0 0  0.0625 0.1875 0  -0.0625 0.1875 0  0 0.1875 0  -0.1875 0.0625 0  -0.1875 0 0  -0.1875 -0.0625 0  0 -0.125 0  0.0625 0.0625 0  0.0625 0 0  -0.0625 0.0625 0  0 0.0625 0  -0.0625 0 0  -0.0625 -0.0625 0  -0.125 -0.25 0  -0.1875 -0.1875 0  -0.0625 -0.1875 0  0.125 0.0625 0  0.0625 0.125 0  -0.0625 0.125 0  -0.125 0.0625 0  -0.125 -0.0625 0  0.875 0.375 0  0.125 0.875 0  0.625 0.625 0  0.75 0.375 0  0.625 0.125 0  0.625 0.25 0  0.625 0.5 0  0.625 0.375 0  0.375 0.625 0  0.125 0.75 0  0.25 0.625 0  0.125 0.625 0  -0.125 0.625 0  0 0.625 0  -0.125 0.5 0  -0.625 0.125 0  -0.5 0.125 0  -0.625 0 0  0.5 0.375 0  0.375 0.5 0  0.375 0.375 0  0.5 0.125 0  0.125 0.5 0  0.25 0.375 0  -0.625 -0.125 0  -0.5 -0.125 0  -0.625 -0.25 0  -0.625 -0.375 0  -0.375 -0.25 0  -0.5 -0.375 0  0 -0.0625 0  0.03125 0.03125 0  0.03125 0 0  -0.03125 0.03125 0  0 0.03125 0  -0.03125 0 0  -0.03125 -0.03125 0  -0.375 -0.375 0  0.09375 0.03125 0  0.03125 0.09375 0  -0.03125 0.09375 0  0 0.09375 0  -0.09375 0.03125 0  -0.09375 0 0  -0.09375 -0.03125 0  -0.03125 -0.09375 0  0.0625 0.03125 0  0.03125 0.0625 0  -0.03125 0.0625 0  -0.0625 0.03125 0  -0.0625 -0.03125 0  -0.0625 -0.125 0  -0.875 0.875 0  -0.625 1 0  -0.75 0.875 0  -0.875 0.75 0  -1 0.625 0  -0.625 0.875 0  -0.375 1 0  -0.5 0.875 0  -0.875 0.625 0  -0.625 0.75 0  -0.75 0.625 0  -0.875 0.5 0  -1 0.375 0  -0.375 0.875 0  -0.125 1 0  -0.25 0.875 0  -0.625 0.625 0  -0.375 0.75 0  -0.5 0.625 0  -0.875 0.375 0  -0.625 0.5 0  -0.75 0.375 0  -0.875 0.25 0  -1 0.125 0  0.875 0.1250000000000001 0  0.875 0.2500000000000001 0  -0.125 0.875 0  -0.875 0.125 0  -0.75 0.125 0  -0.875 0 0  -1 -0.125 0  0.75 0.125 0  -0.875 -0.125 0  -0.75 -0.125 0  -0.875 -0.2500000000000001 0  0 0.375 0  -0.0625 0.4375 0  -0.375 0 0  -0.4375 0.0625 0  -0.875 -0.375 0  -0.0625 0.3125 0  -0.875 -0.625 0  -0.3125 0.0625 0  -0.75 -0.625 0  -0.625 -0.5 0  0 -0.03125 0  0.015625 0.015625 0  0.015625 0 0  -0.015625 0.015625 0  0 0.015625 0  -0.015625 0 0  -0.015625 -0.015625 0  -0.625 -0.625 0  0.046875 0.015625 0  0.015625 0.046875 0  -0.015625 0.046875 0  0 0.046875 0  -0.046875 0.015625 0  -0.046875 0 0  -0.046875 -0.015625 0  -0.015625 -0.046875 0  0.03125 0.015625 0  0.015625 0.03125 0  -0.015625 0.03125 0  -0.03125 0.015625 0  -0.03125 -0.015625 0  -0.03125 -0.0625 0  1 0.875 0  0.875 0.875 0  1 0.625 0  0.875 0.5 0  0.875 0.75 0  0.875 0.625 0  0.625 1 0  0.75 0.875 0  0.625 0.875 0  0.5 0.875 0  0.375 0.875 0  -0.125 0.75 0  -0.25 0.625 0  -0.1875 0.6875 0  0.75 0.625 0  0.625 0.75 0  0.6875 0.6875 0  0.375 0.75 0  0.5 0.625 0  0.5625 0.6875 0  0.4375 0.6875 0  0.3125 0.6875 0  -0.1875 0.5625 0  0.375 0 0  0.4375 0.0625 0  0.375 0.25 0  0.4375 0.1875 0  0.5625 0.1875 0  0.4375 0.3125 0  0.5 0.1875 0  -0.1875 0.3125 0  -0.3125 0.1875 0  -0.1875 0.25 0  -0.25 0.1875 0  -0.1875 0.1875 0  0.3125 0.1875 0  0.1875 0.3125 0  0.25 0.1875 0  0.1875 0.25 0  0.1875 0.1875 0  0.3125 0.3125 0  0.3125 0.0625 0  0.25 0.0625 0  0.0625 0.3125 0  -0.4375 -0.3125 0  -0.875 -0.875 0  -0.8749999999999999 -1 0  0 -0.015625 0  0.0078125 0.0078125 0  0.0078125 0 0  -0.0078125 0.0078125 0  0 0.0078125 0  -0.0078125 0 0  -0.0078125 -0.0078125 0  -0.75 -0.875 0  -0.625 -0.75 0  -0.25 -0.375 0  -0.3125 -0.1875 0  -0.1875 -0.3125 0  -0.3125 -0.25 0  -0.3125 -0.3125 0  -0.5 -0.625 0  -0.375 -0.5 0  -0.4375 -0.5625 0  -0.4375 -0.4375 0  -0.625 -0.875 0  -0.6249999999999999 -1 0  0 -0.375 0  -0.0625 -0.3125 0  -0.0625 -0.25 0  -0.4999999999999999 -0.875 0  -0.375 -0.75 0  -0.4375 -0.8125 0  -0.1875 -0.4375 0  -0.3125 -0.5625 0  -0.1875 -0.5 0  -0.1875 -0.5625 0  -0.3125 -0.4375 0  -0.3749999999999999 -0.9999999999999999 0  -0.4374999999999999 -0.9375 0  -0.0625 -0.4375 0  0.3125 0.125 0  0.4375 0.125 0  0.125 0.3125 0  -0.125 0.1875 0  -0.1875 0.125 0  0.1875 0.125 0  0.125 0.1875 0  -0.125 -0.4375 0  -0.125 -0.3125 0  -0.375 -0.3125 0  0 -0.046875 0  0.0234375 0.0078125 0  0.0078125 0.0234375 0  -0.0078125 0.0234375 0  0 0.0234375 0  -0.0234375 0.0078125 0  -0.0234375 0 0  -0.0234375 -0.0078125 0  -0.0078125 -0.0234375 0  -0.0078125 -0.0390625 0  0.015625 0.0078125 0  0.0078125 0.015625 0  -0.0078125 0.015625 0  -0.015625 0.0078125 0  -0.015625 -0.0078125 0  -0.015625 -0.03125 0  -0.6875 0.4375 0  1 0.1250000000000001 0  0.875 5.551115123125783e-17 0  0.9375 0.06250000000000008 0  0.9375 0.1875000000000001 0  0.375 1 0  0.125 1 0  0.25 0.875 0  0.1875 0.9375 0  0.3125 0.9375 0  0 0.875 0  0.0625 0.9375 0  -0.0625 0.9375 0  -0.4375 0.4375 0  -0.625 0.25 0  -0.6875 0.3125 0  -0.6875 0.1875 0  -0.8125 0.3125 0  -0.75 0.3125 0  0.625 0 0  0.6875 0.0625 0  0.8125 0.06250000000000003 0  0.75 0.0625 0  0.6875 0.1875 0  0.1875 0.8125 0  0.3125 0.8125 0  0.0625 0.8125 0  -0.0625 0.8125 0  -0.1875 0.4375 0  -0.3125 0.5625 0  -0.3125 0.5 0  -0.3125 0.4375 0  -0.25 0.4375 0  -0.1875 0.5 0  -0.4375 0.1875 0  -0.5625 0.3125 0  -0.5 0.3125 0  -0.4375 0.3125 0  -0.4375 0.25 0  -0.5625 0.1875 0  -0.5 0.1875 0  -1 -0.375 0  0.5625 0.0625 0  0.5 0.0625 0  0.1875 0.4375 0  0.1875 0.5625 0  0.3125 0.4375 0  0.1875 0.5 0  0.25 0.4375 0  0.0625 0.4375 0  0.0625 0.5625 0  0.0625 0.5 0  0 0.4375 0  -0.3125 0.3125 0  -0.25 0.3125 0  -0.3125 0.25 0  -0.4375 -0.0625 0  -0.5625 0.0625 0  -0.5625 -0.06250000000000001 0  -0.5 -0.0625 0  -0.4375 0 0  -0.75 -0.375 0  -0.6875 -0.3125 0  -0.8125 -0.3125 0  -1 -0.625 0  -0.875 -0.5 0  -0.9375 -0.4375 0  -0.9375 -0.5625 0  -0.875 -0.75 0  -0.9375 -0.6875 0  -0.25 0.0625 0  -0.3125 -0.0625 0  -0.25 -0.0625 0  -0.21875 -0.03125 0  -0.3125 0 0  -0.28125 0.03125 0  -0.4375 -0.1875 0  -0.5625 -0.1875 0  -0.5 -0.1875 0  -0.6875 -0.4375 0  -0.8125 -0.4375 0  -0.8125 -0.5625 0  0 -0.0078125 0  0.00390625 0.00390625 0  0.00390625 0 0  -0.00390625 0.00390625 0  0 0.00390625 0  -0.00390625 0 0  -0.00390625 -0.00390625 0  -0.8125 -0.6875 0  -0.25 -0.1875 0  -0.1875 -0.25 0  -0.21875 -0.21875 0  0 -0.1875 0  -0.03125 -0.21875 0  0.125 0.4375 0  0.1875 0.375 0  0.0625 0.375 0  -0.1875 0.375 0  -0.125 0.4375 0  -0.375 0.1875 0  -0.4375 0.125 0  -0.3125 -0.125 0  -0.4375 -0.125 0  -0.375 -0.1875 0  -0.375 -0.0625 0  -0.34375 -0.15625 0  -0.1875 -0.125 0  -0.21875 -0.09375 0  -0.21875 -0.15625 0  -0.28125 -0.15625 0  -0.15625 -0.09375 0  -0.15625 -0.15625 0  -0.09375 -0.15625 0  -0.6875 0.375 0  -0.375 0.4375 0  -0.4375 0.375 0  -0.3125 0.375 0  -0.375 0.3125 0  -0.03125 -0.15625 0  -0.15625 -0.21875 0  -0.09375 -0.21875 0  -0.125 -0.1875 0  0.5625 0.125 0  0.6875 0.125 0  0.125 0.5625 0  -0.5625 0.125 0  0.3125 0.375 0  -0.5625 -0.125 0  -0.34375 0.03125 0  -0.375 0.0625 0  0 -0.0234375 0  0.01171875 0.00390625 0  0.01171875 0 0  0.00390625 0.01171875 0  -0.00390625 0.01171875 0  0 0.01171875 0  -0.01171875 0.00390625 0  -0.01171875 0 0  -0.01171875 -0.00390625 0  -0.00390625 -0.01171875 0  -0.00390625 -0.01953125 0  0.0078125 0.00390625 0  0.00390625 0.0078125 0  -0.00390625 0.0078125 0  -0.0078125 0.00390625 0  -0.0078125 -0.00390625 0  -0.0078125 -0.015625 0  -0.875 1 0  -1 0.875 0  -0.9375 0.9375 0  -0.8125 0.9375 0  -0.9375 0.8125 0  -0.4375 0.6875 0  -0.4375 0.8125 0  -0.5625 0.6875 0  -0.4375 0.75 0  -0.5 0.6875 0  -0.6875 0.5625 0  1 0.3750000000000001 0  0.9375 0.3125000000000001 0  0.9375 0.2500000000000001 0  0.9375 0.4375 0  -0.3125 0.6875 0  -0.25 0.6875 0  -0.4375 0.5625 0  -0.5625 0.4375 0  -0.4375 0.5 0  -0.5 0.4375 0  -0.5625 0.5625 0  -0.5 0.5625 0  -0.5625 0.5 0  -0.8125 0.1875 0  0.8125 0.3125 0  0.75 0.3125 0  0.6875 0.25 0  0.6875 0.3125 0  0.8125 0.4375 0  0.6875 0.5625 0  0.6875 0.5 0  0.6875 0.4375 0  0.1875 0.6875 0  0.0625 0.75 0  0.0625 0.6875 0  -0.0625 0.6875 0  0 0.6875 0  -0.6875 0.0625 0  -0.6875 0 0  -0.6875 -0.06250000000000001 0  -0.8125 0.0625 0  -0.75 0.0625 0  -0.8125 -0.06250000000000001 0  -0.75 -0.06250000000000001 0  0.5625 0.5625 0  0.5625 0.5 0  0.5625 0.4375 0  0.4375 0.5625 0  0.5 0.4375 0  0.4375 0.5 0  0.4375 0.4375 0  0.5 0.5625 0  0.5625 0.25 0  0.5625 0.3125 0  0.5 0.3125 0  0.3125 0.5625 0  0.25 0.5625 0  0.3125 0.5 0  -0.0625 0.5625 0  0 0.5625 0  -0.0625 0.5 0  -0.6875 -0.1875000000000001 0  -0.8125 -0.1875000000000001 0  -0.75 -0.1875000000000001 0  0.3125 0.25 0  0.28125 0.21875 0  0.3125 0 0  0.28125 0.03125 0  -0.0625 0.25 0  0.0625 0.25 0  0.03125 0.21875 0  -0.03125 0.21875
[...]
<PointData  Scalars="u"> 
<DataArray  type="Float64"  Name="u"  format="ascii">1.2599345651625120e+00  1.1551988893975611e+00  1.1551988877513077e+00  1.0525200624947655e+00  1.0400429497684167e+00  1.0525200597461128e+00  9.5489224193241540e-01  9.2502545328678187e-01  9.2502050983296569e-01  9.5487821724447652e-01  6.2997227252617571e-01  -2.5209115102536198e-05  1.6593797888719838e-01  3.2770987315484357e-01  4.8270736797371239e-01  6.7250896082608536e-01  7.2483320000048301e-01  7.8898641404600345e-01  8.6602640511088358e-01  8.1444896814239365e-01  7.9369195524072766e-01  8.1443820780711995e-01  8.6603415026136266e-01  5.2001601012374365e-01  6.7785794980346578e-06  1.8197303431566328e-01  3.5650074424223499e-01  5.6855129443967312e-01  6.3246165837322998e-01  7.1484859819100111e-01  6.6296513641195387e-01  6.6296718271517652e-01  7.1484934751562246e-01  7.8896772109258018e-01  3.9683356576384538e-01  1.0617252179307940e-05  2.0640194633949280e-01  4.5660321487598060e-01  5.4548459984502606e-01  4.9996120681636441e-01  5.4547258163189993e-01  6.3246239849751362e-01  7.2481482592798752e-01  2.4997621951585061e-01  2.2363801899941624e-05  3.4362372303607019e-01  6.7254044236352095e-01  3.4359373945259536e-01  4.5660114985597605e-01  5.6854579170617947e-01  6.2996686628824206e-01  7.3381510006972710e-05  5.2000735512083784e-01  2.4995307991484106e-01  3.9682675933082606e-01  4.8269275151423158e-01  2.7549225504116055e-05  3.5649892064149674e-01  2.0641253287178757e-01  3.2771039936850505e-01  4.4182292510431931e-05  1.8198104265757850e-01  1.6592572487992571e-01  6.8476612654706319e-06  -2.1117197842970313e-05  1.1465538536400685e-01  3.9839438686108680e-01  5.1306893312490198e-01  5.1305899780170627e-01  4.1764628776992979e-01  4.1766516138971094e-01  1.3002609952727173e-01  2.8755048921590043e-01  1.5747646708550342e-01  -2.4217502629065033e-05  3.1487158679232546e-01  2.1647794351577515e-01  3.9839296481869924e-01  2.1640855639642728e-01  2.8759050951305581e-01  1.5748360391135857e-01  1.1462599576993106e-01  2.8549738412736853e-01  1.0446248631554561e-01  1.9273982717401619e-01  2.5804943792511015e-01  9.7204129212481241e-02  -3.7534731609006175e-05  1.7322205909357180e-01  9.1521443227381552e-02  8.7001469842821921e-02  8.3222455731621764e-02  -4.1666117374216553e-06  7.9907118974628344e-01  7.9907029955112197e-01  7.2769269553945437e-01  7.2769893004382480e-01  6.5509940832804703e-01  5.8272450963900302e-01  5.8277453987048655e-01  7.2170779221255921e-02  4.9212271082904187e-05  2.5092127104537582e-01  3.2313571412788900e-01  2.8364301048025364e-01  3.2312665883947789e-01  2.8359468126426896e-01  2.5094358725314042e-01  -1.5572269493915268e-05  9.9218436563675308e-02  -6.8346007874345950e-05  1.9837151976748710e-01  1.3633065382394921e-01  1.3629745194547874e-01  9.9178023918835317e-02  1.3005212643775418e-01  2.0632607647851178e-01  7.2216831808445181e-02  8.1841531025475839e-02  1.8109175995854379e-01  2.6303619655765981e-01  2.6303745789365601e-01  1.8109105718449836e-01  2.5806636204655675e-01  7.5053772828835319e-01  4.6050324433855705e-01  2.7049981039605298e-01  9.7186278625776251e-02  1.9272451735083065e-01  3.7482315282595302e-01  2.8550607579634890e-01  5.1357420773832552e-01  6.7127209067515092e-01  5.4748985840544007e-01  5.8722616115903736e-01  6.8441797709981456e-01  6.3304901527827673e-01  6.0145775869480478e-01  6.8439853663026740e-01  6.0145029701810360e-01  6.3302775090301855e-01  3.0404549631669614e-01  4.2361937713646075e-01  3.2756683739265152e-01  1.0451662500956223e-01  4.9697797070123173e-01  3.5816157654618397e-01  5.8722971304155713e-01  4.9698194551645197e-01  5.4747125007462161e-01  5.1357257500109943e-01  3.5815275454358542e-01  4.2361911447214889e-01  -3.0748758906226921e-05  6.2473767471363212e-02  -2.8114892093251360e-05  1.2491683747327534e-01  8.5818285876599190e-02  8.5719552313684985e-02  6.2348518667388941e-02  3.2758550999342945e-01  4.5505056900256635e-02  1.5798899766709654e-01  2.0351992556787390e-01  1.7865497997272159e-01  2.0352365898663158e-01  1.7862950869736938e-01  1.5802857808883114e-01  4.5517649394642402e-02  5.1583033106525275e-02  1.1405502227722883e-01  1.6562550284770886e-01  1.6562701173598338e-01  1.1405062065509680e-01  8.1903912896205355e-02  1.1525967804261166e+00  1.1034633547319170e+00  1.0977727531119883e+00  1.0977725255060398e+00  1.1034633580079336e+00  1.0432075800407330e+00  1.0028706839877159e+00  9.8939266482799815e-01  1.0432095756175803e+00  9.8232631912128165e-01  9.8232506402591480e-01  9.8939087905684975e-01  1.0028706885172316e+00  9.3672471183062378e-01  9.0914273854843786e-01  8.8593902397719471e-01  9.2097376055304170e-01  8.6883148868569315e-01  8.5970063586045564e-01  9.3672798271863089e-01  8.5970498127330874e-01  8.6882844914712543e-01  8.8591264221674115e-01  9.0914269426986871e-01  8.6982123982888945e-02  1.7321021876363310e-01  8.3751016909934439e-01  8.3753860442002015e-01  7.6281965718028266e-01  7.9224543269874514e-01  8.2588047768098760e-01  9.1523758451945006e-02  7.5053878374509753e-01  6.7127760465278197e-01  7.1270944299101213e-01  4.5034331158689733e-01  5.2759432483194701e-01  4.5029817307988035e-01  5.2759253706889631e-01  6.7869812480250380e-01  4.3110518522978702e-01  6.2146981471591389e-01  4.3113920187758886e-01  5.4262349380204089e-01  4.8487210706553246e-01  -1.6403634843883685e-06  3.9366198257704259e-02  -7.7283847939853286e-05  7.8641290229158431e-02  5.4085041746341676e-02  5.4035753021584171e-02  3.9278178252238512e-02  4.6049490129147208e-01  2.8566505112691772e-02  9.9475658128825001e-02  1.2808757396826737e-01  1.1247559589264194e-01  1.2808894582248198e-01  1.1243037179044438e-01  9.9524507719240263e-02  2.8672123732596120e-02  3.2447077893670837e-02  7.1720004435117349e-02  1.0418113349825325e-01  1.0418237313443388e-01  7.1725376581362077e-02  5.1555327022499459e-02  5.5729251716335848e-01  5.7631833508527264e-01  4.0613371900122158e-01  3.4097313323172762e-01  5.0018918306218463e-01  4.2173501347613307e-01  6.9729792560203230e-01  5.9756500328151319e-01  6.2148552274521085e-01  6.4837644283899265e-01  6.7868458476060645e-01  7.6279620542703563e-01  7.4020037061320576e-01  7.5049346530095684e-01  4.3967282344542569e-01  5.4262192312930468e-01  4.9070533555251566e-01  5.9833158977965628e-01  4.8487087978451177e-01  5.1412979904695455e-01  5.4132058365017899e-01  5.7294572531619381e-01  6.7228936460557709e-01  1.3215793719301386e-05  5.4797238922918795e-02  2.2453892766086272e-01  1.6256328827440644e-01  1.5021576216958168e-01  2.6564548318787290e-01  1.5595375040770290e-01  5.0335371683519570e-01  5.0334746065217550e-01  4.5837689846463586e-01  4.5836976729259826e-01  4.1269632961563107e-01  1.7987364638460054e-01  3.2351122325350240e-01  1.9155567843276830e-01  2.6684903685110817e-01  2.0636142235701005e-01  2.9006760211533872e-01  6.1217281990938552e-02  6.5803786800604669e-02  3.6993745708248826e-01  3.9149488347120037e-01  5.7629743902945374e-01  5.5729909108230502e-01  6.9342160567833990e-06  2.4815237476924046e-02  -3.5416236745602175e-05  4.9520287604096672e-02  3.3954194582189810e-02  3.3887272890309315e-02  2.4640632178349383e-02  5.0019821877858650e-01  4.3967930267935301e-01  2.2455631582200808e-01  3.2352418210721390e-01  1.7985558056469672e-01  3.0544683270774331e-01  2.9007045440478063e-01  3.7482037792558404e-01  3.0406308637482304e-01  3.4030254361043127e-01  3.6303785488494356e-01  4.2173910650538515e-01  4.0614463177351012e-01  1.1709252394326761e-07  6.1212604432627028e-02  6.5809242735270848e-02  3.4098657538932359e-01  2.7050045093021602e-01  3.0650645040946661e-01  1.6254073068615726e-01  2.4719602597044688e-01  1.5592775591945629e-01  1.5025758215590260e-01  2.6564817898155124e-01  2.4753549108313094e-01  2.9359485479100700e-01  5.4784582419397543e-02  1.2141427232310237e-01  1.0913618120366944e-01  3.4486651937337137e-01  3.6703122474070443e-01  3.6702282173778672e-01  1.4142245147254306e-01  2.2559378988718826e-01  1.0911536676593400e-01  1.2141856488446180e-01  3.4179967179687132e-01  6.2169351627838196e-05  1.8074501663668769e-02  6.2539904598739648e-02  8.0578187942025509e-02  7.0689629778489360e-02  8.0580617101594296e-02  7.0694165333013800e-02  6.2661134114353645e-02  1.8013677404247953e-02  1.5276094043066322e-02  2.0439116753695304e-02  4.5158137597792726e-02  6.5497009371427203e-02  6.5499078671337724e-02  4.5165436979519843e-02  3.2498537175065859e-02  8.6317023752283106e-01  8.3266311214284211e-02  6.6953786461087202e-06  4.2537225209682214e-02  1.2736415472212284e-01  7.5531872920473997e-01  8.2590079651451864e-01  7.1266313688345684e-01  7.6952278776766592e-01  7.3391338263640826e-01  7.9224054263612187e-01  8.0867392748325484e-01  8.5122811677942500e-01  7.2608954880203125e-01  7.4022800319276205e-01  8.0565249794867400e-01  7.5047341284404012e-01  8.7648789087247403e-01  8.4132553037231028e-01  5.5726982712941633e-07  4.7181185828662674e-02  4.4631765383933403e-02  4.5812775360470410e-02  1.4087846618193703e-01  6.9173633425707626e-01  6.5553276407183136e-01  7.3223213416053401e-01  7.7686838125237989e-01  5.9005602795590395e-01  7.3253703197132514e-01  6.9510649831708138e-01  6.5709601043948196e-01  6.2325220155581607e-01  6.3167733574535756e-01  5.9009827244563029e-01  7.3251284490917323e-01  6.9511260273491293e-01  6.5710490801532540e-01  6.2324393500462538e-01  6.7228115998611626e-01  6.3166185617879189e-01  7.5531174028909143e-01  5.0412035867531582e-02  5.2417182302943829e-02  4.2749798728425664e-01  5.2207408119931031e-01  3.9145868107473553e-01  4.7576924030588985e-01  4.0844872543088784e-01  4.7278264481927162e-01  5.6568144810849086e-01  5.2023409837151935e-01  4.9908376711171487e-01  5.8017312034190316e-01  5.4152986558675287e-01  5.4153485184493133e-01  4.7277994314520105e-01  6.1609768847874369e-01  5.6568015930001714e-01  5.2022313426049249e-01  4.9906458656801256e-01  5.9831673826356202e-01  5.7296478461402922e-01  6.5554104260811485e-01  6.9732291021198356e-01  6.4838126648450312e-01  7.0181545616519647e-01  6.7300788983501969e-01  5.9756985993330924e-01  6.4722122428763240e-01  3.7884836661656818e-01  3.6988869957671766e-01  3.1303513308854836e-01  2.9778835419560057e-01  3.9879141506367938e-01  3.8811320132647958e-01  4.2750059104467963e-01  5.2207333523280175e-01  4.7580583103956225e-01  5.4133443730987196e-01  6.2348831537484795e-01  5.9526639382282620e-01  4.8530823754976923e-06  1.5660386964967399e-02  -2.2392726111870990e-05  3.1261748684759796e-02  2.1379127720647539e-02  2.1339548175047098e-02  1.5519494426038968e-02  5.7042925227060104e-01  2.6689178228861538e-01  1.9152252318991198e-01  2.2869747502829496e-01  1.0366439856573680e-05  3.4513096620004347e-02  4.4891328433881361e-01  3.7689329948085504e-01  4.2284358970456815e-01  5.4728292762247643e-01  5.5806925360742532e-01  5.4728909887620791e-01  5.5805469047258860e-01  3.4484330418876280e-01  4.4891856514262141e-01  3.7688572028191475e-01  4.2283568894925194e-01  3.6095069860496265e-01  2.2557666250304556e-01  2.6929145970384916e-01  2.4657873981164505e-01  3.0574261885209914e-01  2.0378159033860238e-01  1.8270583728152753e-01  1.1323584409598046e-01  8.3417949813681069e-01  6.9153229089469503e-01  6.9153647080702507e-01  6.1879980267048529e-01  6.1878243023671320e-01  3.8525655444153872e-02  1.6738581916514741e-01  1.0241266251426090e-01  1.4140144793448459e-01  1.0057381433953226e-01  9.4203639915270185e-02  5.4301237314648754e-01  6.4357710351127095e-01  3.4177946898274986e-01  5.4301411013929024e-01  4.4017820991620105e-01  4.8050131490316023e-01  4.5271734775540848e-05  1.1288161624811274e-02  2.6317499679840292e-05  3.9386875826506164e-02  5.0753182066011190e-02  4.4541169467905331e-02  5.0756656926032380e-02  4.4547054077332698e-02  3.9464181395697108e-02  1.1281716312970655e-02  9.5551310666240775e-03  1.2731241243470855e-02  2.8424437282359740e-02  4.1166680274835880e-02  4.1169553620200708e-02  2.8435457879214174e-02  2.0471617207985477e-02  1.2074560992655339e+00  1.2074560992328318e+00  1.2068495051969599e+00  1.1532499429637100e+00  1.1532498861130058e+00  8.6317967155777797e-01  9.2998429931077353e-01  9.2202161441942365e-01  8.9676502360854315e-01  8.9248955432799926e-01  9.2201958159323194e-01  2.4755377784571772e-01  2.1119469683341016e-01  1.6940889435198575e-01  2.9357563514503621e-01  8.0562683523986256e-01  7.7768782253184709e-01  7.9501749575809411e-01  7.9502136368900100e-01  7.6060003929611397e-01  7.6060259525964724e-01  8.5852783537334454e-01  8.2670772864107211e-01  8.2671026089533584e-01  8.2518486915169487e-01  2.2095514280649747e-01  2.2653219101015684e-01  1.8708563095995456e-01  2.3267481025645545e-01  3.0650547421733904e-01  4.0787651191302243e-01  3.6526082736827997e-01  3.2184022615341512e-01  6.0961011362734241e-01  6.9248521479364644e-01  6.5159306195584032e-01  6.9878143834978701e-01  6.7455931845527983e-01  6.9876917974752217e-01  6.7454493928762516e-01  6.5161567973984624e-01  7.7686913494660093e-01  7.3833084147164540e-01  7.3223191762238937e-01  6.9248653935326066e-01  4.2927311195742818e-01  3.8532414465531800e-01  3.4028447021293856e-01  4.5473415976002496e-01  3.5107466060005471e-01  4.0955430200886256e-01  3.6305175082740865e-01  4.4143989183727950e-01  1.9914451966158173e-01  2.4718465973894568e-01  2.5581784227676108e-01  4.8530883695254218e-01  5.0287304022846568e-01  4.3923756698566491e-01  6.1610614361082261e-01  5.9010944189645731e-01  5.7267655743011681e-01  6.0959801999828767e-01  6.9174407472890564e-01  6.5125730080269584e-01  2.3612628107447756e-01  2.1437791217084393e-01  2.3257472816805480e-07  3.1777949558868972e-02  3.7887587445986121e-01  3.1309828126322037e-01  2.9777873957035256e-01  3.3232316100643761e-01  3.1434824397418676e-01  3.9874275420390470e-01  3.8809572402688303e-01  3.5626714155982553e-01  3.3229801101711703e-01  4.8532665484447141e-01  4.3925112487134438e-01  5.1412673839671930e-01  3.2626696700804245e-06  9.8712951184521808e-03  -1.4092040891855071e-05  1.9702471624325583e-02  1.3469739707284985e-02  1.3446489294622933e-02  9.7866966568676481e-03  2.3612178747357565e-01  2.1436108132940812e-01  4.5473121653654552e-01  4.0954835331139489e-01  4.4143718120979614e-01  4.2927628533493406e-01  3.2182934199116237e-01  5.2403104258650440e-02  5.0456124398235956e-02  -3.8758697817194237e-05  2.3268191254105267e-01  1.8707544440409501e-01  2.2096672999665298e-01  1.4086217147446728e-01  1.3695902819496825e-01  1.3344089403947831e-01  2.2653012337946454e-01  4.7192815074999575e-02  8.4958752474457553e-06  4.5847196578028791e-02  4.4624445485120963e-02  4.6629707762676559e-01  3.7167826290516759e-01  4.2345662297483455e-01  4.1391291407455483e-01  3.9255782952756635e-01  2.6928659443620917e-01  3.2879858906231629e-01  1.1324356254352912e-01  2.0377605242834729e-01  1.2994287033960608e-01  1.2061972374682080e-01  1.6803264093838718e-01  3.8579792552375314e-02  4.1523549989698032e-02  3.1699950052151626e-01  3.1700137431556208e-01  2.5993890623911936e-01  2.8874298645094115e-01  2.8874366149054637e-01  2.3294086805473588e-01  2.7153013952191607e-01  2.5118217106419094e-01  1.9711671084842902e-01  2.3853372367224537e-01  2.7152725816492673e-01  2.5112392636579178e-01  2.3299463372677373e-01  2.3853632607569825e-01  1.2995958225611937e-01  1.6803675325044451e-01  1.2061803460989019e-01  2.3951532745224963e-01  2.7761813212546954e-01  1.0055692493890302e-01  1.4526747145311181e-01  4.8676066803593307e-02  9.4183996893538138e-02  8.9153384335369817e-02  7.6360346608590135e-01  8.3416823022210473e-01  8.2922191302111659e-01  7.6938173019721201e-01  7.6360917598181643e-01  7.6481701238599542e-02  2.6631916852527160e-01  2.1722107760456705e-01  3.0265467463545709e-01  2.9373499596824920e-01  3.4472840127305754e-01  3.0262133929578494e-01  2.9373557992980859e-01  8.9018166792506792e-02  1.4208030535872412e-01  2.3107079348670234e-01  2.3107198549144070e-01  1.4207695557838393e-01  8.9032806990427329e-02  2.6397950975623968e-01  2.1585358535396348e-01  4.7219108015885647e-01  2.7760563648560432e-01  2.3951798436233318e-01  3.3062149822315284e-01  2.9423025951928028e-01  5.2981885478606217e-01  4.6932248920144493e-01  6.2995024784634213e-01  6.0937761915850641e-01  6.5806597381761212e-01  6.4360133234074923e-01  6.5808287147257383e-01  7.2411734257959193e-01  6.0936681913378488e-01  3.1504679291076138e-01  3.7643167705599789e-01  6.2994204143790422e-01  4.6932153525160408e-01  8.9031147777366981e-01  8.9031160455672009e-01  8.0061108915605661e-01  7.1145361793148565e-01  4.8935531014220784e-01  4.4017384890517414e-01  4.1044062100897061e-01  4.8050018059662547e-01  4.7217062370663587e-01  2.9732505181936947e-02  5.7650905956951208e-02  2.0273910052329105e-01  1.7042705837108513e-01  4.1962685453257308e-05  7.1462033482366360e-03  1.6082630056589786e-05  2.4777285068756833e-02  3.1924810523066137e-02  2.8005577206200592e-02  3.1929214821563835e-02  2.8013476452875125e-02  2.4836457245783653e-02  2.0272188125061946e-01  1.7038412549028628e-01  7.1457249628806771e-03  5.9815537336487421e-03  8.0378169612720166e-03  1.7913563216339610e-02  2.5949996308143784e-02  2.5953231749855362e-02  1.7927504425869351e-02  1.2870883999976480e-02  1.1292388768711423e+00  1.1265448041090711e+00  1.0999190711427564e+00  1.1265446653351454e+00  1.1292388744091124e+00  1.0999213656349895e+00  1.0778741850549003e+00  1.0471311985513143e+00  1.0274998456100932e+00  1.0211169192518639e+00  9.9537812987561702e-01  1.0970519641356273e+00  1.0689064991212045e+00  1.0689062924466253e+00  1.0408225307496470e+00  1.0408219369414795e+00  1.0111356242654570e+00  1.0111351655792873e+00  9.8142573536919753e-01  1.0778741882811544e+00  1.0471305268414530e+00  1.0211160642487256e+00  1.0274998430516653e+00  9.9538449726653799e-01  9.7864728413469326e-01  9.4508476329203173e-01  9.3170083851303809e-01  9.2070704822765914e-01  8.9686193953572924e-01  9.8499774487479519e-01  9.5734333555869988e-01  9.5359882704111743e-01  9.8499948149976291e-01  9.5359622728672433e-01  9.5734035465532008e-01  9.2998103416930022e-01  8.9675990459206290e-01  9.7863653290311292e-01  9.4508385692040875e-01  9.2069716658698353e-01  9.3170086990065393e-01  8.9687373493596256e-01  6.5015663461750495e-01  5.9386002891806688e-01  6.0342686980828431e-01  3.3408628914672517e-01  3.7416421850260545e-01  5.2910964397806548e-01  4.9117847472192505e-01  4.5269228680286772e-01  6.2412257801115112e-01  6.3534674992364237e-01  6.4723694860832448e-01  6.7300485523713316e-01  6.8699190901950891e-01  7.0183989617436149e-01  8.7648367719814080e-01  8.5049157373483431e-01  8.4132767096918792e-01  8.2516588412109892e-01  7.8820503732416713e-01  8.8723786311653496e-01  8.5121841451090763e-01  8.2952416647198801e-01  8.4555908651264411e-01  8.0867142898450717e-01  5.4853091886059802e-01  5.0979435702318121e-01  4.7039450405965599e-01  5.5913318000952317e-01  5.7042796490389225e-01  4.8021370126290741e-01  5.3094418613467154e-01  1.3345764854303402e-01  1.7739017969334886e-01  1.3693692781413103e-01  3.4844296742047076e-01  3.8971662603213381e-01  3.9844465714407190e-01  5.9527341189852867e-01  6.0891731715879649e-01  6.2349196546098185e-01  5.5513310149286621e-01  5.8291844373283019e-01  7.6951667105090149e-01  7.5128415891663580e-01  7.3394062396827442e-01  2.1474093139330480e-01  2.3565870315538906e-01  4.5735076902832006e-01  5.7268941677201268e-01  5.9011725875182730e-01  5.3618270137611279e-01  5.8109696278733247e-01  3.0541544789322250e-01  2.8644290920998661e-01  2.7041032232711820e-01  3.4492418753245963e-02  3.0307342234145038e-05  3.3004113104512789e-02  6.5013842396886223e-01  6.2414604757671133e-01  6.0341629560202725e-01  5.9387296806619316e-01  2.0613786560176957e-06  6.2203054036620888e-03  -8.8726667042334729e-06  1.2415066556808340e-02  8.4868782578361307e-03  8.4729909359731181e-03  6.1683404152499356e-03  5.3093533456575148e-01  4.9072117158389783e-01  5.4853884790366292e-01  5.0978548