<?xml version="1.0"?>
<VTKFile type="UnstructuredGrid"  version="0.1"  >
<UnstructuredGrid>
<Piece  NumberOfPoints="1646" NumberOfCells="3160">
<Points>
<DataArray  type="Float64"  NumberOfComponents="3"  format="ascii">-1 1 0  -0.75 1 0  -1 0.75 0  -0.5 1 0  -0.75 0.75 0  -1 0.5 0  -0.25 1 0  -0.5 0.75 0  -0.75 0.5 0  -1 0.25 0  1 1 0  1 1.110223024625157e-16 0  1 0.2500000000000001 0  1 0.5 0  1 0.75 0  0.75 1 0  0.5 1 0  0.25 1 0  0 1 0  -0.25 0.75 0  -0.5 0.5 0  -0.75 0.25 0  -1 0 0  0.75 0.75 0  0.75 0 0  0.75 0.25 0  0.75 0.5 0  0.5 0.75 0  0.25 0.75 0  0 0.75 0  -0.25 0.5 0  -0.5 0.25 0  -0.75 0 0  -1 -0.2500000000000001 0  0.5 0.5 0  0.5 0 0  0.5 0.25 0  0.25 0.5 0  0 0.5 0  -0.25 0.25 0  -0.5 0 0  -0.75 -0.2500000000000001 0  -1 -0.5 0  0.25 0.25 0  0.25 0 0  0 0.25 0  -1 -0.75 0  -0.25 0 0  -0.5 -0.25 0  -0.75 -0.5 0  -0.9999999999999999 -1 0  0 0 0  -0.75 -0.75 0  -0.25 -0.25 0  -0.5 -0.5 0  -0.7499999999999999 -1 0  0 -0.25 0  -0.5 -0.75 0  -0.25 -0.5 0  -0.4999999999999999 -0.9999999999999999 0  0 -0.5 0  -0.25 -0.75 0  -0.2499999999999999 -0.9999999999999999 0  0 -0.75 0  0 -0.9999999999999999 0  0.375 0.375 0  0.375 0.25 0  0.375 0.125 0  0.25 0.375 0  0.125 0.375 0  -0.125 0.375 0  -0.375 0.125 0  -0.125 0.25 0  -0.25 0.125 0  0.25 0.125 0  0.125 0.25 0  0.125 0.125 0  0.125 0 0  -0.125 0.125 0  0 0.125 0  -0.375 -0.125 0  -0.125 0 0  -0.25 -0.125 0  -0.375 -0.25 0  -0.125 -0.125 0  0 -0.125 0  -0.375 -0.375 0  -0.125 -0.25 0  -0.125 -0.375 0  0.1875 0.0625 0  0.0625 0.1875 0  -0.0625 0.1875 0  -0.1875 0.0625 0  -0.1875 0 0  -0.1875 -0.0625 0  0.0625 0.0625 0  0.0625 0 0  -0.0625 0.0625 0  0 0.0625 0  -0.0625 0 0  -0.0625 -0.0625 0  0 -0.0625 0  -0.625 -0.625 0  -0.5 -0.625 0  -0.375 -0.5 0  -0.0625 -0.1875 0  -0.375 -0.625 0  -0.375 -0.75 0  -0.125 -0.5 0  -0.25 -0.625 0  -0.3749999999999999 -0.875 0  -0.3749999999999999 -0.9999999999999999 0  -0.125 -0.625 0  0 -0.625 0  -0.2499999999999999 -0.875 0  -0.125 -0.75 0  -0.1249999999999999 -0.875 0  -0.1249999999999999 -0.9999999999999999 0  0 -0.875 0  0.125 0.0625 0  0.0625 0.125 0  -0.0625 0.125 0  -0.125 0.0625 0  -0.125 -0.0625 0  -0.0625 -0.125 0  -0.375 0.875 0  -0.625 0.625 0  -0.375 0.75 0  -0.5 0.625 0  -0.875 0.375 0  -0.625 0.5 0  -0.75 0.375 0  -0.125 0.875 0  -0.375 0.625 0  -0.125 0.75 0  -0.25 0.625 0  -0.625 0.375 0  -0.375 0.5 0  -0.5 0.375 0  -0.875 0.125 0  -0.625 0.25 0  -0.75 0.125 0  0.625 0.125 0  0.625 0.25 0  0.625 0.375 0  0.125 0.625 0  -0.125 0.625 0  0 0.625 0  -0.375 0.375 0  -0.125 0.5 0  -0.25 0.375 0  -0.625 0.125 0  -0.375 0.25 0  -0.5 0.125 0  -0.625 0 0  0.5 0.125 0  -0.625 -0.125 0  0.03125 0.03125 0  0.03125 0 0  -0.03125 0.03125 0  0 0.03125 0  -0.03125 0 0  -0.03125 -0.03125 0  0 -0.03125 0  0.09375 0.03125 0  0.03125 0.09375 0  -0.03125 0.09375 0  0 0.09375 0  -0.09375 0.03125 0  -0.09375 0 0  -0.09375 -0.03125 0  -0.03125 -0.09375 0  0.0625 0.03125 0  0.03125 0.0625 0  -0.03125 0.0625 0  -0.0625 0.03125 0  -0.0625 -0.03125 0  -0.03125 -0.0625 0  -0.875 0.875 0  -0.625 1 0  -0.75 0.875 0  -0.875 0.75 0  -0.625 0.875 0  -0.875 0.625 0  0.875 0.875 0  1 0.1250000000000001 0  0.875 5.551115123125783e-17 0  1 0.3750000000000001 0  0.875 0.1250000000000001 0  0.875 0.2500000000000001 0  1 0.625 0  0.875 0.375 0  0.875 0.5 0  0.875 0.75 0  0.875 0.625 0  0.75 0.875 0  0.625 0.875 0  0.5 0.875 0  0.375 0.875 0  0.25 0.875 0  0.125 0.875 0  0.75 0.625 0  0.625 0.75 0  0.625 0.625 0  0.75 0.125 0  0.75 0.375 0  0.375 0.75 0  0.5 0.625 0  0.375 0.625 0  0.125 0.75 0  0.25 0.625 0  -0.875 -0.125 0  -0.75 -0.125 0  -0.875 -0.2500000000000001 0  0.5 0.375 0  0.375 0.5 0  0.4375 0.4375 0  0.125 0.5 0  0.3125 0.4375 0  0 0.375 0  0.0625 0.4375 0  -0.0625 0.4375 0  -0.375 0 0  -0.5 -0.125 0  -0.4375 0.0625 0  -0.4375 -0.0625 0  -0.875 -0.375 0  -0.625 -0.25 0  -0.75 -0.375 0  -0.875 -0.5 0  0.0625 0.3125 0  -0.0625 0.3125 0  -0.875 -0.625 0  -0.3125 0.0625 0  -0.3125 -0.0625 0  -0.625 -0.375 0  -0.5 -0.375 0  -0.625 -0.5 0  0.015625 0.015625 0  0.015625 0 0  -0.015625 0.015625 0  0 0.015625 0  -0.015625 0 0  -0.015625 -0.015625 0  0 -0.015625 0  0.046875 0.015625 0  0.015625 0.046875 0  -0.015625 0.046875 0  0 0.046875 0  -0.046875 0.015625 0  -0.046875 0 0  -0.046875 -0.015625 0  -0.015625 -0.046875 0  0.03125 0.015625 0  0.015625 0.03125 0  -0.015625 0.03125 0  -0.03125 0.015625 0  -0.03125 -0.015625 0  -0.015625 -0.03125 0  0.625 0 0  0.6875 0.0625 0  0.625 0.5 0  0.6875 0.4375 0  -0.1875 0.4375 0  -0.4375 0.1875 0  0.5625 0.4375 0  0.375 0 0  0.4375 0.0625 0  0.5625 0.0625 0  0.5 0.0625 0  0.4375 0.1875 0  0.5625 0.1875 0  -0.1875 0.3125 0  -0.3125 0.1875 0  -0.1875 0.25 0  -0.25 0.1875 0  -0.1875 0.1875 0  -0.3125 0.3125 0  -0.25 0.3125 0  -0.3125 0.25 0  0.3125 0.3125 0  0.3125 0.25 0  0.3125 0.1875 0  0.1875 0.3125 0  0.25 0.1875 0  0.1875 0.25 0  0.1875 0.1875 0  0.3125 0.0625 0  0.25 0.0625 0  -1 -0.875 0  -0.875 -0.75 0  -0.4375 -0.3125 0  -0.75 -0.625 0  -0.875 -0.875 0  -0.8749999999999999 -1 0  0.0078125 0.0078125 0  0.0078125 0 0  -0.0078125 0.0078125 0  0 0.0078125 0  -0.0078125 0 0  -0.0078125 -0.0078125 0  0 -0.0078125 0  -0.75 -0.875 0  -0.625 -0.75 0  -0.6875 -0.6875 0  -0.25 -0.375 0  -0.3125 -0.1875 0  -0.25 -0.1875 0  -0.3125 -0.25 0  -0.1875 -0.1875 0  -0.3125 -0.3125 0  -0.1875 -0.25 0  -0.1875 -0.3125 0  -0.625 -0.875 0  -0.6249999999999999 -1 0  0 -0.375 0  -0.0625 -0.25 0  -0.0625 -0.3125 0  -0.4999999999999999 -0.875 0  -0.5625 -0.6875 0  -0.4375 -0.8125 0  -0.3125 -0.4375 0  -0.1875 -0.4375 0  -0.1875 -0.5 0  -0.1875 -0.5625 0  -0.4374999999999999 -0.9375 0  -0.0625 -0.4375 0  -0.0625 -0.5 0  -0.0625 -0.5625 0  0.375 0.1875 0  0.3125 0.125 0  0.4375 0.125 0  0.125 0.3125 0  -0.125 0.3125 0  -0.1875 0.375 0  -0.3125 0.125 0  -0.375 0.1875 0  -0.125 0.1875 0  -0.1875 0.125 0  0.1875 0.125 0  0.21875 0.09375 0  0.125 0.1875 0  0.15625 0.09375 0  -0.3125 -0.125 0  -0.1875 -0.125 0  -0.375 -0.3125 0  -0.125 -0.1875 0  -0.09375 -0.15625 0  -0.125 -0.3125 0  -0.09375 -0.21875 0  -0.125 -0.4375 0  0.5625 0.125 0  0.0234375 0.0078125 0  0.0078125 0.0234375 0  -0.0078125 0.0234375 0  0 0.0234375 0  -0.0234375 0.0078125 0  -0.0234375 0 0  -0.0234375 -0.0078125 0  -0.0078125 -0.0234375 0  0.015625 0.0078125 0  0.0078125 0.015625 0  -0.0078125 0.015625 0  -0.015625 0.0078125 0  -0.015625 -0.0078125 0  -0.0078125 -0.015625 0  -1 0.625 0  -0.9375 0.6875 0  -0.375 1 0  -0.5 0.875 0  -0.4375 0.9375 0  -0.5625 0.9375 0  -0.625 0.75 0  -0.75 0.625 0  -0.6875 0.6875 0  -0.6875 0.8125 0  -0.8125 0.6875 0  -0.875 0.5 0  -1 0.375 0  -0.9375 0.4375 0  -0.9375 0.5625 0  -0.125 1 0  -0.25 0.875 0  -0.3125 0.9375 0  -0.1875 0.9375 0  -0.4375 0.8125 0  -0.5625 0.6875 0  -0.5625 0.8125 0  -0.6875 0.5625 0  -0.8125 0.4375 0  -0.8125 0.5625 0  -0.875 0.25 0  -1 0.125 0  -0.9375 0.3125 0  -0.9375 0.1875 0  0.125 1 0  0 0.875 0  -0.0625 0.9375 0  0.0625 0.9375 0  -0.3125 0.8125 0  -0.1875 0.8125 0  -0.3125 0.6875 0  -0.1875 0.75 0  -0.1875 0.6875 0  -0.4375 0.5625 0  -0.5625 0.4375 0  -0.4375 0.5 0  -0.5 0.4375 0  -0.4375 0.4375 0  -0.8125 0.3125 0  -0.6875 0.3125 0  -0.8125 0.1875 0  -0.75 0.1875 0  -0.6875 0.1875 0  -0.875 0 0  -1 -0.125 0  -0.9375 0.0625 0  -0.9375 -0.06250000000000001 0  0.1875 0.8125 0  -0.0625 0.8125 0  0.0625 0.6875 0  -0.0625 0.6875 0  0.0625 0.8125 0  0.0625 0.75 0  -0.3125 0.5625 0  -0.25 0.5625 0  -0.3125 0.5 0  -0.1875 0.5625 0  -0.3125 0.4375 0  -0.25 0.4375 0  -0.5625 0.3125 0  -0.5 0.3125 0  -0.5625 0.25 0  -0.4375 0.3125 0  -0.5625 0.1875 0  -0.4375 0.25 0  -0.8125 0.0625 0  -0.6875 0.0625 0  -0.6875 -0.06250000000000001 0  -0.8125 -0.06250000000000001 0  -0.75 -0.06250000000000001 0  0.4375 0.3125 0  0.4375 0.25 0  0.25 0.4375 0  0.1875 0.4375 0  0.1875 0.5625 0  0.1875 0.5 0  0.0625 0.5625 0  -0.0625 0.5625 0  0 0.5625 0  -0.0625 0.5 0  0.0625 0.5 0  -0.5625 0.0625 0  -0.5 0.0625 0  -0.5625 0 0  -0.5625 -0.06250000000000001 0  -0.5 -0.0625 0  -0.8125 -0.1875000000000001 0  0.1875 0 0  0.21875 0.03125 0  -0.0625 0.25 0  0.0625 0.25 0  0 0.1875 0  0.03125 0.21875 0  -0.03125 0.21875 0  0 0.3125 0  0.03125 0.28125 0  -0.03125 0.28125 0  -0.25 0.0625 0  -0.25 -0.0625 0  -0.21875 0.03125 0  -0.21875 -0.03125 0  -0.3125 0 0  -0.28125 0.03125 0  -0.4375 -0.1875 0  -0.4375 -0.25 0  -0.5625 -0.1875 0  -0.5 -0.1875 0  0.00390625 0.00390625 0  0.00390625 0 0  -0.00390625 0.00390625 0  0 0.00390625 0  -0.00390625 0 0  -0.00390625 -0.00390625 0  0 -0.00390625 0  0 -0.1875 0  -0.03125 -0.21875 0  0.375 0.3125 0  0.1875 0.375 0  0.125 0.4375 0  -0.09375 0.21875 0  -0.21875 0.09375 0  0.09375 0.21875 0  0.09375 0.28125 0  0.09375 0.15625 0  0.15625 0.03125 0  0.03125 0.15625 0  -0.03125 0.15625 0  0.03125 0.125 0  -0.375 -0.1875 0  -0.4375 -0.125 0  -0.21875 -0.09375 0  -0.03125 -0.15625 0  0.0625 0.15625 0  -0.125 0.8125 0  -0.3125 0.625 0  -0.625 0.3125 0  -0.375 0.4375 0  -0.4375 0.375 0  -0.8125 0.125 0  0.125 0.5625 0  -0.0625 0.625 0  -0.125 0.5625 0  -0.3125 0.375 0  -0.375 0.3125 0  -0.5625 0.125 0  -0.625 0.0625 0  -0.5625 -0.125 0  0.125 0.8125 0  -0.8125 -0.125 0  -0.03125 0.34375 0  -0.0625 0.375 0  -0.34375 0.03125 0  -0.375 0.0625 0  0.01171875 0.00390625 0  0.00390625 0.01171875 0  -0.00390625 0.01171875 0  0 0.01171875 0  -0.01171875 0.00390625 0  -0.01171875 0 0  -0.01171875 -0.00390625 0  -0.00390625 -0.01171875 0  0.0078125 0.00390625 0  0.00390625 0.0078125 0  -0.00390625 0.0078125 0  -0.0078125 0.00390625 0  -0.0078125 -0.00390625 0  -0.00390625 -0.0078125 0  -0.875 1 0  -1 0.875 0  -0.9375 0.9375 0  -0.8125 0.9375 0  -0.9375 0.8125 0  1 0.875 0  0.875 1 0  0.9375 0.9375 0  0.9375 0.06250000000000008 0  0.9375 0.1875000000000001 0  0.9375 0.3125000000000001 0  0.9375 0.8125 0  0.9375 0.75 0  0.9375 0.6875 0  0.625 1 0  0.8125 0.9375 0  0.75 0.9375 0  0.6875 0.9375 0  0.375 1 0  0.5625 0.9375 0  0.5 0.9375 0  0.4375 0.9375 0  0.3125 0.9375 0  0.25 0.9375 0  0.1875 0.9375 0  0.8125 0.8125 0  0.6875 0.8125 0  0.8125 2.775557561562891e-17 0  0.8125 0.06250000000000003 0  0.75 0.0625 0  0.
[...]
<CellData  Scalars="w"> 
<DataArray  type="Float64"  Name="w"  format="ascii">2.5691856730586808e-08   2.6249287491108847e-08   3.2941328449462247e-08   2.8546696528008340e-08   2.5817183312475226e-08   2.6047804200217234e-08   2.5303741828475408e-08   2.8551391880273979e-08   5.2833144123098782e-08   2.8179551452914020e-08   3.6815500313279400e-08   4.0752325147267009e-08   3.8701470203570765e-08   4.7796617913351155e-08   1.5338916487300598e-08   5.2433829737132629e-09   2.7475020650654122e-08   5.6013748305359376e-09   4.8138017672226049e-09   5.6595392696520158e-09   5.9146339550691401e-09   6.3020325359367703e-09   5.1979200311893030e-09   5.8906589567112688e-09   6.4223006902905427e-09   4.7574878279896785e-09   4.8028912226685415e-09   5.0088917351428053e-09   6.1162445700339622e-09   2.2189333899214867e-08   1.6525435984242147e-08   1.4438219868180945e-08   5.8280176609052390e-09   5.0219205274669373e-09   5.8043080225721244e-09   6.2317812764545179e-09   9.6647427008855331e-09   9.4130707739322507e-09   2.6921466857758684e-08   5.7050410020131337e-09   5.0132723041923969e-09   5.7035552348654649e-09   6.2294701993222000e-09   5.1120834212745881e-09   9.4935353671450905e-09   5.2108449070755289e-09   8.6882451203127370e-09   7.0183177346308783e-09   3.0449138669085110e-09   1.2815701847819348e-09   7.9487615457977796e-10   2.8576922727785952e-10   7.9390454035857233e-10   1.3127922760547579e-09   1.7322819444596114e-09   9.4078669737580487e-10   8.3697766927701840e-10   1.5009065047148919e-09   1.3377493220241717e-09   1.5012434985742752e-09   1.8653391481865970e-09   1.3116579482932122e-09   1.9797229473015395e-09   1.8766198249416842e-09   1.1114617873590192e-09   1.7077723315408593e-09   1.7056335276891434e-09   1.4819118766676491e-09   1.5036358718799873e-09   1.3030034367233661e-09   2.3670509347450573e-09   1.2274885299062938e-09   1.8289440440144402e-09   2.0221425551502852e-09   1.6057607825705750e-09   1.5256454272077287e-09   1.8068336848704340e-09   1.6908083332744007e-09   9.8739318263731593e-09   1.0931850503565058e-08   1.2729677083153496e-08   1.5525452627960303e-08   2.9860565558383463e-09   2.6762428761140588e-09   1.4568840995966600e-09   2.1118963211204321e-09   1.3012968378925177e-08   2.7754805430108133e-09   4.0174666403140694e-09   1.3353922429562835e-08   8.6601386587589425e-09   1.3329873322978009e-08   1.6376356658787093e-08   3.0315460265193446e-09   3.8240439116469702e-09   3.8539345510732494e-09   2.4078547487591724e-09   2.2009468818354659e-09   2.2588982667999295e-09   5.3806774312409847e-09   2.3278936377708095e-09   7.1031812769750247e-10   6.9885144726154028e-10   1.4740613101956317e-09   1.1253491871171883e-09   6.0983433401429842e-10   4.5889560204747073e-10   6.8380459088533186e-10   8.6417753903931586e-10   1.4217340871007824e-09   1.0070718834561025e-09   7.5856406947863721e-10   1.0722038001668945e-09   1.0015511019065616e-09   1.0394083402525040e-09   1.1394620878834015e-09   1.0174663533615244e-09   1.6657752200150605e-09   1.3415987819677098e-09   8.9350631154755127e-10   1.2090374135513759e-09   1.1672521705856573e-09   2.3577796512645453e-09   8.7302323339438017e-10   9.0882404226474832e-10   1.1279181633996586e-09   2.0600971963248397e-09   1.0171335031805821e-09   1.3765690361613009e-09   1.0934221550207487e-09   1.0150613066117700e-09   1.4806231473894550e-09   1.1053304798768119e-09   6.9802288889275155e-09   2.4799036582591135e-09   1.2663835618657496e-09   8.1004835255962769e-10   6.9205798463057401e-10   1.3926739232267513e-09   1.3504966069091619e-09   2.2668094422551780e-09   2.4588822702622031e-09   1.7178476508563343e-09   1.8774866961055432e-09   1.5137546472104177e-09   1.3284657593850427e-09   1.6378828746687305e-09   1.3578864616309356e-09   2.8075758534873619e-09   1.6047651302760242e-09   7.0034235299104201e-09   9.5421314954196376e-10   1.2048795223549507e-09   2.0919237846509779e-09   1.7041762365579129e-09   1.6994469936601493e-09   1.6302373352097260e-09   1.2910480342744371e-09   1.7153278140403454e-09   1.4063193502931000e-09   3.4951860756445145e-09   9.1291101022783703e-10   1.4079035611844019e-09   1.9801553424546926e-09   1.8767195201359352e-09   1.1116517838480124e-09   1.7080943596041451e-09   1.7056111971350242e-09   1.4818408944132885e-09   1.5037956327030173e-09   1.3030596257162112e-09   2.3675542021906657e-09   1.2276302160000302e-09   1.8292001240544446e-09   2.0224823056130265e-09   1.6059633561164850e-09   1.5257912015214208e-09   1.8071987817226138e-09   1.6910638567321733e-09   7.0184844401023068e-09   3.0455418356358639e-09   1.2815031864639535e-09   7.9482876494945845e-10   2.8566931359580255e-10   7.9368610248723137e-10   1.3126385934948293e-09   1.7324077637909917e-09   9.3801226324629563e-10   8.3659707829334266e-10   1.4996843184670182e-09   1.3375065943692947e-09   1.5012885778993188e-09   1.8660073605851390e-09   1.3116369313091248e-09   1.6657430883528551e-09   1.3430526027309534e-09   8.9205275934968066e-10   1.2091388490793381e-09   1.1729850506108518e-09   2.4105598439626328e-09   8.6961707876450666e-10   9.1792847870176381e-10   1.1217945533214901e-09   2.0427034064218699e-09   1.0161388378106797e-09   1.3790254952710516e-09   1.0903617604969357e-09   1.0171910248287746e-09   1.4766779536927908e-09   1.1031003953821664e-09   7.1029420938331904e-10   6.9925279141224263e-10   1.4746403162316505e-09   1.1259540194512723e-09   6.1103288296291517e-10   4.6350329967626117e-10   6.8484872151868960e-10   8.6624696111550670e-10   1.4220964776885407e-09   1.0071222215073140e-09   7.5904777894690014e-10   1.0723933156037639e-09   1.0023969784157431e-09   1.0411421971813054e-09   1.1399672994163882e-09   1.0186316344665797e-09   1.3364958692673723e-08   8.6689094646610367e-09   1.3341188496249087e-08   1.6383176762420502e-08   3.0323763308025685e-09   3.8240944570692720e-09   3.8562928487263782e-09   2.4086079124208694e-09   2.2017563038809769e-09   2.2602155546264039e-09   5.3821832307016533e-09   2.3288066133780951e-09   9.8754657375724347e-09   1.0935575851625192e-08   1.2731556839443608e-08   1.5530805422878766e-08   2.9863498728342262e-09   2.6765145520828157e-09   1.4569775041447093e-09   2.1120340359930370e-09   1.3016782751244216e-08   2.7758429730820998e-09   4.0171848418201357e-09   2.8070484590900851e-09   1.6041944276926464e-09   7.0011122620839237e-09   9.5408159172155820e-10   1.2049127671120615e-09   2.0915233290586076e-09   1.7040409452735005e-09   1.6976799468506056e-09   1.6294255828965325e-09   1.2894132494349457e-09   1.7144551165027785e-09   1.4048419986547964e-09   3.4917603395489134e-09   9.1309242799705552e-10   1.4066990836780980e-09   6.9788442189024608e-09   2.4801223671652350e-09   1.2664531297101236e-09   8.1015344165938155e-10   6.9207953277022935e-10   1.3928293857983198e-09   1.3506540215783791e-09   2.2668023918919496e-09   2.4591188876913624e-09   1.7180306805110146e-09   1.8776293330485146e-09   1.5139239944937832e-09   1.3287390946057685e-09   1.6379416500093099e-09   1.3580339961210363e-09   3.6107843784096918e-08   1.1662426562982012e-08   1.0078291524333241e-08   2.0934477155243931e-08   6.5424277289192506e-09   3.3179680365302236e-08   1.2037603926834490e-08   1.1538950429854582e-08   1.4561483344030348e-09   1.1413597716467242e-09   5.7875890948855737e-09   1.3025062399838676e-09   1.0163660117517738e-09   7.0706940809401417e-09   1.0528111287690062e-09   1.0107035887571457e-09   2.4156674097257334e-09   1.0417306532347889e-09   1.3682931927897750e-08   1.0631526267312041e-08   1.4883640329442927e-08   1.5431556050554615e-08   1.0781170791888031e-08   2.0821987719263637e-09   2.3452487802653177e-09   1.2272743230342549e-08   2.7941869758480191e-09   1.9161426830804726e-09   1.3689615874977944e-08   1.0635093997006391e-08   1.4890758435114862e-08   1.5431404388261385e-08   1.0793522478624514e-08   2.0832961771504715e-09   2.3475835786238722e-09   1.2288416273266372e-08   2.8000459975125575e-09   1.9221799500181046e-09   1.2660826030333875e-08   6.0729632061063158e-09   1.4617165930484833e-09   1.1567791437537294e-09   5.7456974008023761e-09   1.3115704525616576e-09   1.0260107077489431e-09   7.0961869466371555e-09   1.0767774092044701e-09   1.0970948418405216e-09   2.4173004854642865e-09   1.0681790848248531e-09   3.0006644468567116e-08   1.1490124626459536e-08   1.0182699714056308e-08   2.0737039537020740e-08   6.5607898266357120e-09   3.2253598798173013e-08   1.3745434923616068e-09   1.1139088997738424e-09   1.6030190137527171e-09   1.2358841917658721e-09   1.0008940763398586e-09   1.4042393916063861e-09   8.8708179849094427e-10   1.0111353702707893e-09   1.4126581526202561e-09   2.8600907204270635e-09   9.8131672209745742e-10   1.3720132105521258e-09   1.0390751591438818e-09   1.0512679977668316e-09   1.1740297996388880e-09   1.0481479478060959e-09   1.3736078398195510e-09   1.1127122042474569e-09   1.6070449802989167e-09   1.2370291368421008e-09   9.9909539744440066e-10   1.4046420986560954e-09   8.8865978206270562e-10   1.0079396167629708e-09   1.4177287069310097e-09   2.8660406716959197e-09   9.8918942386611095e-10   1.3774534949754950e-09   1.0430530396629726e-09   1.0527430016214665e-09   1.1772996991395679e-09   1.0514545479891731e-09   1.8969885411385279e-09   8.8894389329526122e-10   7.2947294279723365e-09   9.3130980834674187e-10   1.1101969830925743e-09   7.6938711934495873e-10   1.2452010718392520e-09   3.8161343825647879e-09   4.0742947359620471e-09   4.5709669054913322e-09   9.6016070570626569e-09   2.1948096609743629e-08   5.3689836967629376e-09   1.7532244583456161e-09   1.0061685831513504e-09   1.8959640526038655e-08   1.7047057362807312e-08   1.7493503508840775e-09   1.0911338706708894e-09   2.5234337694593972e-09   2.1160225769747927e-09   1.7998483967791761e-09   1.2323537651179825e-09   1.5386001657377629e-09   1.2848942291607323e-09   1.0319202734745522e-09   1.2732758732417096e-09   1.6643579003570012e-09   2.1287435571740073e-09   8.1449596265612578e-10   2.3557827998140192e-09   8.1669895284963303e-10   6.3691031213295641e-10   3.2373647873801959e-09   7.5193906663923580e-09   4.1167711870258868e-09   3.1800591210199572e-09   2.8291915936248002e-09   4.8523970619319681e-09   2.6494262886281729e-09   1.9138050723072944e-09   9.6286992132031358e-09   9.3781807644946596e-09   9.2285747051672959e-09   6.2872598376698915e-09   3.8518841697519198e-09   5.0618327152758692e-09   1.3170989929660330e-08   9.5737102952665480e-10   2.4609560573352364e-09   9.4014105737256872e-10   7.0423299986215312e-10   3.7369736658895575e-10   5.0853843807405570e-10   1.2500014369062618e-09   9.4730674636103216e-11   2.4177928158691738e-10   9.3837649893341894e-11   6.9633478889197782e-11   3.7036399913454211e-11   5.0537622265592778e-11   1.2339058115418633e-10   9.4269041992438727e-12   2.4024987116503431e-11   9.3441159905528959e-12   6.9196282874582188e-12   3.6901446881505167e-12   5.0399926496655922e-12   1.2279440342659549e-11   9.4088409719945672e-13   2.3922360382919096e-12   9.3985685984462563e-13   6.9310505615709640e-13   3.5952423951307316e-13   5.0292058424638904e-13   1.2175132340761383e-12   8.3648808744170208e-14   2.3081053253386732e-13   1.1087198876632491e-13   7.4906743299782157e-14   3.0775612869571027e-13   1.9046739308866065e-13   1.4945462468066225e-08   2.9318679926100386e-07   1.6340801413047828e-08   1.1326862608198935e-08   1.7769297777693391e-08   2.2408765837992783e-08   1.8721449930534183e-08   1.2277589961413627e-08   1.5852510692578864e-08   1.3775294078418357e-08   9.7764562227027503e-09   1.2570039792199464e-08   1.5667728594814869e-08   2.1408746025963454e-08   7.7609210597364796e-09   9.3988564351825367e-09   5.8154267692423178e-09   2.1854180280403775e-09   1.2659538096161861e-09   1.9799273967070174e-09   2.0449606378991241e-09   7.7510479071758396e-09   9.1968925469618891e-10   1.0698002667541722e-09   7.7059431212206620e-10   1.2444841088653184e-09   3.6226610195379137e-09   6.5268449526154646e-09   3.4012112953061798e-09   4.9632527760629373e-09   2.2949056935414510e-08   5.3557486754332729e-09   1.7604072189126998e-09   1.0063525950794257e-09   1.9842139391159495e-08   1.8303044721951059e-08   1.7532788697609180e-09   1.0565509732613531e-09   2.5296969867503172e-09   2.1286442082117465e-09   1.8087618963031887e-09   1.2232366327820792e-09   1.5431201902729979e-09   1.2846909961809939e-09   1.1996204786894822e-09   1.3387331160232862e-09   1.6779466125320019e-09   2.1075245376860277e-09   7.9592700255482760e-10   1.1295732260802427e-09   4.3840186136734890e-09   3.2413068150869717e-09   7.5215912145972247e-09   4.1207290735030912e-09   3.1834772547132704e-09   2.8313882521860125e-09   4.8531260289593014e-09   2.6516433743361400e-09   1.9144764202141132e-09   9.6301140130727351e-09   9.3803188894086680e-09   9.2265788616606454e-09   6.2872665892946096e-09   3.8517937644434627e-09   5.0621606233804743e-09   1.3171128906445228e-08   9.5739921397542922e-10   2.4610450466590473e-09   9.4015334229208594e-10   7.0423112344584747e-10   3.7368961211457319e-10   5.0855764830931730e-10   1.2500115470738554e-09   9.4732860902218717e-11   2.4178472384758006e-10   9.3839729379222349e-11   6.9633813468397982e-11   3.7035942135121412e-11   5.0539054020540598e-11   1.2339128331779966e-10   9.4270579990906471e-12   2.4025368657250998e-11   9.3442682428736035e-12   6.9196654216068263e-12   3.6901167046318998e-12   5.0400887082435865e-12   1.2279486435961218e-11   9.4089406081474064e-13   2.3922609167890343e-12   9.3986687985924537e-13   6.9310779805253462e-13   3.5952256495339981e-13   5.0292671844097138e-13   1.2175161372461858e-12   8.3649320466619466e-14   2.3081224340981237e-13   1.1087259489711331e-13   7.4906911737335402e-14   3.0775597132286769e-13   1.9046829538032055e-13   1.4945658204454064e-08   2.9318754925262307e-07   1.4884341778865047e-08   7.0437177379935887e-09   1.6890746859229792e-08   6.1964367206653721e-09   3.7794975929424736e-09   1.7183553651810220e-08   3.7536111627091613e-09   1.4999721736814230e-09   1.2058348851966818e-08   2.3735574797480319e-09   3.2640426806419246e-09   9.0394960667911568e-09   1.6266746735100016e-09   3.1260225483881372e-09   4.9227045489849515e-09   2.3263789848554373e-09   8.8003943028637534e-10   3.0737369110767603e-09   9.2354667706826110e-09   1.5315682572166260e-09   3.4255869089216299e-09   3.3264971760346056e-09   3.0001728990394846e-09   5.2599417999026674e-09   1.4384533797121474e-08   7.0972977414587452e-09   3.5860839497871827e-09   1.5163933195153967e-08   8.8108062539838926e-09   3.7012146118706308e-09   3.6319399339511284e-09   3.5006074357816144e-09   3.9635768962381074e-09   3.9755796678889284e-09   3.0471408824219233e-09   3.5328895786284659e-09   3.9110190064815438e-09   2.3716045518848470e-09   2.3092440188207373e-09   2.6363744943224397e-09   3.3738745296838873e-09   2.2576126945964348e-09   1.8522220812539359e-09   1.0804795247493983e-08   2.7220113063235950e-09   2.1265992348099504e-09   2.8324327582687037e-09   3.0248013259010331e-09   2.4485533004031484e-09   1.9746353467787923e-09   2.3360004363811412e-09   2.0400244713511119e-09   1.7046160602324878e-08   4.9771060573873850e-09   2.0074651557027713e-09   1.6872559920592092e-09   3.1427641317388135e-09   1.5459527143725362e-09   4.3164310829362637e-09   1.1743732472427011e-08   1.2451273463220368e-08   3.6295689399371740e-08   2.4188148344112871e-08   8.5708939318084549e-09   2.9483066966463537e-09   1.7266075629433453e-08   1.5908689367944810e-08   1.4732492722871503e-08   2.3827168896369112e-08   1.2973620733716846e-09   3.7921747923214392e-09   1.0563357535674409e-08   1.7454346974045891e-08   5.0372585611068969e-09   2.0319158309574471e-09   1.6815000677080239e-09   3.1353406139979944e-09   1.5488288418201751e-09   4.3255443631557738e-09   1.1686720400784037e-08   1.2363193367148120e-08   3.6169982990892096e-08   2.6834334991910989e-08   3.5457125106802386e-08   1.6742856049167553e-08   2.9938180853425364e-08   1.4361659118481186e-08   2.4598310788737611e-08   1.2917153405628547e-09   3.7770774438860702e-09   1.0479808220767150e-08   1.4507615275641362e-08   7.1363825018450616e-09   3.6055617650542089e-09   1.5253912796228183e-08   8.8612792948959122e-09   3.5983956227440710e-09   3.6546815704300299e-09   3.4883107168799415e-09   4.0180407999367924e-09   3.6267699230351944e-09   3.1056095158454241e-09   3.6733330523768046e-09   3.8645181189613078e-09   2.3624198907546885e-09   2.2895666643025464e-09   2.6029227084966081e-09   3.2852024234855726e-09   2.2613103577896537e-09   1.8434963244158905e-09   1.0801460568203879e-08   2.6790911193145668e-09   2.1119902759857341e-09   2.7877665301513259e-09   2.9635071779371423e-09   2.4296280679535919e-09   1.9644144681188247e-09   2.3186832818719629e-09   2.0355763013961144e-09   3.5471273157989920e-09   3.8634986461442925e-09   3.3419966480426082e-09   4.3444151823782272e-09   2.8886426839492477e-09   2.4494558142471986e-09   2.9048617053537834e-09   3.5907886318580214e-09   5.1665876361443907e-09   4.3793832983177004e-09   5.6349031895983281e-09   4.1630147775385387e-09   7.0539494672656701e-09   5.6282564014264960e-09   7.1159078984756445e-09   8.8663986443642881e-09   7.9508165246509159e-09   5.9308371083221976e-09   1.1697522145251244e-09   2.7162295169534741e-09   8.9506072742185727e-10   1.0153293755284111e-09   5.6177432309581529e-10   1.1504457014833906e-09   3.7268714475756507e-09   9.1316599825023489e-10   9.4583136445578320e-10   2.5319863762402723e-09   9.2126356194708227e-10   9.6675550274303511e-09   1.0017867146116429e-08   8.6745027111488861e-09   1.3302094867244170e-08   6.9012275934230363e-09   6.2956749792914858e-09   6.3443540493344711e-09   3.9833112494027805e-09   3.6179289579978297e-09   4.1638977950228681e-09   3.4073096637494402e-09   4.3274895282711434e-09   2.9058549799938207e-09   2.4480088005015834e-09   2.9178802000574162e-09   3.5854980426496436e-09   4.7437265917514888e-09   4.3687016840296059e-09   4.7931913217122148e-09   4.5702713933908519e-09   6.6844884115914001e-09   5.6242564267899823e-09   7.5336326204641673e-09   9.1580460356239374e-09   1.1536908642509290e-09   1.5856144877235289e-09   8.8746711508863634e-10   1.1327126003619880e-09   1.0215981394040009e-09   2.1943779420846907e-09   8.0999309256525864e-10   9.0018015429603741e-10   5.3118203635333644e-10   1.1630066506016594e-09   3.2137669067267957e-09   8.9135036945710381e-10   1.0815976779590800e-09   1.1065660050497488e-09   9.0026562734154016e-10   1.0191620979073917e-09   1.8319085478612735e-09   8.2985045141154062e-10   1.2333041798049033e-09   1.9016829211960479e-09   1.9490911056014006e-09   2.1198324037291172e-09   1.3223337685262846e-09   8.8789124329307288e-10   1.1519697591936603e-09   1.1312885428279868e-09   8.8891515735012599e-10   1.3589702633768046e-09   7.5126067350286302e-10   4.2510666393564843e-09   1.2629861192231732e-08   8.0438832603796418e-09   1.1522284603760861e-08   4.9264283342749746e-09   2.3488053443566749e-09   1.3005059148458247e-08   4.5158734212548764e-09   2.5314754003653556e-09   9.6292547093516969e-09   2.8250469175601168e-09   1.8480971989317715e-09   8.4113254163715847e-09   1.0463559947839593e-08   6.1158052725571325e-09   3.0048808000614334e-09   1.1059178250016603e-09   2.6261457747155106e-09   6.2332044435529685e-09   1.3982484803669148e-09   2.7029915736229656e-09   3.8347194298388796e-09   2.7456332668891698e-09   9.3783859315894108e-09   2.9118517469923998e-08   1.8320027732368006e-08   3.0215927517922528e-08   2.8283553221184953e-08   2.2637877910055555e-08   5.0145219743611485e-09   3.0477771021759725e-09   1.9311754370655654e-08   4.1092038239894730e-09   4.9659368585478977e-09   1.7965746016988399e-08   2.1892036855036975e-08   2.4750330087301991e-08   2.3688224341876949e-08   5.0827736973721123e-09   2.3725984547338308e-09   1.8943706580272781e-08   1.5997746162657544e-09   1.5018819686643625e-09   3.9005113539620068e-09   2.5846059351650805e-09