<?xml version="1.0"?>
<VTKFile type="UnstructuredGrid"  version="0.1"  >
<UnstructuredGrid>
<Piece  NumberOfPoints="178" NumberOfCells="312">
<Points>
<DataArray  type="Float64"  NumberOfComponents="3"  format="ascii">-1 1 0  -0.75 1 0  -1 0.75 0  -0.5 1 0  -0.75 0.75 0  -1 0.5 0  -0.25 1 0  -0.5 0.75 0  -0.75 0.5 0  -1 0.25 0  1 1 0  1 1.110223024625157e-16 0  1 0.2500000000000001 0  1 0.5 0  1 0.75 0  0.75 1 0  0.5 1 0  0.25 1 0  0 1 0  -0.25 0.75 0  -0.5 0.5 0  -0.75 0.25 0  -1 0 0  0.75 0.75 0  0.75 0 0  0.75 0.25 0  0.75 0.5 0  0.5 0.75 0  0.25 0.75 0  0 0.75 0  -0.25 0.5 0  -0.5 0.25 0  -0.75 0 0  -1 -0.2500000000000001 0  0.5 0.5 0  0.5 0 0  0.5 0.25 0  0.25 0.5 0  0 0.5 0  -0.25 0.25 0  -0.5 0 0  -0.75 -0.2500000000000001 0  -1 -0.5 0  0.25 0.25 0  0.25 0 0  0 0.25 0  -1 -0.75 0  -0.25 0 0  -0.5 -0.25 0  -0.75 -0.5 0  -0.9999999999999999 -1 0  0 0 0  -0.75 -0.75 0  -0.25 -0.25 0  -0.5 -0.5 0  -0.7499999999999999 -1 0  0 -0.25 0  -0.5 -0.75 0  -0.25 -0.5 0  -0.4999999999999999 -0.9999999999999999 0  0 -0.5 0  -0.25 -0.75 0  -0.2499999999999999 -0.9999999999999999 0  0 -0.75 0  0 -0.9999999999999999 0  0.375 0.375 0  0.375 0.25 0  0.375 0.125 0  0.25 0.375 0  0.125 0.375 0  -0.125 0.375 0  -0.375 0.125 0  -0.125 0.25 0  -0.25 0.125 0  0.25 0.125 0  0.125 0.25 0  0.125 0.125 0  0.125 0 0  -0.125 0.125 0  0 0.125 0  -0.375 -0.125 0  -0.125 0 0  -0.25 -0.125 0  -0.375 -0.25 0  -0.125 -0.125 0  0 -0.125 0  -0.375 -0.375 0  -0.125 -0.25 0  -0.125 -0.375 0  0.1875 0.0625 0  0.0625 0.1875 0  -0.0625 0.1875 0  -0.1875 0.0625 0  -0.1875 0 0  -0.1875 -0.0625 0  0.0625 0.0625 0  0.0625 0 0  -0.0625 0.0625 0  0 0.0625 0  -0.0625 0 0  -0.0625 -0.0625 0  0 -0.0625 0  -0.625 -0.625 0  -0.5 -0.625 0  -0.375 -0.5 0  -0.0625 -0.1875 0  -0.375 -0.625 0  -0.375 -0.75 0  -0.125 -0.5 0  -0.25 -0.625 0  -0.3749999999999999 -0.875 0  -0.3749999999999999 -0.9999999999999999 0  -0.125 -0.625 0  0 -0.625 0  -0.2499999999999999 -0.875 0  -0.125 -0.75 0  -0.1249999999999999 -0.875 0  -0.1249999999999999 -0.9999999999999999 0  0 -0.875 0  0.125 0.0625 0  0.0625 0.125 0  -0.0625 0.125 0  -0.125 0.0625 0  -0.125 -0.0625 0  -0.0625 -0.125 0  -0.375 0.875 0  -0.625 0.625 0  -0.375 0.75 0  -0.5 0.625 0  -0.875 0.375 0  -0.625 0.5 0  -0.75 0.375 0  -0.125 0.875 0  -0.375 0.625 0  -0.125 0.75 0  -0.25 0.625 0  -0.625 0.375 0  -0.375 0.5 0  -0.5 0.375 0  -0.875 0.125 0  -0.625 0.25 0  -0.75 0.125 0  0.625 0.125 0  0.625 0.25 0  0.625 0.375 0  0.125 0.625 0  -0.125 0.625 0  0 0.625 0  -0.375 0.375 0  -0.125 0.5 0  -0.25 0.375 0  -0.625 0.125 0  -0.375 0.25 0  -0.5 0.125 0  -0.625 0 0  0.5 0.125 0  -0.625 -0.125 0  0.03125 0.03125 0  0.03125 0 0  -0.03125 0.03125 0  0 0.03125 0  -0.03125 0 0  -0.03125 -0.03125 0  0 -0.03125 0  0.09375 0.03125 0  0.03125 0.09375 0  -0.03125 0.09375 0  0 0.09375 0  -0.09375 0.03125 0  -0.09375 0 0  -0.09375 -0.03125 0  -0.03125 -0.09375 0  0.0625 0.03125 0  0.03125 0.0625 0  -0.03125 0.0625 0  -0.0625 0.03125 0  -0.0625 -0.03125 0  -0.03125 -0.0625 0  </DataArray>
</Points>
<Cells>
<DataArray  type="UInt32"  Name="connectivity"  format="ascii">0 1 2  2 4 5  1 3 4  1 2 4  9 22 139  9 21 139  8 131 136  21 131 136  8 130 136  20 130 136  5 9 129  5 8 129  9 21 129  21 129 131  8 129 131  6 19 132  6 18 132  3 7 125  3 6 125  7 128 133  20 128 133  7 127 133  19 127 133  19 125 127  7 125 127  6 19 125  4 5 8  20 126 130  8 126 130  20 126 128  7 126 128  3 4 7  4 8 126  4 7 126  97 122 168  81 122 168  78 97 122  99 168 175  97 168 175  99 168 169  81 168 169  99 159 175  97 159 175  99 159 161  51 159 161  81 92 122  78 92 122  81 92 93  47 92 93  97 121 166  79 121 166  78 97 121  98 166 174  97 166 174  98 166 167  79 166 167  98 159 174  97 159 174  98 159 160  51 159 160  79 91 121  78 91 121  45 79 91  45 70 72  39 70 72  38 45 70  40 47 71  47 71 73  39 71 73  39 73 78  47 73 92  73 78 92  39 72 78  45 72 91  72 78 91  29 132 134  19 132 134  18 29 132  30 133 137  20 133 137  30 133 135  19 133 135  38 146 149  30 146 149  38 146 147  29 146 147  19 135 146  30 135 146  19 134 146  29 134 146  22 32 139  32 139 141  21 139 141  40 151 154  32 151 154  40 151 153  31 151 153  31 136 140  21 136 140  31 136 138  20 136 138  21 141 151  32 141 151  21 140 151  31 140 151  39 70 150  30 70 150  38 70 149  30 70 149  20 138 148  31 138 148  20 137 148  30 137 148  40 71 153  31 71 153  39 71 152  31 71 152  39 148 152  31 148 152  39 148 150  30 148 150  22 32 33  33 41 42  32 41 156  32 154 156  40 154 156  32 33 41  46 50 52  49 54 102  49 52 102  42 46 49  46 49 52  47 82 94  82 84 94  53 82 84  81 93 94  47 93 94  81 94 123  84 94 123  99 169 170  81 169 170  99 170 176  100 170 176  99 161 162  51 161 162  99 162 176  100 162 176  100 123 170  81 123 170  84 100 123  40 48 80  40 47 80  48 54 86  48 83 86  53 83 86  53 80 83  48 80 83  53 80 82  47 80 82  41 42 49  48 49 54  41 48 156  40 48 156  41 48 49  64 116 118  63 116 118  64 116 117  62 116 117  63 112 115  61 112 115  63 112 113  60 112 113  62 110 114  61 110 114  62 110 111  59 110 111  61 115 116  63 115 116  61 114 116  62 114 116  84 87 105  56 87 105  53 84 87  85 105 124  84 105 124  56 85 105  100 124 171  85 124 171  84 100 124  101 171 177  100 171 177  85 101 171  101 162 177  100 162 177  101 162 163  51 162 163  58 86 104  54 86 104  53 58 86  60 88 108  58 88 108  56 60 88  53 58 88  53 87 88  56 87 88  50 52 55  55 57 59  57 102 103  54 102 103  52 57 102  52 55 57  58 109 112  61 109 112  58 108 112  60 108 112  54 104 106  58 104 106  54 103 106  57 103 106  57 107 110  61 107 110  57 59 110  61 106 109  58 106 109  61 106 107  57 106 107  17 18 29  28 29 145  29 145 147  38 145 147  16 17 28  17 28 29  45 75 90  75 76 90  43 75 76  79 90 120  76 90 120  45 79 90  95 120 165  79 120 165  76 95 120  98 165 173  95 165 173  98 165 167  79 165 167  98 157 173  95 157 173  98 157 160  51 157 160  34 37 65  37 65 68  43 65 68  37 38 69  38 45 69  43 68 69  37 68 69  43 69 75  45 69 75  10 15 23  15 16 27  23 27 34  15 23 27  28 37 145  37 38 145  27 34 37  16 27 28  27 28 37  11 12 24  12 13 25  24 35 142  24 25 142  12 24 25  10 14 23  23 26 34  13 14 26  14 23 26  44 74 89  74 76 89  43 74 76  77 89 119  76 89 119  44 77 89  95 119 164  77 119 164  76 95 119  96 164 172  95 164 172  77 96 164  96 157 172  95 157 172  96 157 158  51 157 158  35 44 67  36 67 155  35 67 155  34 36 65  36 65 66  43 65 66  43 66 67  36 66 67  43 67 74  44 67 74  13 25 26  26 34 144  34 36 144  36 142 155  35 142 155  36 142 143  25 142 143  25 143 144  36 143 144  25 26 144  </DataArray>
<DataArray  type="UInt32"  Name="offsets"  format="ascii">3 6 9 12 15 18 21 24 27 30 33 36 39 42 45 48 51 54 57 60 63 66 69 72 75 78 81 84 87 90 93 96 99 102 105 108 111 114 117 120 123 126 129 132 135 138 141 144 147 150 153 156 159 162 165 168 171 174 177 180 183 186 189 192 195 198 201 204 207 210 213 216 219 222 225 228 231 234 237 240 243 246 249 252 255 258 261 264 267 270 273 276 279 282 285 288 291 294 297 300 303 306 309 312 315 318 321 324 327 330 333 336 339 342 345 348 351 354 357 360 363 366 369 372 375 378 381 384 387 390 393 396 399 402 405 408 411 414 417 420 423 426 429 432 435 438 441 444 447 450 453 456 459 462 465 468 471 474 477 480 483 486 489 492 495 498 501 504 507 510 513 516 519 522 525 528 531 534 537 540 543 546 549 552 555 558 561 564 567 570 573 576 579 582 585 588 591 594 597 600 603 606 609 612 615 618 621 624 627 630 633 636 639 642 645 648 651 654 657 660 663 666 669 672 675 678 681 684 687 690 693 696 699 702 705 708 711 714 717 720 723 726 729 732 735 738 741 744 747 750 753 756 759 762 765 768 771 774 777 780 783 786 789 792 795 798 801 804 807 810 813 816 819 822 825 828 831 834 837 840 843 846 849 852 855 858 861 864 867 870 873 876 879 882 885 888 891 894 897 900 903 906 909 912 915 918 921 924 927 930 933 936 </DataArray>
<DataArray  type="UInt8"  Name="types"  format="ascii">5 5 5 5 5 5 5 5 5 5 5 5 5 5 5 5 5 5 5 5 5 5 5 5 5 5 5 5 5 5 5 5 5 5 5 5 5 5 5 5 5 5 5 5 5 5 5 5 5 5 5 5 5 5 5 5 5 5 5 5 5 5 5 5 5 5 5 5 5 5 5 5 5 5 5 5 5 5 5 5 5 5 5 5 5 5 5 5 5 5 5 5 5 5 5 5 5 5 5 5 5 5 5 5 5 5 5 5 5 5 5 5 5 5 5 5 5 5 5 5 5 5 5 5 5 5 5 5 5 5 5 5 5 5 5 5 5 5 5 5 5 5 5 5 5 5 5 5 5 5 5 5 5 5 5 5 5 5 5 5 5 5 5 5 5 5 5 5 5 5 5 5 5 5 5 5 5 5 5 5 5 5 5 5 5 5 5 5 5 5 5 5 5 5 5 5 5 5 5 5 5 5 5 5 5 5 5 5 5 5 5 5 5 5 5 5 5 5 5 5 5 5 5 5 5 5 5 5 5 5 5 5 5 5 5 5 5 5 5 5 5 5 5 5 5 5 5 5 5 5 5 5 5 5 5 5 5 5 5 5 5 5 5 5 5 5 5 5 5 5 5 5 5 5 5 5 5 5 5 5 5 5 5 5 5 5 5 5 5 5 5 5 5 5 5 5 5 5 5 5 5 5 5 5 5 5 5 5 5 5 5 5 </DataArray>
</Cells>
<CellData  Scalars="w"> 
<DataArray  type="Float64"  Name="w"  format="ascii">1.7801521076002680e-05   2.9392858986316649e-05   2.9403240407796368e-05   3.6498630914924053e-05   2.4083424602604302e-06   4.6902300172426482e-06   9.4400275597434689e-07   1.1057400607256028e-06   7.8635904444733354e-07   1.2805488023655022e-06   3.5721808145120229e-06   7.1189322498894745e-06   3.4592115982893949e-06   9.1084952503689274e-07   1.8733679072939290e-06   4.7002074215678069e-06   2.4277864907458906e-06   7.1212715460579436e-06   3.5791066094754365e-06   7.8624958377188277e-07   1.2798607826431685e-06   9.4335283235908717e-07   1.1047812570046884e-06   9.1256189125676808e-07   1.8740774988456403e-06   3.4609183017470597e-06   2.3676816912198248e-05   1.0385944215802933e-06   1.8283716055999627e-06   1.0385240751783871e-06   1.8290417570133617e-06   2.3687487198049643e-05   5.6283037747395787e-06   5.6307377971141461e-06   3.8519527383461808e-07   5.2884235199337093e-07   1.3055570496980735e-06   8.8520355160012840e-08   2.4509790128989560e-07   1.1669774974742851e-07   7.9263885466052702e-08   3.2490361474838700e-07   2.0221598503678642e-07   2.1075048648696763e-05   3.9793708580012423e-04   9.9852486938032854e-07   2.6020817412287198e-06   9.6234978860538023e-07   7.4401936395258377e-07   3.9748746691960844e-07   6.1815924420180140e-07   1.3166309574817747e-06   8.9015225639251268e-08   2.5063209933989670e-07   1.1462433140389827e-07   8.0216547107697891e-08   3.2477377703450723e-07   2.0189872545360450e-07   2.0982328123361655e-05   3.9759872762340558e-04   1.0062730747493272e-06   2.4579942363807496e-06   4.7035999609509377e-06   1.0389741852440945e-05   9.4973894362941298e-06   4.4499520930341827e-05   4.5798823639674947e-05   9.9395338257084343e-06   9.3013722521792391e-06   1.3513849990465705e-05   6.1501971822626159e-06   4.1261207394955966e-06   1.3545769503567011e-05   8.0652796532826323e-06   4.3035501773475899e-06   8.3412857642016676e-07   2.1552870525987540e-06   1.3069437374227815e-05   1.5811468811817799e-06   1.3226025425399443e-06   1.8653216428774441e-06   1.2548112595924111e-06   2.3350581788726379e-06   2.7393457214712933e-06   2.3406109031319291e-06   1.8357996590326859e-06   1.0994479104247921e-06   1.7837922457419529e-06   1.2977368423449776e-06   1.0679691143462272e-06   1.3037273896460619e-05   8.3356937903998752e-07   2.1554618121342148e-06   2.3606431846417713e-06   1.8493336342858457e-06   2.3494312655290654e-06   2.7513622719372395e-06   1.8694987675751639e-06   1.2567333677238176e-06   1.5836457459881480e-06   1.3231915339323946e-06   1.3022826070305727e-06   1.0721712482674434e-06   1.1014437016077290e-06   1.7906641923077846e-06   6.7720651759215993e-06   3.5826869822784430e-06   1.1694884761402065e-05   4.7994969663144345e-06   1.9795286637684678e-06   2.7704685863129577e-06   1.9795866540593064e-06   2.7663234551317485e-06   1.1926690499157220e-05   4.8251985042892402e-06   6.7189695670400458e-06   3.5980218581497601e-06   4.6961269318706738e-06   2.9050240051380468e-06   4.6982592221297604e-06   2.9031207439561178e-06   1.5143525803403063e-05   2.2897818932748249e-05   1.3715479940688469e-05   3.1944659528144703e-06   1.6530748598350350e-06   3.7137722922751799e-05   9.2290719919547027e-06   1.0950856306207474e-05   1.2498774281842797e-05   1.3177042543147347e-05   1.7076833382760395e-05   4.6943265331167378e-06   4.4562489909864324e-06   1.3962590595139011e-05   5.9706655420861318e-07   9.7432674412709810e-07   1.1103687015646401e-06   1.8644903472212701e-06   6.6930585730110884e-08   1.1077024335039994e-07   1.4908882371106527e-07   1.9462366333641314e-07   3.6829863494583429e-05   1.7437038300594911e-04   1.5492240972388991e-07   1.9073443384617639e-07   4.5192784665921924e-07   4.5923206840016923e-07   1.3800204638027798e-06   2.3856657932835966e-05   4.1036053131936315e-05   2.6785750857610221e-05   4.3493308194744588e-06   9.3469249276366576e-06   4.6558164552027276e-06   6.3115422090529715e-06   1.2965723917606018e-05   1.8537165120154351e-05   4.0837939738807091e-05   3.7413815638457147e-05   2.6060807022922154e-05   2.1171425229163843e-05   5.8066301978401428e-05   5.6210892285522783e-07   8.4328670858511469e-07   5.7074131576090605e-07   5.6338323562634692e-07   1.3205547521445482e-06   1.1525633972099236e-06   1.2760708113139024e-06   2.2527043384875478e-06   5.4627447762011972e-07   5.9996996977878114e-07   5.3310302584051830e-07   1.1871288003212407e-06   8.1758288856313100e-07   8.7992613197276457e-07   8.3468906876504765e-07   6.1437451946868683e-07   7.5841064818767545e-06   3.7421934202276285e-06   1.3310065103677006e-05   1.9041197513027754e-06   1.1220790347292661e-06   3.9545191343604076e-06   6.9348779992050173e-07   3.6591037760683962e-07   1.1950953005410144e-06   2.2743207565144486e-07   9.0676813518913224e-08   4.1116578220973467e-07   3.2954387966044330e-07   9.3122045296993186e-08   7.1532343594309858e-06   6.7179841265361967e-05   2.4096673038114271e-06   3.6325647254209970e-06   1.6514015924691726e-05   9.6735196858720356e-06   1.1004331213407277e-05   2.6590045500592573e-05   2.6797737066638220e-05   1.1342145338533993e-05   1.8668302047185770e-05   2.1316474579794802e-05   1.4578371436207924e-05   2.0402809770007413e-06   7.4094190584492388e-07   5.1854700075871538e-06   2.6681970794989411e-05   1.8881797166056682e-06   1.3693193877063131e-06   1.9676534966284600e-06   2.6022671390137028e-06   1.6668652259103642e-06   2.4363749033712243e-06   1.0703614068493379e-06   9.9174778542264846e-07   8.3645566908921520e-07   7.8647619435998969e-07   8.1664274113467591e-06   1.0444043756076911e-06   1.4712715072171001e-06   1.0122055463167230e-06   6.8644632136574121e-07   1.5330953894934969e-05   1.3482173969298949e-05   3.1837139227987063e-06   1.6342406029118404e-06   2.3192896638806342e-05   3.7379087590877215e-05   5.2403435992756947e-06   4.1706253832609545e-06   1.3578272131075542e-05   1.8095596267900946e-06   1.8622746918472283e-06   3.8775974710115999e-06   4.6524650048653405e-07   5.1615752939659758e-07   1.4436841930810043e-06   1.4758670531701111e-07   1.9680466248961261e-07   6.3492269558187453e-08   1.0172092434087041e-07   1.5371282772852621e-07   1.9041630395246284e-07   3.6714237328412363e-05   1.7398323806973112e-04   3.2899556322351770e-05   3.8307714334927274e-06   4.9308133143719035e-06   2.3550855402991085e-05   4.0546634068797346e-05   4.3316263722841911e-06   5.8743885710503986e-06   1.3559134405071515e-05   2.0069820433575000e-05   8.6818343156866351e-06   1.4039343269982916e-05   4.7499402462307757e-05   3.2970363150838107e-05   2.5667180084236274e-05   2.0867424819283855e-05   4.5193217729571940e-05   4.0177553577434630e-05   5.7544892427992579e-05   3.5529990010158086e-05   4.5347398298564355e-05   1.1052072803496086e-05   8.5471680936862461e-06   5.9098626612304866e-05   2.4544800305572237e-05   2.7548224066813512e-05   3.4695125867425375e-05   3.4051933043012735e-05   3.7535448027026530e-06   7.3646868281830303e-06   1.2286131939885074e-05   1.9130686406055224e-06   1.1226934193710864e-06   3.9795117385708398e-06   7.0106432201976246e-07   3.6878645231492765e-07   1.2082711299124566e-06   2.2840661019967685e-07   9.1299933352736785e-08   4.1370691760408955e-07   3.3017059792994354e-07   9.3683246159614966e-08   7.1489168398227994e-06   6.7148570009896164e-05   2.6795437871832594e-05   2.9415677106171731e-06   8.6589144183773123e-06   1.4477043097475662e-05   7.4878155731691289e-06   3.1529667915559226e-06   6.5634823679084318e-06   4.4304046003381768e-06   9.3522526933966363e-06   1.9524708782944739e-05   4.5471643583025989e-05   2.0124494562512680e-05   9.5390252647011534e-06   2.0331012597543541e-06   5.2459618931056208e-06   2.2425866564507463e-06   2.6214072315840581e-06   3.3264089180368307e-06   1.2611499128324814e-06   6.9760646917166974e-06   </DataArray> 
</CellData> 
</Piece>
</UnstructuredGrid>
</VTKFile>