<?xml version="1.0"?>
<VTKFile type="UnstructuredGrid"  version="0.1"  >
<UnstructuredGrid>
<Piece  NumberOfPoints="1439" NumberOfCells="2751">
<Points>
<DataArray  type="Float64"  NumberOfComponents="3"  format="ascii">-1 1 0  -0.75 1 0  -1 0.75 0  -0.5 1 0  -0.75 0.75 0  -1 0.5 0  -0.25 1 0  -0.5 0.75 0  -0.75 0.5 0  -1 0.25 0  1 1 0  1 1.110223024625157e-16 0  1 0.2500000000000001 0  1 0.5 0  1 0.75 0  0.75 1 0  0.5 1 0  0.25 1 0  0 1 0  -0.25 0.75 0  -0.5 0.5 0  -0.75 0.25 0  -1 0 0  0.75 0.75 0  0.75 0 0  0.75 0.25 0  0.75 0.5 0  0.5 0.75 0  0.25 0.75 0  0 0.75 0  -0.25 0.5 0  -0.5 0.25 0  -0.75 0 0  -1 -0.2500000000000001 0  0.5 0.5 0  0.5 0 0  0.5 0.25 0  0.25 0.5 0  0 0.5 0  -0.25 0.25 0  -0.5 0 0  -0.75 -0.2500000000000001 0  -1 -0.5 0  0.25 0.25 0  0.25 0 0  0 0.25 0  -1 -0.75 0  -0.25 0 0  -0.5 -0.25 0  -0.75 -0.5 0  -0.9999999999999999 -1 0  0 0 0  -0.75 -0.75 0  -0.25 -0.25 0  -0.5 -0.5 0  -0.7499999999999999 -1 0  0 -0.25 0  -0.5 -0.75 0  -0.25 -0.5 0  -0.4999999999999999 -0.9999999999999999 0  0 -0.5 0  -0.25 -0.75 0  -0.2499999999999999 -0.9999999999999999 0  0 -0.75 0  0 -0.9999999999999999 0  0.375 0.125 0  0.125 0.375 0  -0.125 0.375 0  -0.375 0.125 0  -0.125 0.25 0  -0.25 0.125 0  0.25 0.125 0  0.125 0.25 0  0.125 0.125 0  0.125 0 0  -0.125 0.125 0  0 0.125 0  -0.375 -0.125 0  -0.125 0 0  -0.25 -0.125 0  -0.125 -0.125 0  -0.125 -0.375 0  -0.375 -0.625 0  -0.125 -0.5 0  -0.25 -0.625 0  -0.3749999999999999 -0.875 0  -0.125 -0.625 0  0 -0.625 0  -0.2499999999999999 -0.875 0  -0.125 -0.75 0  -0.1249999999999999 -0.875 0  -0.1249999999999999 -0.9999999999999999 0  0 -0.875 0  -0.375 0.625 0  -0.625 0.375 0  -0.375 0.5 0  -0.5 0.375 0  -0.375 0.375 0  -0.25 0.375 0  -0.375 0.25 0  0.1875 0.0625 0  0.1875 0 0  0.0625 0.1875 0  -0.0625 0.1875 0  0 0.1875 0  -0.1875 0.0625 0  -0.1875 0 0  -0.1875 -0.0625 0  0 -0.125 0  0.0625 0.0625 0  0.0625 0 0  -0.0625 0.0625 0  0 0.0625 0  -0.0625 0 0  -0.0625 -0.0625 0  -0.125 -0.25 0  -0.1875 -0.1875 0  -0.0625 -0.1875 0  0.125 0.0625 0  0.0625 0.125 0  -0.0625 0.125 0  -0.125 0.0625 0  -0.125 -0.0625 0  0.875 0.375 0  0.125 0.875 0  0.625 0.625 0  0.75 0.375 0  0.625 0.125 0  0.625 0.25 0  0.625 0.5 0  0.625 0.375 0  0.375 0.625 0  0.125 0.75 0  0.25 0.625 0  0.125 0.625 0  -0.125 0.625 0  0 0.625 0  -0.125 0.5 0  -0.625 0.125 0  -0.5 0.125 0  -0.625 0 0  0.5 0.375 0  0.375 0.5 0  0.375 0.375 0  0.5 0.125 0  0.125 0.5 0  0.25 0.375 0  -0.625 -0.125 0  -0.5 -0.125 0  -0.625 -0.25 0  -0.625 -0.375 0  -0.375 -0.25 0  -0.5 -0.375 0  0 -0.0625 0  0.03125 0.03125 0  0.03125 0 0  -0.03125 0.03125 0  0 0.03125 0  -0.03125 0 0  -0.03125 -0.03125 0  -0.375 -0.375 0  0.09375 0.03125 0  0.03125 0.09375 0  -0.03125 0.09375 0  0 0.09375 0  -0.09375 0.03125 0  -0.09375 0 0  -0.09375 -0.03125 0  -0.03125 -0.09375 0  0.0625 0.03125 0  0.03125 0.0625 0  -0.03125 0.0625 0  -0.0625 0.03125 0  -0.0625 -0.03125 0  -0.0625 -0.125 0  -0.875 0.875 0  -0.625 1 0  -0.75 0.875 0  -0.875 0.75 0  -1 0.625 0  -0.625 0.875 0  -0.375 1 0  -0.5 0.875 0  -0.875 0.625 0  -0.625 0.75 0  -0.75 0.625 0  -0.875 0.5 0  -1 0.375 0  -0.375 0.875 0  -0.125 1 0  -0.25 0.875 0  -0.625 0.625 0  -0.375 0.75 0  -0.5 0.625 0  -0.875 0.375 0  -0.625 0.5 0  -0.75 0.375 0  -0.875 0.25 0  -1 0.125 0  0.875 0.1250000000000001 0  0.875 0.2500000000000001 0  -0.125 0.875 0  -0.875 0.125 0  -0.75 0.125 0  -0.875 0 0  -1 -0.125 0  0.75 0.125 0  -0.875 -0.125 0  -0.75 -0.125 0  -0.875 -0.2500000000000001 0  0 0.375 0  -0.0625 0.4375 0  -0.375 0 0  -0.4375 0.0625 0  -0.875 -0.375 0  -0.0625 0.3125 0  -0.875 -0.625 0  -0.3125 0.0625 0  -0.75 -0.625 0  -0.625 -0.5 0  0 -0.03125 0  0.015625 0.015625 0  0.015625 0 0  -0.015625 0.015625 0  0 0.015625 0  -0.015625 0 0  -0.015625 -0.015625 0  -0.625 -0.625 0  0.046875 0.015625 0  0.015625 0.046875 0  -0.015625 0.046875 0  0 0.046875 0  -0.046875 0.015625 0  -0.046875 0 0  -0.046875 -0.015625 0  -0.015625 -0.046875 0  0.03125 0.015625 0  0.015625 0.03125 0  -0.015625 0.03125 0  -0.03125 0.015625 0  -0.03125 -0.015625 0  -0.03125 -0.0625 0  1 0.875 0  0.875 0.875 0  1 0.625 0  0.875 0.5 0  0.875 0.75 0  0.875 0.625 0  0.625 1 0  0.75 0.875 0  0.625 0.875 0  0.5 0.875 0  0.375 0.875 0  -0.125 0.75 0  -0.25 0.625 0  -0.1875 0.6875 0  0.75 0.625 0  0.625 0.75 0  0.6875 0.6875 0  0.375 0.75 0  0.5 0.625 0  0.5625 0.6875 0  0.4375 0.6875 0  0.3125 0.6875 0  -0.1875 0.5625 0  0.375 0 0  0.4375 0.0625 0  0.375 0.25 0  0.4375 0.1875 0  0.5625 0.1875 0  0.4375 0.3125 0  0.5 0.1875 0  -0.1875 0.3125 0  -0.3125 0.1875 0  -0.1875 0.25 0  -0.25 0.1875 0  -0.1875 0.1875 0  0.3125 0.1875 0  0.1875 0.3125 0  0.25 0.1875 0  0.1875 0.25 0  0.1875 0.1875 0  0.3125 0.3125 0  0.3125 0.0625 0  0.25 0.0625 0  0.0625 0.3125 0  -0.4375 -0.3125 0  -0.875 -0.875 0  -0.8749999999999999 -1 0  0 -0.015625 0  0.0078125 0.0078125 0  0.0078125 0 0  -0.0078125 0.0078125 0  0 0.0078125 0  -0.0078125 0 0  -0.0078125 -0.0078125 0  -0.75 -0.875 0  -0.625 -0.75 0  -0.25 -0.375 0  -0.3125 -0.1875 0  -0.1875 -0.3125 0  -0.3125 -0.25 0  -0.3125 -0.3125 0  -0.5 -0.625 0  -0.375 -0.5 0  -0.4375 -0.5625 0  -0.4375 -0.4375 0  -0.625 -0.875 0  -0.6249999999999999 -1 0  0 -0.375 0  -0.0625 -0.3125 0  -0.0625 -0.25 0  -0.4999999999999999 -0.875 0  -0.375 -0.75 0  -0.4375 -0.8125 0  -0.1875 -0.4375 0  -0.3125 -0.5625 0  -0.1875 -0.5 0  -0.1875 -0.5625 0  -0.3125 -0.4375 0  -0.3749999999999999 -0.9999999999999999 0  -0.4374999999999999 -0.9375 0  -0.0625 -0.4375 0  0.3125 0.125 0  0.4375 0.125 0  0.125 0.3125 0  -0.125 0.1875 0  -0.1875 0.125 0  0.1875 0.125 0  0.125 0.1875 0  -0.125 -0.4375 0  -0.125 -0.3125 0  -0.375 -0.3125 0  0 -0.046875 0  0.0234375 0.0078125 0  0.0078125 0.0234375 0  -0.0078125 0.0234375 0  0 0.0234375 0  -0.0234375 0.0078125 0  -0.0234375 0 0  -0.0234375 -0.0078125 0  -0.0078125 -0.0234375 0  -0.0078125 -0.0390625 0  0.015625 0.0078125 0  0.0078125 0.015625 0  -0.0078125 0.015625 0  -0.015625 0.0078125 0  -0.015625 -0.0078125 0  -0.015625 -0.03125 0  -0.6875 0.4375 0  1 0.1250000000000001 0  0.875 5.551115123125783e-17 0  0.9375 0.06250000000000008 0  0.9375 0.1875000000000001 0  0.375 1 0  0.125 1 0  0.25 0.875 0  0.1875 0.9375 0  0.3125 0.9375 0  0 0.875 0  0.0625 0.9375 0  -0.0625 0.9375 0  -0.4375 0.4375 0  -0.625 0.25 0  -0.6875 0.3125 0  -0.6875 0.1875 0  -0.8125 0.3125 0  -0.75 0.3125 0  0.625 0 0  0.6875 0.0625 0  0.8125 0.06250000000000003 0  0.75 0.0625 0  0.6875 0.1875 0  0.1875 0.8125 0  0.3125 0.8125 0  0.0625 0.8125 0  -0.0625 0.8125 0  -0.1875 0.4375 0  -0.3125 0.5625 0  -0.3125 0.5 0  -0.3125 0.4375 0  -0.25 0.4375 0  -0.1875 0.5 0  -0.4375 0.1875 0  -0.5625 0.3125 0  -0.5 0.3125 0  -0.4375 0.3125 0  -0.4375 0.25 0  -0.5625 0.1875 0  -0.5 0.1875 0  -1 -0.375 0  0.5625 0.0625 0  0.5 0.0625 0  0.1875 0.4375 0  0.1875 0.5625 0  0.3125 0.4375 0  0.1875 0.5 0  0.25 0.4375 0  0.0625 0.4375 0  0.0625 0.5625 0  0.0625 0.5 0  0 0.4375 0  -0.3125 0.3125 0  -0.25 0.3125 0  -0.3125 0.25 0  -0.4375 -0.0625 0  -0.5625 0.0625 0  -0.5625 -0.06250000000000001 0  -0.5 -0.0625 0  -0.4375 0 0  -0.75 -0.375 0  -0.6875 -0.3125 0  -0.8125 -0.3125 0  -1 -0.625 0  -0.875 -0.5 0  -0.9375 -0.4375 0  -0.9375 -0.5625 0  -0.875 -0.75 0  -0.9375 -0.6875 0  -0.25 0.0625 0  -0.3125 -0.0625 0  -0.25 -0.0625 0  -0.21875 -0.03125 0  -0.3125 0 0  -0.28125 0.03125 0  -0.4375 -0.1875 0  -0.5625 -0.1875 0  -0.5 -0.1875 0  -0.6875 -0.4375 0  -0.8125 -0.4375 0  -0.8125 -0.5625 0  0 -0.0078125 0  0.00390625 0.00390625 0  0.00390625 0 0  -0.00390625 0.00390625 0  0 0.00390625 0  -0.00390625 0 0  -0.00390625 -0.00390625 0  -0.8125 -0.6875 0  -0.25 -0.1875 0  -0.1875 -0.25 0  -0.21875 -0.21875 0  0 -0.1875 0  -0.03125 -0.21875 0  0.125 0.4375 0  0.1875 0.375 0  0.0625 0.375 0  -0.1875 0.375 0  -0.125 0.4375 0  -0.375 0.1875 0  -0.4375 0.125 0  -0.3125 -0.125 0  -0.4375 -0.125 0  -0.375 -0.1875 0  -0.375 -0.0625 0  -0.34375 -0.15625 0  -0.1875 -0.125 0  -0.21875 -0.09375 0  -0.21875 -0.15625 0  -0.28125 -0.15625 0  -0.15625 -0.09375 0  -0.15625 -0.15625 0  -0.09375 -0.15625 0  -0.6875 0.375 0  -0.375 0.4375 0  -0.4375 0.375 0  -0.3125 0.375 0  -0.375 0.3125 0  -0.03125 -0.15625 0  -0.15625 -0.21875 0  -0.09375 -0.21875 0  -0.125 -0.1875 0  0.5625 0.125 0  0.6875 0.125 0  0.125 0.5625 0  -0.5625 0.125 0  0.3125 0.375 0  -0.5625 -0.125 0  -0.34375 0.03125 0  -0.375 0.0625 0  0 -0.0234375 0  0.01171875 0.00390625 0  0.01171875 0 0  0.00390625 0.01171875 0  -0.00390625 0.01171875 0  0 0.01171875 0  -0.01171875 0.00390625 0  -0.01171875 0 0  -0.01171875 -0.00390625 0  -0.00390625 -0.01171875 0  -0.00390625 -0.01953125 0  0.0078125 0.00390625 0  0.00390625 0.0078125 0  -0.00390625 0.0078125 0  -0.0078125 0.00390625 0  -0.0078125 -0.00390625 0  -0.0078125 -0.015625 0  -0.875 1 0  -1 0.875 0  -0.9375 0.9375 0  -0.8125 0.9375 0  -0.9375 0.8125 0  -0.4375 0.6875 0  -0.4375 0.8125 0  -0.5625 0.6875 0  -0.4375 0.75 0  -0.5 0.6875 0  -0.6875 0.5625 0  1 0.3750000000000001 0  0.9375 0.3125000000000001 0  0.9375 0.2500000000000001 0  0.9375 0.4375 0  -0.3125 0.6875 0  -0.25 0.6875 0  -0.4375 0.5625 0  -0.5625 0.4375 0  -0.4375 0.5 0  -0.5 0.4375 0  -0.5625 0.5625 0  -0.5 0.5625 0  -0.5625 0.5 0  -0.8125 0.1875 0  0.8125 0.3125 0  0.75 0.3125 0  0.6875 0.25 0  0.6875 0.3125 0  0.8125 0.4375 0  0.6875 0.5625 0  0.6875 0.5 0  0.6875 0.4375 0  0.1875 0.6875 0  0.0625 0.75 0  0.0625 0.6875 0  -0.0625 0.6875 0  0 0.6875 0  -0.6875 0.0625 0  -0.6875 0 0  -0.6875 -0.06250000000000001 0  -0.8125 0.0625 0  -0.75 0.0625 0  -0.8125 -0.06250000000000001 0  -0.75 -0.06250000000000001 0  0.5625 0.5625 0  0.5625 0.5 0  0.5625 0.4375 0  0.4375 0.5625 0  0.5 0.4375 0  0.4375 0.5 0  0.4375 0.4375 0  0.5 0.5625 0  0.5625 0.25 0  0.5625 0.3125 0  0.5 0.3125 0  0.3125 0.5625 0  0.25 0.5625 0  0.3125 0.5 0  -0.0625 0.5625 0  0 0.5625 0  -0.0625 0.5 0  -0.6875 -0.1875000000000001 0  -0.8125 -0.1875000000000001 0  -0.75 -0.1875000000000001 0  0.3125 0.25 0  0.28125 0.21875 0  0.3125 0 0  0.28125 0.03125 0  -0.0625 0.25 0  0.0625 0.25 0  0.03125 0.21875 0  -0.03125 0.21875 
[...]
<CellData  Scalars="w"> 
<DataArray  type="Float64"  Name="w"  format="ascii">2.5884904380670486e-08   2.5809623753760908e-08   2.5251467068998390e-08   2.8408653885678265e-08   2.5878537680723674e-08   2.5803605760331128e-08   2.5230651524280632e-08   2.8395828537397979e-08   5.0003949218087577e-09   4.8421206609308370e-09   5.2228273430146891e-09   6.2644098496980235e-09   5.4654327654031389e-09   5.5649789614737259e-09   5.4621331243383144e-09   6.5177654438788235e-09   5.5692447747053690e-09   4.8397044459247780e-09   5.6094885531943128e-09   6.0712690890677262e-09   6.2195916065487700e-09   7.0189687692495564e-09   6.3304318193070446e-09   6.8821228388783320e-09   5.5582442146112341e-09   4.8300574386597337e-09   5.5992817034784498e-09   6.0547815543129174e-09   6.2082129530314673e-09   7.0096851747213788e-09   6.3195514253167078e-09   6.8604075085468974e-09   4.9867870336501409e-09   4.8320023306399674e-09   5.2094710414229768e-09   6.2469037278075444e-09   5.4501696680427227e-09   5.5522928143082656e-09   5.4471737783080726e-09   6.4961476962047231e-09   5.6828944429190814e-09   5.0406439014112207e-09   5.6840924486666117e-09   6.3190830375925160e-09   5.1033734924418127e-09   9.5479287187347700e-09   5.1980788552511824e-09   8.7061231795914872e-09   5.6787588510663590e-09   5.0410529664377950e-09   5.6803606154447138e-09   6.3198391028121358e-09   5.0976918596535838e-09   9.5412381779798887e-09   5.1925405786677959e-09   8.6933955713031450e-09   5.5311959557500315e-09   6.1924420123837296e-09   8.2195934107187846e-09   9.5563254642299236e-09   5.7151589750652770e-09   4.9603696376987471e-09   7.6802934470081655e-09   8.5810579721081310e-09   8.4210559335374418e-09   7.3445600498446143e-09   9.8045617864693469e-09   9.5094164840732988e-09   1.1372333369410088e-08   3.5374129758756478e-09   1.4774537964533602e-09   1.0342812158702493e-08   1.0402949968922706e-08   1.4310920882781424e-08   5.0391738631191520e-09   2.6845875317794889e-09   1.0978132701657923e-08   2.9163943324128628e-09   4.6418177702924189e-09   1.2643562103917162e-08   2.4211111203152743e-09   2.3377957795101392e-09   1.2622812943006139e-08   1.1372863348044116e-08   1.7439130932042246e-08   1.5615733951999441e-08   1.5345321679960151e-08   2.0459465811239493e-08   2.1504265513941307e-09   1.8358153089641200e-09   4.1915606686363322e-09   1.9377935716541240e-09   2.7800551603597499e-09   2.1989413773413991e-09   1.2039472823587559e-08   5.9111574014724217e-09   6.0392745294436446e-09   6.9758410987601081e-09   8.4762441070683007e-09   6.3474374757620655e-09   5.9008753589863249e-09   6.8523123615209900e-09   8.1535257849312863e-09   7.4101732887645394e-09   6.1890813584454581e-09   7.8713155377918286e-09   8.0523719628918532e-09   8.6827508204180409e-09   1.0214451959160913e-08   9.1776665869942880e-09   9.3703320129700254e-09   1.0558713615560541e-08   1.0663968015347082e-08   1.1787686261798690e-08   8.7799212543767288e-09   8.9616855143585271e-09   9.1023390656257436e-09   9.3329832676306901e-09   7.7617031351415209e-09   1.2033295527963576e-08   9.9463724293579698e-09   1.3315177497836434e-08   1.2341761861454559e-08   1.1704401133696055e-08   9.9461713683063501e-09   1.0991762457057577e-08   1.0528175278345662e-08   8.4649832151988362e-09   7.4243009830357193e-09   1.0041736200948492e-08   9.4140612568662671e-09   1.0959436551795937e-08   1.2905548466869236e-08   1.1530083752916355e-08   1.0871921689740715e-08   5.2257237647652264e-09   6.1772219675792292e-09   8.3741729759104872e-09   9.6044242629349027e-09   1.6735132409200151e-08   8.8830325647449184e-09   2.1464188162882732e-08   7.4019458537308865e-09   6.1795112570098911e-09   7.8643740589165928e-09   8.0427800492726285e-09   8.6812712561533103e-09   1.0293893289809759e-08   9.3703955333707498e-09   9.1939981652552054e-09   5.9072470570843385e-09   6.0314238787646994e-09   6.9680194137113586e-09   8.4625633538818561e-09   6.3501681214991566e-09   5.9390448052276827e-09   6.8519410598928644e-09   8.1251269025085235e-09   1.7586195860568271e-08   1.9180885451688959e-08   1.6984930652063668e-08   2.0558822607130282e-08   1.4682086599921620e-08   1.5859556490359869e-08   1.4419317134516626e-08   1.2015890301547046e-08   1.4382952464591682e-08   1.8258388756433054e-08   1.5528385253147998e-08   1.5387577593247036e-08   1.3988747271296008e-08   1.6887207562330077e-08   1.3344803971521859e-08   1.2665480451701500e-08   1.1857982732448987e-08   9.9167994088613751e-09   1.2909958467450279e-08   1.2632974166935068e-08   1.1786336380947150e-08   9.9775768815800105e-09   1.1039643364302358e-08   1.0671858378042976e-08   1.0295763097883305e-08   1.0587930128509218e-08   1.1534183277407879e-08   1.3489988814729192e-08   8.9209286726290250e-09   9.0605810801728030e-09   9.2467564806156909e-09   7.7418140804077501e-09   8.1750341762253648e-09   7.7364549412250836e-09   8.4175467476003688e-09   9.9118840296987841e-09   7.0697358528892541e-09   6.7025694267848318e-09   7.3972937571150802e-09   6.0933762037083826e-09   8.6605685743028968e-09   7.4444094148819042e-09   8.7450865838157028e-09   9.4591405537915724e-09   7.9150298344941790e-09   6.9355416899486864e-09   7.7561974772845370e-09   7.0255927223585683e-09   1.5481370922154162e-08   1.3209371005055116e-08   1.5463488359585329e-08   1.7824736850636501e-08   1.0838858085116655e-08   1.1110978294743718e-08   1.0915532335509480e-08   1.1853420576251782e-08   1.5088659126797488e-08   1.3176730500430623e-08   1.5130910083545030e-08   1.7837160530552478e-08   1.2757512361840138e-08   1.1373330107141065e-08   1.3133764728446271e-08   1.1152782149917925e-08   8.5901338167522445e-09   7.4098062692639761e-09   8.6811362455087432e-09   9.3379922800011284e-09   7.8899245610605775e-09   6.9152026310762437e-09   7.7302688097239168e-09   7.0173817375050143e-09   8.1412085995235889e-09   7.6971189927137259e-09   8.3651816129472600e-09   9.7609408638527878e-09   7.0497744097257600e-09   6.6788555988424841e-09   7.3775263181569498e-09   6.0787983330060074e-09   8.8245106436300690e-09   7.8937558189899023e-09   8.8328583021976087e-09   9.9854236139460211e-09   1.0087163275957478e-08   1.1604443002061741e-08   1.1051643186918085e-08   9.8554855695871800e-09   8.8162242267155346e-09   7.8956192476532492e-09   8.8269040833620770e-09   9.9885285034237663e-09   1.0047091893735247e-08   1.1000388436774571e-08   1.1356195038776259e-08   9.8067287281569362e-09   3.0786071563065113e-08   1.2692512647725112e-08   8.9636013738265615e-09   2.5528603496241074e-08   4.2478819223125632e-09   8.9593175038562578e-09   2.9818493270533844e-08   3.4388059965321249e-08   2.7282068555991164e-08   1.9412402999401808e-08   1.7530015998366628e-09   1.0862834209116951e-09   2.5300227654584480e-09   2.1205765677592636e-09   1.8216611813034257e-09   2.0603580509538657e-09   1.5630580806984878e-09   3.9246938538387173e-09   1.0518596225566431e-09   1.2860995366369605e-09   1.6691547812418992e-09   2.1332968024172743e-09   8.7063359468890596e-10   2.7363371543003569e-09   8.3173772635687002e-10   6.6408465800556076e-10   3.2222849786744290e-09   7.4809150914108216e-09   4.1043533699924715e-09   3.1791035131521781e-09   2.7944082838571124e-09   4.8122636055170449e-09   2.6210952583837048e-09   1.8570496465753898e-09   9.5901516380844398e-09   9.3371451810838579e-09   9.1804894821216945e-09   6.2649793666198843e-09   3.8368976319709099e-09   5.0422059122989871e-09   1.3130038142723063e-08   9.5585193565166219e-10   2.4566287714090953e-09   9.3754317257132806e-10   7.0132430977585585e-10   3.7333935909292958e-10   5.0868421959096387e-10   1.2494825202096710e-09   9.4857152184248387e-11   2.4203527792860402e-10   9.3938544821504978e-11   6.9633541051762072e-11   3.7071491401440001e-11   5.0649041526543690e-11   1.2358144999822213e-10   9.4531626838307601e-12   2.4089506983274212e-11   9.3607752474829497e-12   6.9283939129234684e-12   3.7020462661787741e-12   5.0592267491443327e-12   1.2318237973365671e-11   9.4675157546060438e-13   2.4046707017008854e-12   9.4395829719836348e-13   6.9541989368602287e-13   3.6310419531838830e-13   5.0814831189198473e-13   1.2240995268942391e-12   8.4824091570486095e-14   2.3260450531722715e-13   1.1370862465464461e-13   7.6377665307982237e-14   3.1338565663115932e-13   1.9082309893723261e-13   2.1905238484933181e-07   4.5183702332662721e-06   1.7833319060333469e-08   1.0745261107832147e-08   2.4888423612255105e-08   2.1910201725184138e-08   1.8163281249688457e-08   1.2385391267715649e-08   1.5612596468507104e-08   1.3116854084426554e-08   1.0285262606306174e-08   1.2816770434724918e-08   1.5677388451777361e-08   1.6014712697281541e-08   8.7999278049246425e-09   2.1521296289867032e-08   6.3417073962744058e-09   6.4984587373516519e-09   3.0894555665717260e-08   1.2518138487964136e-08   8.9215381019636809e-09   2.5676550558186458e-08   4.3760616561442682e-09   1.1716701217583877e-08   2.9842059884225991e-08   3.4384911402614197e-08   2.7382878276534690e-08   1.9413330287763240e-08   1.7504174430841808e-09   1.0541340626335171e-09   2.5472644898366121e-09   2.1701324850238956e-09   1.8193806308423330e-09   2.0381143510543267e-09   1.5564477242319645e-09   3.9123744954381370e-09   1.0433171100113305e-09   1.2590325708623253e-09   1.7912380327098619e-09   2.2880850019904871e-09   8.6100634776803839e-10   2.5599867166019551e-09   7.8959929692349638e-09   3.2350206696823264e-09   7.5033469137154280e-09   4.1385025222792910e-09   3.2382409006417810e-09   2.7972299519255775e-09   4.8156841708456754e-09   2.6217606701613703e-09   1.8585048553038978e-09   9.6302376307654912e-09   9.3532125939690851e-09   9.2285602981093297e-09   6.3063920576002600e-09   3.8464746322285408e-09   5.0535948681536796e-09   1.3129866713692540e-08   9.5632366645304692e-10   2.4571864260855281e-09   9.3910435148871597e-10   7.0316628601800214e-10   3.7402599640198898e-10   5.0847723197967404e-10   1.2491053931922182e-09   9.4811723257178982e-11   2.4187374335794143e-10   9.3960062207472590e-11   6.9708518764847611e-11   3.7126175384429450e-11   5.0600556611771003e-11   1.2353904080501965e-10   9.4460504790216027e-12   2.4069166466569109e-11   9.3631515305446012e-12   6.9342541237713967e-12   3.7025387792938834e-12   5.0514369406949843e-12   1.2314236773547173e-11   9.4357824827801121e-13   2.4001017785526180e-12   9.4191542065327965e-13   6.9484896171187643e-13   3.6030181202473574e-13   5.0417932082320602e-13   1.2238187665708965e-12   8.3771665423050152e-14   2.3168569767971101e-13   1.1077592206438019e-13   7.4934922485216251e-14   3.0623392930591588e-13   1.9146746280362867e-13   2.3262793990186944e-07   4.5488260675136638e-06   1.7910870017296809e-08   1.0475268060823972e-08   2.5575959517647219e-08   2.3150638277282105e-08   1.8351814114912647e-08   1.2487433697312914e-08   1.5794266044558262e-08   1.3174367563377266e-08   1.0417321078478151e-08   1.2822295533906220e-08   1.6010899116401466e-08   1.8897837462040987e-08   8.6539719091528017e-09   1.1067111212887419e-08   8.3699670233178865e-09   6.6048654940247272e-09   2.8004398628169612e-09   2.1249934171512235e-09   2.5908645345420239e-09   3.3835459979588400e-09   2.3158422413492244e-09   2.2052984880077048e-09   1.9618756967220633e-09   1.5579923848610298e-09   1.8654923430957211e-08   2.7147733541382812e-08   3.4697584188768463e-08   3.5697115961519282e-08   2.3991459864913658e-09   2.3477518388598844e-09   2.7012216641127977e-09   3.6081270402077597e-09   1.9131532619180364e-09   1.8851832633682107e-09   2.0588841158637698e-09   1.7606285493398922e-09   2.8044903768382884e-09   2.1604057307347252e-09   2.9344742117160656e-09   3.1476917418681860e-09   2.4516435563496447e-09   1.9857540517407587e-09   2.3406641368078764e-09   2.0088347737558453e-09   1.9735089986237632e-09   2.4087745258796453e-09   1.4036026911788695e-09   1.6617521469075479e-09   1.6864141912472995e-09   1.3305826033367430e-09   1.4016622649438848e-09   4.0983376729282155e-09   1.0608685481150125e-08   1.1450093726773863e-08   4.5952032647544324e-08   2.4003540032050986e-08   5.0009898753153543e-08   2.6760974283615779e-08   3.2904073964084915e-08   1.9966877300166890e-08   3.6263322281807271e-09   4.0015631660633493e-09   7.2291981759186540e-09   1.8461783883489562e-09   1.0794436291200759e-08   1.3187809857737171e-08   1.3250694998143032e-08   6.4079854567714332e-08   5.2390755239882855e-08   2.1450883969189174e-08   1.2775575954578773e-08   6.5669225113200985e-09   2.3892448340525850e-09   6.9096261507912151e-10   1.8446884823134035e-09   4.7476554693904186e-10   6.8953382079287749e-10   2.0556940367802894e-09   1.6686025430688291e-09   2.3282560050168665e-09   9.9238040557741372e-10   6.7471720153392793e-10   3.6291234082921083e-08   1.6147790967350916e-08   8.0786586967693745e-08   1.4211920826070287e-08   2.3058480253607939e-08   1.5316232323588748e-08   2.2243831060837721e-08   3.6635026944660931e-09   8.1228069698287351e-09   3.6395750405239964e-09   1.0507540125961885e-08   3.4335905218771745e-09   2.8721617149899585e-09   5.3229722450656354e-09   1.4962103682730125e-09   7.3475924179920973e-10   9.8277343365605609e-09   1.0350133939826615e-08   2.2214574610769366e-08   1.8141588214062768e-08   2.6206450145495239e-09   3.1400564877715538e-09   2.7713633032436800e-09   3.9684158290957014e-09   2.4130111761131941e-09   1.8885707370501981e-09   2.2915704593835959e-09   2.0434096492305545e-09   3.6243937473538526e-09   4.3569748944191472e-09   3.3509779390063467e-09   4.4399353290819229e-09   2.8111200782416176e-09   2.4321692704057707e-09   2.8119737769835387e-09   7.2541625246495650e-09   5.1793662466550732e-09   4.4858879049107127e-09   5.5009142365458783e-09   4.4180710909653098e-09   7.0422296363835623e-09   5.6387474109917817e-09   7.1460886883722147e-09   9.7619606299161605e-09   3.3136915817821001e-08   1.4626486379974076e-08   5.3354542097335926e-09   3.2280396295841724e-08   6.3163847043792566e-09   3.6071129034201181e-09   9.6489488268842048e-09   1.0903315304393315e-08   8.4443001600459348e-09   1.2773021232865455e-08   6.5163075456357908e-09   8.4050620928143033e-09   5.4604512002459635e-09   4.4838679136622641e-09   6.9211456059270747e-09   3.6555700177420853e-09   1.6730538062874261e-08   6.7667343330292093e-09   2.4267081337810202e-09   1.4171715787765322e-08   4.9841494959516935e-09   9.9625930599856910e-09   5.4568881238464164e-09   3.9375654951356477e-09   6.9835979574516333e-09   5.6332343309997401e-09   7.0958031765499901e-09   9.7735520083090258e-09   4.0802901049392632e-08   5.5088468483828131e-08   2.4903189576033076e-08   5.2490337601009594e-08   9.7182824117595342e-09   1.0818663759228295e-08   8.5670506850291951e-09   1.2841628814670822e-08   6.8872664314475875e-09   1.9947425697902387e-08   6.1049127955893979e-09   1.4600946603988144e-08   4.2155813404149686e-09   1.7754413236313108e-09   1.1783548098150596e-08   1.4319140197242602e-09   1.9024118450775772e-09   3.4140219554857567e-09   2.7749974900459336e-09   9.3158398532159888e-09   1.2909060747304867e-08   1.3913058857139138e-08   1.5123735387237320e-08   7.9964524571329823e-09   1.0272478878785969e-08   1.8325895148899459e-09   1.1445983146434248e-09   4.9253046714862403e-09   2.8419226966091117e-09   3.0524128420109638e-09   2.3132155475227089e-09   2.5848883338796851e-09   2.0506122504788053e-09   4.4873247851563846e-09   2.2306269355760509e-09   1.9084636600093889e-09   2.4193191695746896e-08   1.9700808744028643e-08   2.8971913496603858e-08   6.7428601250135799e-09   4.0385349464270095e-09   2.4349375263157300e-08   1.9782893544711167e-08   2.3296293063766318e-08   2.0652774919592454e-08   4.1353324111197761e-09   6.7271009083572195e-09   1.9200707469300673e-08   4.1574270799951473e-09   5.9726598054406157e-09   2.6121441886303927e-09   3.9479762772212648e-09   1.8408576222105191e-08   2.0112281127360951e-08   1.3568543402622736e-08   1.7400083830997671e-08   2.7040322342504012e-08   3.4304989237353957e-09   4.9625647355277309e-10   1.2365098579343322e-09   4.0741645178596213e-08   4.0469932506430884e-08   1.9054097291426949e-09   6.2395625124790300e-10   1.3318059449985510e-08   4.8558313603953545e-10   1.3810483073654054e-09   4.6469347812030471e-10   1.1232602084141213e-09   7.1724494535698065e-10   5.3585923929629044e-10   3.6148498656388133e-09   5.1595536216173805e-10   1.4354639517781030e-09   5.4607961419256096e-10   1.6418508926562096e-09   2.7557085561207391e-08   1.2196255463546864e-08   3.7586777819608235e-09   3.2687587510539122e-08   3.8832984052032575e-08   1.6769915910427375e-08   4.6345568728548688e-09   2.9469149506111914e-09   2.2005500155413630e-08   7.2017868827005139e-09   3.4188321030786501e-09   2.2557031595379170e-09   3.4868772418459056e-09   2.5146004491866839e-09   3.7661532402874699e-09   6.2692877032609632e-09   3.8937326226228239e-09   1.6188618992669053e-08   2.5612102882917884e-09   2.7518640084558084e-09   3.7177097091151613e-09   4.1633194810760100e-09   3.9207054487502488e-09   2.2256654032165365e-09   4.0617168314721652e-09   3.7667770371203024e-09   4.3146557732597162e-09   2.3038759714222148e-09   3.6311277461609338e-09   3.5074669960579463e-09   1.8771860473234683e-09   3.7877152735670340e-09   1.8271922225554090e-09   3.2138154518951003e-09   3.6638281953160629e-09   3.9807465012377274e-09   1.9556214516282115e-09   3.5704369482456068e-09   3.5289744090507611e-09   5.5985907811032786e-09   1.1329275473600533e-08   2.9870924563511252e-08   1.3965238727111504e-08   7.8827104863211715e-08   1.0614795321900426e-08   1.1412200242083906e-08   8.5183276234859679e-09   8.0018430274073829e-09   1.2098657654677543e-08   1.2617758294423676e-08   1.5976973770344731e-08   1.4211450489375257e-08   2.6431245021181995e-09   4.6412702045782496e-09   8.8401780766436213e-09   2.3588296008571586e-09   3.0347905343945737e-09   1.5540552632856882e-09   2.3173561859888272e-09   6.8021440912531415e-09   9.9124506627034579e-09   2.2446003468317246e-08   6.6762028055069117e-09   1.7650166857109585e-08   4.5585644416190009e-09   6.6350203799802533e-09   2.3925862599011802e-08   2.6409456355434812e-08   1.9961995937633172e-08   1.9989573600272168e-08   3.4307332199029182e-08   2.3214994130113338e-08   2.8046542931903960e-08   1.2534556831346175e-08   6.5808927331379406e-09   4.7029890583454457e-09   1.5276819550507104e-08   3.5956112286417037e-09   5.1641741004509739e-09   7.8673992874119428e-10   1.6086819409573632e-09   3.3300986301869745e-09   5.3502994902594194e-10   1.3779999552713062e-09   5.5183436513807594e-10   1.6437460949911195e-09   2.5662046453884242e-09   1.7722024387032491e-09   3.9890579838951306e-09   2.5866707899323512e-09   2.8510646836252216e-09   1.6609642630860171e-09   2.8845080956331012e-09   2.7016275721342939e-09   3.6148854662348083e-09   5.8445799191703115e-09   3.4619432712988436e-09   3.7805155646887105e-09   3.0960979833464169e-09   2.5354437823573663e-09   3.0084862793208489e-09   2.8599050665173451e-09   2.0142203591013405e-08   3.1249785733471526e-09   4.9332303551338113e-09   2.6370330715483099e-08   7.0682626085659203e-09   4.0600802758143461e-09   2.5480601217721296e-08   1.9009944116447166e-08   2.4178341710399849e-08   2.0565589945135643e-08   1.4192822902533803e-08   2.2342430776225725e-08   1.9156269173476602e-08   1.8694184926663343e-08   1.8777803682499132e-09   2.1489296733471139e-09   2.6934512743291723e-09   7.3577575088243124e-09   1.7329723812847152e-09   1.5525683955461689e-09   3.3617904224626309e-09   2.7451878874589363e-09   4.4292451946623986e-09   4.0479041063030486e-09   2.5222718804726414e-09   3.7800879953166015e-09   3.5809976948099872e-09   3.0541850457005983e-09   3.1354003751068005e-09   2.7086773158325539e-09   2.4603386559089570e-09   2.7067803996873685e-09   3.7324688592234283e-09   4.1035967061857248e-09   3.4399429437658347e-09   3.2096367411393714e-09   4.3082901180883549e-09   3.7550503068259869e-09   1.4022320816531618e-09   1.6763221628327964e-09   1.3975888734609217e-09   1.2134222148302693e-09