<?xml version="1.0"?>
<VTKFile type="UnstructuredGrid"  version="0.1"  >
<UnstructuredGrid>
<Piece  NumberOfPoints="2052" NumberOfCells="3947">
<Points>
<DataArray  type="Float64"  NumberOfComponents="3"  format="ascii">-1 1 0  -0.75 1 0  -1 0.75 0  -0.5 1 0  -0.75 0.75 0  -1 0.5 0  -0.25 1 0  -0.5 0.75 0  -0.75 0.5 0  -1 0.25 0  1 1 0  1 1.110223024625157e-16 0  1 0.2500000000000001 0  1 0.5 0  1 0.75 0  0.75 1 0  0.5 1 0  0.25 1 0  0 1 0  -0.25 0.75 0  -0.5 0.5 0  -0.75 0.25 0  -1 0 0  0.75 0.75 0  0.75 0 0  0.75 0.25 0  0.75 0.5 0  0.5 0.75 0  0.25 0.75 0  0 0.75 0  -0.25 0.5 0  -0.5 0.25 0  -0.75 0 0  -1 -0.2500000000000001 0  0.5 0.5 0  0.5 0 0  0.5 0.25 0  0.25 0.5 0  0 0.5 0  -0.25 0.25 0  -0.5 0 0  -0.75 -0.2500000000000001 0  -1 -0.5 0  0.25 0.25 0  0.25 0 0  0 0.25 0  -1 -0.75 0  -0.25 0 0  -0.5 -0.25 0  -0.75 -0.5 0  -0.9999999999999999 -1 0  0 0 0  -0.75 -0.75 0  -0.25 -0.25 0  -0.5 -0.5 0  -0.7499999999999999 -1 0  0 -0.25 0  -0.5 -0.75 0  -0.25 -0.5 0  -0.4999999999999999 -0.9999999999999999 0  0 -0.5 0  -0.25 -0.75 0  -0.2499999999999999 -0.9999999999999999 0  0 -0.75 0  0 -0.9999999999999999 0  0.375 0.125 0  0.125 0.375 0  -0.125 0.375 0  -0.375 0.125 0  -0.125 0.25 0  -0.25 0.125 0  0.25 0.125 0  0.125 0.25 0  0.125 0.125 0  0.125 0 0  -0.125 0.125 0  0 0.125 0  -0.375 -0.125 0  -0.125 0 0  -0.25 -0.125 0  -0.125 -0.125 0  -0.125 -0.375 0  -0.375 -0.625 0  -0.125 -0.5 0  -0.25 -0.625 0  -0.3749999999999999 -0.875 0  -0.125 -0.625 0  0 -0.625 0  -0.2499999999999999 -0.875 0  -0.125 -0.75 0  -0.1249999999999999 -0.875 0  -0.1249999999999999 -0.9999999999999999 0  0 -0.875 0  -0.375 0.625 0  -0.625 0.375 0  -0.375 0.5 0  -0.5 0.375 0  -0.375 0.375 0  -0.25 0.375 0  -0.375 0.25 0  0.1875 0.0625 0  0.1875 0 0  0.0625 0.1875 0  -0.0625 0.1875 0  0 0.1875 0  -0.1875 0.0625 0  -0.1875 0 0  -0.1875 -0.0625 0  0 -0.125 0  0.0625 0.0625 0  0.0625 0 0  -0.0625 0.0625 0  0 0.0625 0  -0.0625 0 0  -0.0625 -0.0625 0  -0.125 -0.25 0  -0.1875 -0.1875 0  -0.0625 -0.1875 0  0.125 0.0625 0  0.0625 0.125 0  -0.0625 0.125 0  -0.125 0.0625 0  -0.125 -0.0625 0  0.875 0.375 0  0.125 0.875 0  0.625 0.625 0  0.75 0.375 0  0.625 0.125 0  0.625 0.25 0  0.625 0.5 0  0.625 0.375 0  0.375 0.625 0  0.125 0.75 0  0.25 0.625 0  0.125 0.625 0  -0.125 0.625 0  0 0.625 0  -0.125 0.5 0  -0.625 0.125 0  -0.5 0.125 0  -0.625 0 0  0.5 0.375 0  0.375 0.5 0  0.375 0.375 0  0.5 0.125 0  0.125 0.5 0  0.25 0.375 0  -0.625 -0.125 0  -0.5 -0.125 0  -0.625 -0.25 0  -0.625 -0.375 0  -0.375 -0.25 0  -0.5 -0.375 0  0 -0.0625 0  0.03125 0.03125 0  0.03125 0 0  -0.03125 0.03125 0  0 0.03125 0  -0.03125 0 0  -0.03125 -0.03125 0  -0.375 -0.375 0  0.09375 0.03125 0  0.03125 0.09375 0  -0.03125 0.09375 0  0 0.09375 0  -0.09375 0.03125 0  -0.09375 0 0  -0.09375 -0.03125 0  -0.03125 -0.09375 0  0.0625 0.03125 0  0.03125 0.0625 0  -0.03125 0.0625 0  -0.0625 0.03125 0  -0.0625 -0.03125 0  -0.0625 -0.125 0  -0.875 0.875 0  -0.625 1 0  -0.75 0.875 0  -0.875 0.75 0  -1 0.625 0  -0.625 0.875 0  -0.375 1 0  -0.5 0.875 0  -0.875 0.625 0  -0.625 0.75 0  -0.75 0.625 0  -0.875 0.5 0  -1 0.375 0  -0.375 0.875 0  -0.125 1 0  -0.25 0.875 0  -0.625 0.625 0  -0.375 0.75 0  -0.5 0.625 0  -0.875 0.375 0  -0.625 0.5 0  -0.75 0.375 0  -0.875 0.25 0  -1 0.125 0  0.875 0.1250000000000001 0  0.875 0.2500000000000001 0  -0.125 0.875 0  -0.875 0.125 0  -0.75 0.125 0  -0.875 0 0  -1 -0.125 0  0.75 0.125 0  -0.875 -0.125 0  -0.75 -0.125 0  -0.875 -0.2500000000000001 0  0 0.375 0  -0.0625 0.4375 0  -0.375 0 0  -0.4375 0.0625 0  -0.875 -0.375 0  -0.0625 0.3125 0  -0.875 -0.625 0  -0.3125 0.0625 0  -0.75 -0.625 0  -0.625 -0.5 0  0 -0.03125 0  0.015625 0.015625 0  0.015625 0 0  -0.015625 0.015625 0  0 0.015625 0  -0.015625 0 0  -0.015625 -0.015625 0  -0.625 -0.625 0  0.046875 0.015625 0  0.015625 0.046875 0  -0.015625 0.046875 0  0 0.046875 0  -0.046875 0.015625 0  -0.046875 0 0  -0.046875 -0.015625 0  -0.015625 -0.046875 0  0.03125 0.015625 0  0.015625 0.03125 0  -0.015625 0.03125 0  -0.03125 0.015625 0  -0.03125 -0.015625 0  -0.03125 -0.0625 0  1 0.875 0  0.875 0.875 0  1 0.625 0  0.875 0.5 0  0.875 0.75 0  0.875 0.625 0  0.625 1 0  0.75 0.875 0  0.625 0.875 0  0.5 0.875 0  0.375 0.875 0  -0.125 0.75 0  -0.25 0.625 0  -0.1875 0.6875 0  0.75 0.625 0  0.625 0.75 0  0.6875 0.6875 0  0.375 0.75 0  0.5 0.625 0  0.5625 0.6875 0  0.4375 0.6875 0  0.3125 0.6875 0  -0.1875 0.5625 0  0.375 0 0  0.4375 0.0625 0  0.375 0.25 0  0.4375 0.1875 0  0.5625 0.1875 0  0.4375 0.3125 0  0.5 0.1875 0  -0.1875 0.3125 0  -0.3125 0.1875 0  -0.1875 0.25 0  -0.25 0.1875 0  -0.1875 0.1875 0  0.3125 0.1875 0  0.1875 0.3125 0  0.25 0.1875 0  0.1875 0.25 0  0.1875 0.1875 0  0.3125 0.3125 0  0.3125 0.0625 0  0.25 0.0625 0  0.0625 0.3125 0  -0.4375 -0.3125 0  -0.875 -0.875 0  -0.8749999999999999 -1 0  0 -0.015625 0  0.0078125 0.0078125 0  0.0078125 0 0  -0.0078125 0.0078125 0  0 0.0078125 0  -0.0078125 0 0  -0.0078125 -0.0078125 0  -0.75 -0.875 0  -0.625 -0.75 0  -0.25 -0.375 0  -0.3125 -0.1875 0  -0.1875 -0.3125 0  -0.3125 -0.25 0  -0.3125 -0.3125 0  -0.5 -0.625 0  -0.375 -0.5 0  -0.4375 -0.5625 0  -0.4375 -0.4375 0  -0.625 -0.875 0  -0.6249999999999999 -1 0  0 -0.375 0  -0.0625 -0.3125 0  -0.0625 -0.25 0  -0.4999999999999999 -0.875 0  -0.375 -0.75 0  -0.4375 -0.8125 0  -0.1875 -0.4375 0  -0.3125 -0.5625 0  -0.1875 -0.5 0  -0.1875 -0.5625 0  -0.3125 -0.4375 0  -0.3749999999999999 -0.9999999999999999 0  -0.4374999999999999 -0.9375 0  -0.0625 -0.4375 0  0.3125 0.125 0  0.4375 0.125 0  0.125 0.3125 0  -0.125 0.1875 0  -0.1875 0.125 0  0.1875 0.125 0  0.125 0.1875 0  -0.125 -0.4375 0  -0.125 -0.3125 0  -0.375 -0.3125 0  0 -0.046875 0  0.0234375 0.0078125 0  0.0078125 0.0234375 0  -0.0078125 0.0234375 0  0 0.0234375 0  -0.0234375 0.0078125 0  -0.0234375 0 0  -0.0234375 -0.0078125 0  -0.0078125 -0.0234375 0  -0.0078125 -0.0390625 0  0.015625 0.0078125 0  0.0078125 0.015625 0  -0.0078125 0.015625 0  -0.015625 0.0078125 0  -0.015625 -0.0078125 0  -0.015625 -0.03125 0  -0.6875 0.4375 0  1 0.1250000000000001 0  0.875 5.551115123125783e-17 0  0.9375 0.06250000000000008 0  0.9375 0.1875000000000001 0  0.375 1 0  0.125 1 0  0.25 0.875 0  0.1875 0.9375 0  0.3125 0.9375 0  0 0.875 0  0.0625 0.9375 0  -0.0625 0.9375 0  -0.4375 0.4375 0  -0.625 0.25 0  -0.6875 0.3125 0  -0.6875 0.1875 0  -0.8125 0.3125 0  -0.75 0.3125 0  0.625 0 0  0.6875 0.0625 0  0.8125 0.06250000000000003 0  0.75 0.0625 0  0.6875 0.1875 0  0.1875 0.8125 0  0.3125 0.8125 0  0.0625 0.8125 0  -0.0625 0.8125 0  -0.1875 0.4375 0  -0.3125 0.5625 0  -0.3125 0.5 0  -0.3125 0.4375 0  -0.25 0.4375 0  -0.1875 0.5 0  -0.4375 0.1875 0  -0.5625 0.3125 0  -0.5 0.3125 0  -0.4375 0.3125 0  -0.4375 0.25 0  -0.5625 0.1875 0  -0.5 0.1875 0  -1 -0.375 0  0.5625 0.0625 0  0.5 0.0625 0  0.1875 0.4375 0  0.1875 0.5625 0  0.3125 0.4375 0  0.1875 0.5 0  0.25 0.4375 0  0.0625 0.4375 0  0.0625 0.5625 0  0.0625 0.5 0  0 0.4375 0  -0.3125 0.3125 0  -0.25 0.3125 0  -0.3125 0.25 0  -0.4375 -0.0625 0  -0.5625 0.0625 0  -0.5625 -0.06250000000000001 0  -0.5 -0.0625 0  -0.4375 0 0  -0.75 -0.375 0  -0.6875 -0.3125 0  -0.8125 -0.3125 0  -1 -0.625 0  -0.875 -0.5 0  -0.9375 -0.4375 0  -0.9375 -0.5625 0  -0.875 -0.75 0  -0.9375 -0.6875 0  -0.25 0.0625 0  -0.3125 -0.0625 0  -0.25 -0.0625 0  -0.21875 -0.03125 0  -0.3125 0 0  -0.28125 0.03125 0  -0.4375 -0.1875 0  -0.5625 -0.1875 0  -0.5 -0.1875 0  -0.6875 -0.4375 0  -0.8125 -0.4375 0  -0.8125 -0.5625 0  0 -0.0078125 0  0.00390625 0.00390625 0  0.00390625 0 0  -0.00390625 0.00390625 0  0 0.00390625 0  -0.00390625 0 0  -0.00390625 -0.00390625 0  -0.8125 -0.6875 0  -0.25 -0.1875 0  -0.1875 -0.25 0  -0.21875 -0.21875 0  0 -0.1875 0  -0.03125 -0.21875 0  0.125 0.4375 0  0.1875 0.375 0  0.0625 0.375 0  -0.1875 0.375 0  -0.125 0.4375 0  -0.375 0.1875 0  -0.4375 0.125 0  -0.3125 -0.125 0  -0.4375 -0.125 0  -0.375 -0.1875 0  -0.375 -0.0625 0  -0.34375 -0.15625 0  -0.1875 -0.125 0  -0.21875 -0.09375 0  -0.21875 -0.15625 0  -0.28125 -0.15625 0  -0.15625 -0.09375 0  -0.15625 -0.15625 0  -0.09375 -0.15625 0  -0.6875 0.375 0  -0.375 0.4375 0  -0.4375 0.375 0  -0.3125 0.375 0  -0.375 0.3125 0  -0.03125 -0.15625 0  -0.15625 -0.21875 0  -0.09375 -0.21875 0  -0.125 -0.1875 0  0.5625 0.125 0  0.6875 0.125 0  0.125 0.5625 0  -0.5625 0.125 0  0.3125 0.375 0  -0.5625 -0.125 0  -0.34375 0.03125 0  -0.375 0.0625 0  0 -0.0234375 0  0.01171875 0.00390625 0  0.01171875 0 0  0.00390625 0.01171875 0  -0.00390625 0.01171875 0  0 0.01171875 0  -0.01171875 0.00390625 0  -0.01171875 0 0  -0.01171875 -0.00390625 0  -0.00390625 -0.01171875 0  -0.00390625 -0.01953125 0  0.0078125 0.00390625 0  0.00390625 0.0078125 0  -0.00390625 0.0078125 0  -0.0078125 0.00390625 0  -0.0078125 -0.00390625 0  -0.0078125 -0.015625 0  -0.875 1 0  -1 0.875 0  -0.9375 0.9375 0  -0.8125 0.9375 0  -0.9375 0.8125 0  -0.4375 0.6875 0  -0.4375 0.8125 0  -0.5625 0.6875 0  -0.4375 0.75 0  -0.5 0.6875 0  -0.6875 0.5625 0  1 0.3750000000000001 0  0.9375 0.3125000000000001 0  0.9375 0.2500000000000001 0  0.9375 0.4375 0  -0.3125 0.6875 0  -0.25 0.6875 0  -0.4375 0.5625 0  -0.5625 0.4375 0  -0.4375 0.5 0  -0.5 0.4375 0  -0.5625 0.5625 0  -0.5 0.5625 0  -0.5625 0.5 0  -0.8125 0.1875 0  0.8125 0.3125 0  0.75 0.3125 0  0.6875 0.25 0  0.6875 0.3125 0  0.8125 0.4375 0  0.6875 0.5625 0  0.6875 0.5 0  0.6875 0.4375 0  0.1875 0.6875 0  0.0625 0.75 0  0.0625 0.6875 0  -0.0625 0.6875 0  0 0.6875 0  -0.6875 0.0625 0  -0.6875 0 0  -0.6875 -0.06250000000000001 0  -0.8125 0.0625 0  -0.75 0.0625 0  -0.8125 -0.06250000000000001 0  -0.75 -0.06250000000000001 0  0.5625 0.5625 0  0.5625 0.5 0  0.5625 0.4375 0  0.4375 0.5625 0  0.5 0.4375 0  0.4375 0.5 0  0.4375 0.4375 0  0.5 0.5625 0  0.5625 0.25 0  0.5625 0.3125 0  0.5 0.3125 0  0.3125 0.5625 0  0.25 0.5625 0  0.3125 0.5 0  -0.0625 0.5625 0  0 0.5625 0  -0.0625 0.5 0  -0.6875 -0.1875000000000001 0  -0.8125 -0.1875000000000001 0  -0.75 -0.1875000000000001 0  0.3125 0.25 0  0.28125 0.21875 0  0.3125 0 0  0.28125 0.03125 0  -0.0625 0.25 0  0.0625 0.25 0  0.03125 0.21875 0  -0.03125 0.21875 
[...]
<CellData  Scalars="w"> 
<DataArray  type="Float64"  Name="w"  format="ascii">4.3668478450899897e-09   3.8264820456966355e-09   7.0609018480706166e-10   4.6030436274830711e-10   2.5885118320094375e-09   9.4457789187107941e-10   5.4254738292044704e-10   4.2595595057532893e-09   4.9988216413271939e-10   8.6482066135600189e-10   7.1829599277202297e-10   5.0708635907882703e-10   4.3648153680094751e-09   3.8267118735631224e-09   7.0593997424389771e-10   4.6015602462103373e-10   2.5884651179135147e-09   9.4403136073119928e-10   5.4224868770226226e-10   4.2543710042069541e-09   4.9967280525203126e-10   8.6493716432891891e-10   7.1755568529222333e-10   5.0688890017061888e-10   4.9595651441605273e-09   4.6825621697149614e-09   5.1728437672756820e-09   6.2449693425728495e-09   5.4342790640376558e-09   5.5390661571670729e-09   5.4271305288247858e-09   6.4929290809869562e-09   5.5770815030194040e-09   4.6270468755312389e-09   5.6396400544124533e-09   6.0514698402742270e-09   6.2532063462989543e-09   7.0503478801965321e-09   6.3594385706414841e-09   6.8844753253929211e-09   5.5670705893476058e-09   4.6187455207041684e-09   5.6303239566541962e-09   6.0367501385303776e-09   6.2425579431952878e-09   7.0413937267124915e-09   6.3491534480793168e-09   6.8640705165084666e-09   4.9480276592152846e-09   4.6739329922433987e-09   5.1613530185117652e-09   6.2292369673972587e-09   5.4220208005657846e-09   5.5306785397394963e-09   5.4149789121615674e-09   6.4741466657656069e-09   5.7151614856565926e-09   5.0342226533077874e-09   5.7136003670615968e-09   6.3556760863110337e-09   5.2868276564338266e-09   4.2145062028267100e-09   5.3394374891075827e-09   3.9749408634471669e-09   5.7113123422036616e-09   5.0345575606466877e-09   5.7100924987010370e-09   6.3563532360900300e-09   5.2814665848809691e-09   4.2130849592574969e-09   5.3340975858377982e-09   3.9702583189693258e-09   5.6432366901244865e-09   6.2233852851926292e-09   8.1842707368458299e-09   9.4090544276623681e-09   5.9744662942038975e-09   4.7049707878803850e-09   7.7327673134002125e-09   7.6101076941985303e-09   8.3718040884335096e-09   7.3505297563061394e-09   9.6583348566840275e-09   9.3802696955444944e-09   1.1271033629626383e-08   3.5751393984904205e-09   1.4948767015016373e-09   9.1101108604241995e-09   1.0121894345342631e-08   1.4118287965586716e-08   4.9276535166027713e-09   2.5941119908051803e-09   1.0838651620377010e-08   2.8854090071864128e-09   4.6132109254266220e-09   1.2489587252485376e-08   2.3826951363791669e-09   2.2751578659451888e-09   1.2493856348104399e-08   1.1329219144890897e-08   1.7977386221698341e-08   1.3880733764503757e-08   1.5702501551849186e-08   1.5174067630937408e-08   2.1418534094930761e-09   1.7272208121480218e-09   4.3143739914143085e-09   1.9455314565291517e-09   2.7922263975703072e-09   2.2007724733542671e-09   1.2023224869179072e-08   5.8875132265961983e-09   6.0138287228643939e-09   6.9491938939057101e-09   8.4401109104380999e-09   6.3292030799562997e-09   5.8995440120476401e-09   6.8315241399019645e-09   8.1194069395503659e-09   7.3803676231035568e-09   6.1635188981637421e-09   7.8422177877326418e-09   8.0198453386011678e-09   8.6526727474618051e-09   1.0174647932394924e-08   9.1428892352940851e-09   9.3241883730168805e-09   1.0488529514240221e-08   1.0603578834400987e-08   1.1755661725081244e-08   8.7791880403078486e-09   8.9209342597375708e-09   9.0591927719655227e-09   9.2762010414555802e-09   7.7340143156188719e-09   1.1960218498592800e-08   9.8939412146719393e-09   1.3208789429094677e-08   1.2285317255669506e-08   1.1625347137340372e-08   9.8962689826272363e-09   1.0928979216674108e-08   1.0496191062279962e-08   8.4710413897110976e-09   7.4251147522093420e-09   1.0043839023824853e-08   9.4239781766952965e-09   1.0947504418792796e-08   1.2913380072457025e-08   1.1545658891864207e-08   1.0910317447219633e-08   5.2346443378704801e-09   6.1838878672358325e-09   8.3870465979702535e-09   9.6279564843605189e-09   1.6751923136668202e-08   8.8992871997361175e-09   2.1486622942642745e-08   7.3781506410817729e-09   6.1592625853576956e-09   7.8399620825855656e-09   8.0181340394107779e-09   8.6553002480454443e-09   1.0256874761017946e-08   9.3312983494804687e-09   9.1631335901565775e-09   5.8909160621559561e-09   6.0118387743936326e-09   6.9485579630014549e-09   8.4361016434971084e-09   6.3397039210325551e-09   5.9376473551852669e-09   6.8384939844554549e-09   8.1063864210597378e-09   1.8073345920662795e-08   1.7447355077831123e-08   1.7343465931146989e-08   1.5300481181270377e-08   1.4817702733417647e-08   1.5596312041828687e-08   1.4467173656218679e-08   1.1985029682101783e-08   1.4187231841454586e-08   1.7803803209515117e-08   1.5297948072268973e-08   1.5298183400800487e-08   1.3808713106459056e-08   1.6485381853087675e-08   1.3185463438285867e-08   1.2626236656546592e-08   1.1779963747739280e-08   9.8760577309832447e-09   1.2787083084229897e-08   1.2562601593554490e-08   1.1700809791602324e-08   9.9295967866248774e-09   1.0976196920522050e-08   1.0642669053420239e-08   1.0277306150645602e-08   1.0544267945529724e-08   1.1492304843908253e-08   1.3438193692432520e-08   8.9051269142821733e-09   9.0312927202734166e-09   9.2388248175128740e-09   7.7345564927648319e-09   8.1543571833505594e-09   7.7286102893745664e-09   8.4024815512975902e-09   9.9044945009329482e-09   7.0441164740505162e-09   6.6811790773590811e-09   7.3718695003711232e-09   6.0672314463099332e-09   8.6670979392521807e-09   7.4366490639143712e-09   8.7567568755889395e-09   9.4514370937582524e-09   7.9344631441823292e-09   6.9422087792562134e-09   7.7760393013729070e-09   7.0572476140766895e-09   1.5673901111041047e-08   1.3330001318310443e-08   1.5647007454397048e-08   1.7795418248097885e-08   1.0920024109051090e-08   1.1181273697932117e-08   1.0988856715155218e-08   1.1886035569879635e-08   1.5267578260642681e-08   1.3296627493916305e-08   1.5302765011954169e-08   1.7808731790985278e-08   1.2837098623502818e-08   1.1441850299941562e-08   1.3230782890225081e-08   1.1181711558503252e-08   8.5975285082855891e-09   7.4040526307831252e-09   8.6933276066433115e-09   9.3316812491344289e-09   7.9097554550843599e-09   6.9229572666195671e-09   7.7508141760863555e-09   7.0493129719898253e-09   8.1236875964349113e-09   7.6910329689423589e-09   8.3522137790642155e-09   9.7539762803534826e-09   7.0279952511527253e-09   6.6598241612714053e-09   7.3560826843236053e-09   6.0564214791401669e-09   8.8564489130190494e-09   7.9258022993080146e-09   8.8655494119629442e-09   1.0034838924171369e-08   1.0121351259601089e-08   1.1621131588048856e-08   1.1119319869904983e-08   9.8855818197244351e-09   8.8481834510086895e-09   7.9275322667012734e-09   8.8596195077592427e-09   1.0037804718327838e-08   1.0080228772953629e-08   1.1014386314332890e-08   1.1422893694866494e-08   9.8363799138661145e-09   6.7689837811438992e-10   7.5217901930952480e-10   5.9277901776842436e-10   1.5714571687160720e-09   9.7865755878765897e-10   1.0976418827353101e-09   8.5667750856347302e-10   1.2763666201437144e-09   3.8877266461395327e-09   3.3822595158548943e-09   4.6288238954545058e-09   9.8780942317135929e-09   4.8065437742295940e-10   4.1529034315208317e-10   5.3124484002196389e-10   3.9006641809283165e-10   6.9075918839295931e-10   5.4543375155194179e-10   7.0163868737925165e-10   9.6882486041435535e-10   2.8905686829030142e-10   4.0930644955461366e-10   3.1589986108475495e-10   3.5818265632869865e-10   7.3098704929417543e-10   3.6748712576079451e-10   2.3711388131716921e-09   1.7496394000493202e-09   1.0815417095309497e-09   2.5235244070391612e-09   2.1132248927923793e-09   1.8124610517770289e-09   1.2443502129044330e-09   1.5605459778242241e-09   1.3093665261689621e-09   1.0255726762061373e-09   1.2671166118919613e-09   1.6617389903457267e-09   2.1329524883155789e-09   8.1105774387951032e-10   2.3319187922686319e-09   8.1860074198036389e-10   6.3864525127355353e-10   3.2474461087632155e-09   7.5187215341853365e-09   4.1188937557030749e-09   3.1808155824476534e-09   2.8457806492676985e-09   4.8625061812012097e-09   2.6673283165128229e-09   1.9338838030124511e-09   9.6045095399514486e-09   9.3705646525476313e-09   9.1802282456289966e-09   6.2593124254872482e-09   3.8422859847216920e-09   5.0430274390964002e-09   1.3153489340141693e-08   9.5577724229751451e-10   2.4571239732561907e-09   9.3740395751971811e-10   7.0172617708911871e-10   3.7333259562240003e-10   5.0840546167455534e-10   1.2495007237055203e-09   9.4758978032907670e-11   2.4182035973866464e-10   9.3896582997071010e-11   6.9623865820804410e-11   3.7002785013251776e-11   5.0558543913874211e-11   1.2340066201142222e-10   9.4204775327899169e-12   2.4017329398453044e-11   9.3406449797599641e-12   6.9169637967904114e-12   3.6817072049488387e-12   5.0311449199180224e-12   1.2268408601386279e-11   9.3888189563455010e-13   2.3924164791983815e-12   9.2983084002669807e-13   6.8819813853979781e-13   3.6768357194894103e-13   5.0245420512818936e-13   1.2234023588526775e-12   9.4021753515879482e-14   2.3881159500354131e-13   9.3744391570988061e-14   6.9065390039670300e-14   3.6059829032301972e-14   5.0461999897063093e-14   1.2156583758187902e-13   8.4234332654435953e-15   2.3098825416874569e-14   1.1291672536268552e-14   7.5847706455198162e-15   3.1120366965833930e-14   1.8949423638721452e-14   8.5807769271999570e-08   1.7700061521600010e-06   1.7015106626286739e-08   1.1081894140075799e-08   1.6558197686789846e-08   2.2327431723511172e-08   2.2758624492266953e-09   4.8084657544413390e-09   7.7135123606505076e-09   3.2328760149366705e-09   8.2220384685305112e-10   5.7609340921058650e-10   1.0796865246354536e-08   1.0450939628252120e-08   1.3098759855937895e-08   1.6159877907829820e-08   1.6779281262688777e-08   5.4248721084381418e-09   1.7591119207583249e-09   3.3233634962554773e-09   5.9870003506611260e-09   6.7486168991266164e-09   6.7851191877111447e-10   7.5420625503637877e-10   5.9429198468799675e-10   1.5746251283112322e-09   9.8065727062921173e-10   1.1021039237326708e-09   8.5818715996954877e-10   1.2772837440643452e-09   3.9223890820760105e-09   3.4105369985795749e-09   4.7345807493527016e-09   1.0254120960624619e-08   4.8102919298380244e-10   4.1537763693484931e-10   5.3202103127028351e-10   3.9034524148863812e-10   6.9125992455444788e-10   5.4551579165563524e-10   7.0207353240166012e-10   9.6883929986583577e-10   2.8889754537938890e-10   4.0934119577444945e-10   3.1590372858393528e-10   3.5809961428780874e-10   7.3035826606866480e-10   3.6751575581726101e-10   2.3689307134246097e-09   1.7489659987277093e-09   1.0847217897814459e-09   2.5195949192528822e-09   2.1056138314935586e-09   1.8125817256661162e-09   1.2465576048801294e-09   1.5619615023295711e-09   1.3099614940246430e-09   1.0238125845385017e-09   1.2670548619153287e-09   1.6500682758140828e-09   2.1151140503936406e-09   8.1633280360401339e-10   2.3634147216388584e-09   8.0248963446474126e-10   6.1006148488959182e-10   3.2444854197101937e-09   7.5160459518599535e-09   4.1119087621257950e-09   3.1679856932368044e-09   2.8451127903926888e-09   4.8617964935264668e-09   2.6671001063254204e-09   1.9335844905161307e-09   9.6016057522122100e-09   9.3697348735482451e-09   9.1757311168229024e-09   6.2524675698421898e-09   3.8463354678711515e-09   5.0481360223302240e-09   1.3153695534868833e-08   9.5707133675925138e-10   2.4585184610146641e-09   9.4058521366318291e-10   7.0346785129480483e-10   3.7403908805456375e-10   5.0898540587697980e-10   1.2493580473502352e-09   9.4792437153977158e-11   2.4182236189782743e-10   9.4041634737793503e-11   6.9769246517908677e-11   3.7063541917402308e-11   5.0542911001158965e-11   1.2336722283028163e-10   9.4175113535322077e-12   2.4004427999470089e-11   9.3446844214452275e-12   6.9244042753618260e-12   3.6869574149494845e-12   5.0275508788316258e-12   1.2264676863323222e-11   9.3830553237351657e-13   2.3906895160809153e-12   9.3023442643329205e-13   6.8885281048281632e-13   3.6772528379606964e-13   5.0174918334930421e-13   1.2230316145460405e-12   9.3712718110494979e-14   2.3837279806149065e-13   9.3548451197355149e-14   6.9011916523868173e-14   3.5781055452408643e-14   5.0071057398859989e-14   1.2153928049896581e-13   8.3191643001264671e-15   2.3008354082949628e-14   1.1000758574559488e-14   7.4416305359333172e-15   3.0410217405356307e-14   1.9013756173985442e-14   9.1129962589802187e-08   1.7819528319318965e-06   1.6737201893104284e-08   1.1030421873711069e-08   1.6562736441094435e-08   2.2033614432330434e-08   2.2707983402049271e-09   4.7769101657468659e-09   7.7330363415253523e-09   3.2319967644162441e-09   8.2149249827165181e-10   5.7421615184925648e-10   1.0785828436610200e-08   1.0830922171092343e-08   1.3081862648361265e-08   1.6835442025206175e-08   1.4682762346070177e-08   5.1326217631802079e-09   1.2384274150989378e-09   3.0703039908396221e-09   7.7182964690256002e-09   2.5445811359336686e-09   8.4980661469131026e-10   2.5217576085538373e-09   2.4925971061910231e-09   2.7046405211621517e-09   8.1145822636655662e-10   4.2815198893480353e-10   2.2260697288987076e-09   2.1095017668584789e-09   1.9142863328537926e-09   1.5370245044624857e-09   2.4810971407381914e-09   2.9813090156624701e-09   3.7625845735069535e-10   5.0595953270310243e-10   7.2469676919577021e-10   7.3770373928274534e-10   6.1496962051999588e-10   1.4547061434900702e-09   6.0898739579139953e-10   6.4816927334262765e-10   6.3343200250615198e-10   1.3915911657379091e-09   5.0525961935356945e-10   5.9672309992507567e-10   2.4843177578148683e-09   2.3089762899656230e-09   2.7434009519132015e-09   2.4842240850880350e-09   1.8997597968398698e-09   1.8621782187846045e-09   2.0592720917462247e-09   1.7341845812204116e-09   2.6940359480026916e-09   2.1360798237253642e-09   2.8926480507385612e-09   2.6524636222727504e-09   2.4266844936342144e-09   1.9768285486534455e-09   2.3206315579143228e-09   2.0144117694655463e-09   1.9125762333671338e-09   2.2297884605092539e-09   1.6162537728572960e-09   1.7052647853596059e-09   1.3915735940304111e-09   1.1302834410849061e-09   1.4756080067622346e-09   3.6651452601092663e-09   2.8808421720097582e-09   1.3559735647922520e-09   7.5796107041386913e-09   1.0423339831535630e-09   1.1411523038770708e-09   8.5707642146007716e-10   8.4118912283327710e-10   2.4930039868410255e-09   2.1317308623575778e-09   7.6644283254469272e-10   8.8593309011279928e-10   6.0085328923916850e-10   7.0534053313683644e-10   4.1135310869790877e-10   2.1445747786409715e-10   4.3472594876634000e-10   3.9520367090858496e-10   5.2159398995242134e-10   5.5524446428721554e-10   1.0261354433679967e-09   4.7547353605266792e-10   7.2060781043090735e-10   4.4474558785489660e-10   1.4599257431112132e-09   1.1602641438271320e-09   1.1725529197913357e-09   1.9702183416097889e-09   1.7432033239065079e-09   1.4110364980437313e-09   1.7538360160427132e-09   2.0956550327915945e-09   2.5914406079978039e-09   1.5050993530668192e-09   1.7419877317900066e-09   1.4888047610764972e-09   1.3397564052463513e-09   1.4753393308040916e-09   1.6441043431065666e-09   1.0860377054274242e-09   1.1800768463547132e-09   1.2604444035289372e-09   1.3180371088608146e-09   1.0444857887194639e-09   1.0897424079519452e-09   9.9517124257119201e-10   7.9111693225323102e-10   2.3904527161447985e-09   2.2758111092539563e-09   6.6272597177986550e-10   1.8962792238187093e-09   4.5836188018142103e-10   6.8252654008442393e-10   1.9467502919147370e-09   6.5841982103402572e-10   3.2445700984549616e-10   2.1833944877109602e-09   9.5536564254671539e-10   6.5837056225544937e-10   3.7527487787413932e-10   1.8433901887201126e-10   7.5115891544900857e-10   3.1449428027558355e-10   1.5590739831995652e-09   4.3044179434850836e-10   6.8459266378122019e-10   1.2320662072187478e-09   1.0889919241638327e-09   1.1724247979635196e-09   1.4425182740011273e-09   1.3379073736474875e-08   1.8042272428031485e-08   1.5511165580132411e-08   2.1139615000938664e-08   3.5667465652925008e-09   7.3160725384468403e-09   3.8198961992930059e-09   1.0752493894829035e-08   3.1417657225887899e-09   2.9916642672470463e-09   3.0979174494593142e-09   1.2433773812605443e-09   8.3620321182558761e-10   1.0096525502434522e-08   1.0174910591790336e-08   2.2058391873143420e-08   1.8415862937748584e-08   2.6379077119419607e-09   3.2485189413119561e-09   2.7738932607438474e-09   4.0514645182960525e-09   2.4205138191031981e-09   1.8920500366510924e-09   2.2995480191810894e-09   2.0462042418145994e-09   3.5938205064189249e-09   4.1873787621882719e-09   3.3349296783260019e-09   4.4792590489126279e-09   2.8172591717250977e-09   2.4407173701442445e-09   2.8191790590292243e-09   7.3006189400544514e-09   5.1965448190101927e-09   4.5367609582167095e-09   5.5769449966767034e-09   4.3261757334156358e-09   7.3216264849979408e-09   5.7937525693207497e-09   7.4134964981789422e-09   9.9400477622087784e-09   9.1847382267933136e-10   1.4135832514209956e-09   5.5762841051098670e-10   9.2873964924944230e-10   8.6926528607334773e-10   1.4429906145484267e-09   3.8205249503863793e-09   1.2498765279942554e-09   7.0237025011007923e-10   1.1318246251889948e-09   1.0251675401423486e-09   1.6292585060401170e-09   8.1950594640204780e-10   3.6271415015331631e-09   1.0299654634607467e-08   7.1178301876995332e-09   9.0729419857136124e-09   9.5504042894975170e-09   7.0218271708375906e-09   1.7129999184363195e-09   7.9416627996826287e-10   5.3302480602764164e-09   3.9067953833868946e-09   7.0510307050975597e-09   3.9678207550644392e-09   1.7071524532846744e-08   6.8296256664926087e-09   2.4377076420394246e-09   1.4301689913578855e-08   5.1323564656921791e-09   1.0218054504359622e-08   5.5385662723613793e-09   4.1171107512794643e-09   7.2475515829499852e-09   5.7797357553754494e-09   7.3439922153477815e-09   9.9395542404263946e-09   1.3154853094318528e-09   1.5005789472855930e-09   6.5466129695598371e-10   1.1263780151129616e-09   1.0027790446196707e-09   1.0444732446074789e-09   8.0684336583563065e-10   8.9543154961066010e-10   5.5662866883456708e-10   4.3550228897535029e-10   3.9857236784663311e-09   8.0862903802251813e-10   1.0423746142815671e-09   1.0914798889971897e-09   8.7375333930083561e-10   1.0284501986224565e-08   7.1523728294034648e-09   9.0511423716005273e-09   9.5389642517018526e-09   7.0533781920955052e-09   1.9901770578588099e-09   1.3303407999840598e-09   5.3830115210295886e-09   3.6671613957163555e-09   4.2510533115664755e-09   1.7871888481558049e-09   1.1852793766543799e-08   1.4556874774608859e-09   1.9512908658514127e-09   3.4736393480484529e-09   2.8296484887912308e-09   9.3944478918273498e-09   1.2972914121267764e-08   1.3932133097517846e-08   1.5086968135467522e-08   8.0432653055179017e-09   1.0308923520993510e-08   1.8356069102445259e-09   1.1472919328286403e-09   4.9290241409203901e-09   2.8667311824967346e-09   3.0737935897810826e-09   2.3239608772131711e-09   2.6061035990163634e-09   2.0576099299575361e-09   4.4997570469046629e-09   2.2462198936865590e-09   1.9152441113612651e-09   5.7767464235440315e-09   2.8617753886352785e-09   2.0465944287463757e-08   4.7701969592478830e-10   7.7046493851337800e-10   4.5466115799356610e-10   1.2025923854191463e-09   4.8421578469750858e-10   5.6955877890993486e-10   5.0863502625587294e-10   6.8532673165864433e-10   3.5157399775198110e-09   2.3303899529029534e-09   1.7611503906456424e-08   4.0309548039475262e-09   1.0721662269412393e-09   7.9739895480675753e-10   1.6951703682873025e-08   4.1958243913564352e-09   6.6443258153107279e-09   1.7072399729281617e-08   3.8816719791309066e-09   4.0468304398820445e-09   2.6230508106838952e-09   3.7325619572903021e-09   1.8087140296927135e-08   1.9360774627403387e-08   1.3497453640566013e-08   1.7231580147767492e-08   5.7924833316658909e-10   5.2749427677120909e-10   5.7769310803710009e-10   6.3529474955382338e-10   5.4671553856079583e-10   4.5674118530031544e-10   5.3248341589177341e-10   1.1923071874132566e-09   6.8365770225328671e-10   6.2372039429372010e-10   6.7704452890937372e-10   7.2188477015462357e-10   6.3369143651746086e-10