<?xml version="1.0"?>
<VTKFile type="UnstructuredGrid"  version="0.1"  >
<UnstructuredGrid>
<Piece  NumberOfPoints="2931" NumberOfCells="5685">
<Points>
<DataArray  type="Float64"  NumberOfComponents="3"  format="ascii">-1 1 0  -0.75 1 0  -1 0.75 0  -0.5 1 0  -0.75 0.75 0  -1 0.5 0  -0.25 1 0  -0.5 0.75 0  -0.75 0.5 0  -1 0.25 0  1 1 0  1 1.110223024625157e-16 0  1 0.2500000000000001 0  1 0.5 0  1 0.75 0  0.75 1 0  0.5 1 0  0.25 1 0  0 1 0  -0.25 0.75 0  -0.5 0.5 0  -0.75 0.25 0  -1 0 0  0.75 0.75 0  0.75 0 0  0.75 0.25 0  0.75 0.5 0  0.5 0.75 0  0.25 0.75 0  0 0.75 0  -0.25 0.5 0  -0.5 0.25 0  -0.75 0 0  -1 -0.2500000000000001 0  0.5 0.5 0  0.5 0 0  0.5 0.25 0  0.25 0.5 0  0 0.5 0  -0.25 0.25 0  -0.5 0 0  -0.75 -0.2500000000000001 0  -1 -0.5 0  0.25 0.25 0  0.25 0 0  0 0.25 0  -1 -0.75 0  -0.25 0 0  -0.5 -0.25 0  -0.75 -0.5 0  -0.9999999999999999 -1 0  0 0 0  -0.75 -0.75 0  -0.25 -0.25 0  -0.5 -0.5 0  -0.7499999999999999 -1 0  0 -0.25 0  -0.5 -0.75 0  -0.25 -0.5 0  -0.4999999999999999 -0.9999999999999999 0  0 -0.5 0  -0.25 -0.75 0  -0.2499999999999999 -0.9999999999999999 0  0 -0.75 0  0 -0.9999999999999999 0  0.375 0.125 0  0.125 0.375 0  -0.125 0.375 0  -0.375 0.125 0  -0.125 0.25 0  -0.25 0.125 0  0.25 0.125 0  0.125 0.25 0  0.125 0.125 0  0.125 0 0  -0.125 0.125 0  0 0.125 0  -0.375 -0.125 0  -0.125 0 0  -0.25 -0.125 0  -0.125 -0.125 0  -0.125 -0.375 0  -0.375 -0.625 0  -0.125 -0.5 0  -0.25 -0.625 0  -0.3749999999999999 -0.875 0  -0.125 -0.625 0  0 -0.625 0  -0.2499999999999999 -0.875 0  -0.125 -0.75 0  -0.1249999999999999 -0.875 0  -0.1249999999999999 -0.9999999999999999 0  0 -0.875 0  -0.375 0.625 0  -0.625 0.375 0  -0.375 0.5 0  -0.5 0.375 0  -0.375 0.375 0  -0.25 0.375 0  -0.375 0.25 0  0.1875 0.0625 0  0.1875 0 0  0.0625 0.1875 0  -0.0625 0.1875 0  0 0.1875 0  -0.1875 0.0625 0  -0.1875 0 0  -0.1875 -0.0625 0  0 -0.125 0  0.0625 0.0625 0  0.0625 0 0  -0.0625 0.0625 0  0 0.0625 0  -0.0625 0 0  -0.0625 -0.0625 0  -0.125 -0.25 0  -0.1875 -0.1875 0  -0.0625 -0.1875 0  0.125 0.0625 0  0.0625 0.125 0  -0.0625 0.125 0  -0.125 0.0625 0  -0.125 -0.0625 0  0.875 0.375 0  0.125 0.875 0  0.625 0.625 0  0.75 0.375 0  0.625 0.125 0  0.625 0.25 0  0.625 0.5 0  0.625 0.375 0  0.375 0.625 0  0.125 0.75 0  0.25 0.625 0  0.125 0.625 0  -0.125 0.625 0  0 0.625 0  -0.125 0.5 0  -0.625 0.125 0  -0.5 0.125 0  -0.625 0 0  0.5 0.375 0  0.375 0.5 0  0.375 0.375 0  0.5 0.125 0  0.125 0.5 0  0.25 0.375 0  -0.625 -0.125 0  -0.5 -0.125 0  -0.625 -0.25 0  -0.625 -0.375 0  -0.375 -0.25 0  -0.5 -0.375 0  0 -0.0625 0  0.03125 0.03125 0  0.03125 0 0  -0.03125 0.03125 0  0 0.03125 0  -0.03125 0 0  -0.03125 -0.03125 0  -0.375 -0.375 0  0.09375 0.03125 0  0.03125 0.09375 0  -0.03125 0.09375 0  0 0.09375 0  -0.09375 0.03125 0  -0.09375 0 0  -0.09375 -0.03125 0  -0.03125 -0.09375 0  0.0625 0.03125 0  0.03125 0.0625 0  -0.03125 0.0625 0  -0.0625 0.03125 0  -0.0625 -0.03125 0  -0.0625 -0.125 0  -0.875 0.875 0  -0.625 1 0  -0.75 0.875 0  -0.875 0.75 0  -1 0.625 0  -0.625 0.875 0  -0.375 1 0  -0.5 0.875 0  -0.875 0.625 0  -0.625 0.75 0  -0.75 0.625 0  -0.875 0.5 0  -1 0.375 0  -0.375 0.875 0  -0.125 1 0  -0.25 0.875 0  -0.625 0.625 0  -0.375 0.75 0  -0.5 0.625 0  -0.875 0.375 0  -0.625 0.5 0  -0.75 0.375 0  -0.875 0.25 0  -1 0.125 0  0.875 0.1250000000000001 0  0.875 0.2500000000000001 0  -0.125 0.875 0  -0.875 0.125 0  -0.75 0.125 0  -0.875 0 0  -1 -0.125 0  0.75 0.125 0  -0.875 -0.125 0  -0.75 -0.125 0  -0.875 -0.2500000000000001 0  0 0.375 0  -0.0625 0.4375 0  -0.375 0 0  -0.4375 0.0625 0  -0.875 -0.375 0  -0.0625 0.3125 0  -0.875 -0.625 0  -0.3125 0.0625 0  -0.75 -0.625 0  -0.625 -0.5 0  0 -0.03125 0  0.015625 0.015625 0  0.015625 0 0  -0.015625 0.015625 0  0 0.015625 0  -0.015625 0 0  -0.015625 -0.015625 0  -0.625 -0.625 0  0.046875 0.015625 0  0.015625 0.046875 0  -0.015625 0.046875 0  0 0.046875 0  -0.046875 0.015625 0  -0.046875 0 0  -0.046875 -0.015625 0  -0.015625 -0.046875 0  0.03125 0.015625 0  0.015625 0.03125 0  -0.015625 0.03125 0  -0.03125 0.015625 0  -0.03125 -0.015625 0  -0.03125 -0.0625 0  1 0.875 0  0.875 0.875 0  1 0.625 0  0.875 0.5 0  0.875 0.75 0  0.875 0.625 0  0.625 1 0  0.75 0.875 0  0.625 0.875 0  0.5 0.875 0  0.375 0.875 0  -0.125 0.75 0  -0.25 0.625 0  -0.1875 0.6875 0  0.75 0.625 0  0.625 0.75 0  0.6875 0.6875 0  0.375 0.75 0  0.5 0.625 0  0.5625 0.6875 0  0.4375 0.6875 0  0.3125 0.6875 0  -0.1875 0.5625 0  0.375 0 0  0.4375 0.0625 0  0.375 0.25 0  0.4375 0.1875 0  0.5625 0.1875 0  0.4375 0.3125 0  0.5 0.1875 0  -0.1875 0.3125 0  -0.3125 0.1875 0  -0.1875 0.25 0  -0.25 0.1875 0  -0.1875 0.1875 0  0.3125 0.1875 0  0.1875 0.3125 0  0.25 0.1875 0  0.1875 0.25 0  0.1875 0.1875 0  0.3125 0.3125 0  0.3125 0.0625 0  0.25 0.0625 0  0.0625 0.3125 0  -0.4375 -0.3125 0  -0.875 -0.875 0  -0.8749999999999999 -1 0  0 -0.015625 0  0.0078125 0.0078125 0  0.0078125 0 0  -0.0078125 0.0078125 0  0 0.0078125 0  -0.0078125 0 0  -0.0078125 -0.0078125 0  -0.75 -0.875 0  -0.625 -0.75 0  -0.25 -0.375 0  -0.3125 -0.1875 0  -0.1875 -0.3125 0  -0.3125 -0.25 0  -0.3125 -0.3125 0  -0.5 -0.625 0  -0.375 -0.5 0  -0.4375 -0.5625 0  -0.4375 -0.4375 0  -0.625 -0.875 0  -0.6249999999999999 -1 0  0 -0.375 0  -0.0625 -0.3125 0  -0.0625 -0.25 0  -0.4999999999999999 -0.875 0  -0.375 -0.75 0  -0.4375 -0.8125 0  -0.1875 -0.4375 0  -0.3125 -0.5625 0  -0.1875 -0.5 0  -0.1875 -0.5625 0  -0.3125 -0.4375 0  -0.3749999999999999 -0.9999999999999999 0  -0.4374999999999999 -0.9375 0  -0.0625 -0.4375 0  0.3125 0.125 0  0.4375 0.125 0  0.125 0.3125 0  -0.125 0.1875 0  -0.1875 0.125 0  0.1875 0.125 0  0.125 0.1875 0  -0.125 -0.4375 0  -0.125 -0.3125 0  -0.375 -0.3125 0  0 -0.046875 0  0.0234375 0.0078125 0  0.0078125 0.0234375 0  -0.0078125 0.0234375 0  0 0.0234375 0  -0.0234375 0.0078125 0  -0.0234375 0 0  -0.0234375 -0.0078125 0  -0.0078125 -0.0234375 0  -0.0078125 -0.0390625 0  0.015625 0.0078125 0  0.0078125 0.015625 0  -0.0078125 0.015625 0  -0.015625 0.0078125 0  -0.015625 -0.0078125 0  -0.015625 -0.03125 0  -0.6875 0.4375 0  1 0.1250000000000001 0  0.875 5.551115123125783e-17 0  0.9375 0.06250000000000008 0  0.9375 0.1875000000000001 0  0.375 1 0  0.125 1 0  0.25 0.875 0  0.1875 0.9375 0  0.3125 0.9375 0  0 0.875 0  0.0625 0.9375 0  -0.0625 0.9375 0  -0.4375 0.4375 0  -0.625 0.25 0  -0.6875 0.3125 0  -0.6875 0.1875 0  -0.8125 0.3125 0  -0.75 0.3125 0  0.625 0 0  0.6875 0.0625 0  0.8125 0.06250000000000003 0  0.75 0.0625 0  0.6875 0.1875 0  0.1875 0.8125 0  0.3125 0.8125 0  0.0625 0.8125 0  -0.0625 0.8125 0  -0.1875 0.4375 0  -0.3125 0.5625 0  -0.3125 0.5 0  -0.3125 0.4375 0  -0.25 0.4375 0  -0.1875 0.5 0  -0.4375 0.1875 0  -0.5625 0.3125 0  -0.5 0.3125 0  -0.4375 0.3125 0  -0.4375 0.25 0  -0.5625 0.1875 0  -0.5 0.1875 0  -1 -0.375 0  0.5625 0.0625 0  0.5 0.0625 0  0.1875 0.4375 0  0.1875 0.5625 0  0.3125 0.4375 0  0.1875 0.5 0  0.25 0.4375 0  0.0625 0.4375 0  0.0625 0.5625 0  0.0625 0.5 0  0 0.4375 0  -0.3125 0.3125 0  -0.25 0.3125 0  -0.3125 0.25 0  -0.4375 -0.0625 0  -0.5625 0.0625 0  -0.5625 -0.06250000000000001 0  -0.5 -0.0625 0  -0.4375 0 0  -0.75 -0.375 0  -0.6875 -0.3125 0  -0.8125 -0.3125 0  -1 -0.625 0  -0.875 -0.5 0  -0.9375 -0.4375 0  -0.9375 -0.5625 0  -0.875 -0.75 0  -0.9375 -0.6875 0  -0.25 0.0625 0  -0.3125 -0.0625 0  -0.25 -0.0625 0  -0.21875 -0.03125 0  -0.3125 0 0  -0.28125 0.03125 0  -0.4375 -0.1875 0  -0.5625 -0.1875 0  -0.5 -0.1875 0  -0.6875 -0.4375 0  -0.8125 -0.4375 0  -0.8125 -0.5625 0  0 -0.0078125 0  0.00390625 0.00390625 0  0.00390625 0 0  -0.00390625 0.00390625 0  0 0.00390625 0  -0.00390625 0 0  -0.00390625 -0.00390625 0  -0.8125 -0.6875 0  -0.25 -0.1875 0  -0.1875 -0.25 0  -0.21875 -0.21875 0  0 -0.1875 0  -0.03125 -0.21875 0  0.125 0.4375 0  0.1875 0.375 0  0.0625 0.375 0  -0.1875 0.375 0  -0.125 0.4375 0  -0.375 0.1875 0  -0.4375 0.125 0  -0.3125 -0.125 0  -0.4375 -0.125 0  -0.375 -0.1875 0  -0.375 -0.0625 0  -0.34375 -0.15625 0  -0.1875 -0.125 0  -0.21875 -0.09375 0  -0.21875 -0.15625 0  -0.28125 -0.15625 0  -0.15625 -0.09375 0  -0.15625 -0.15625 0  -0.09375 -0.15625 0  -0.6875 0.375 0  -0.375 0.4375 0  -0.4375 0.375 0  -0.3125 0.375 0  -0.375 0.3125 0  -0.03125 -0.15625 0  -0.15625 -0.21875 0  -0.09375 -0.21875 0  -0.125 -0.1875 0  0.5625 0.125 0  0.6875 0.125 0  0.125 0.5625 0  -0.5625 0.125 0  0.3125 0.375 0  -0.5625 -0.125 0  -0.34375 0.03125 0  -0.375 0.0625 0  0 -0.0234375 0  0.01171875 0.00390625 0  0.01171875 0 0  0.00390625 0.01171875 0  -0.00390625 0.01171875 0  0 0.01171875 0  -0.01171875 0.00390625 0  -0.01171875 0 0  -0.01171875 -0.00390625 0  -0.00390625 -0.01171875 0  -0.00390625 -0.01953125 0  0.0078125 0.00390625 0  0.00390625 0.0078125 0  -0.00390625 0.0078125 0  -0.0078125 0.00390625 0  -0.0078125 -0.00390625 0  -0.0078125 -0.015625 0  -0.875 1 0  -1 0.875 0  -0.9375 0.9375 0  -0.8125 0.9375 0  -0.9375 0.8125 0  -0.4375 0.6875 0  -0.4375 0.8125 0  -0.5625 0.6875 0  -0.4375 0.75 0  -0.5 0.6875 0  -0.6875 0.5625 0  1 0.3750000000000001 0  0.9375 0.3125000000000001 0  0.9375 0.2500000000000001 0  0.9375 0.4375 0  -0.3125 0.6875 0  -0.25 0.6875 0  -0.4375 0.5625 0  -0.5625 0.4375 0  -0.4375 0.5 0  -0.5 0.4375 0  -0.5625 0.5625 0  -0.5 0.5625 0  -0.5625 0.5 0  -0.8125 0.1875 0  0.8125 0.3125 0  0.75 0.3125 0  0.6875 0.25 0  0.6875 0.3125 0  0.8125 0.4375 0  0.6875 0.5625 0  0.6875 0.5 0  0.6875 0.4375 0  0.1875 0.6875 0  0.0625 0.75 0  0.0625 0.6875 0  -0.0625 0.6875 0  0 0.6875 0  -0.6875 0.0625 0  -0.6875 0 0  -0.6875 -0.06250000000000001 0  -0.8125 0.0625 0  -0.75 0.0625 0  -0.8125 -0.06250000000000001 0  -0.75 -0.06250000000000001 0  0.5625 0.5625 0  0.5625 0.5 0  0.5625 0.4375 0  0.4375 0.5625 0  0.5 0.4375 0  0.4375 0.5 0  0.4375 0.4375 0  0.5 0.5625 0  0.5625 0.25 0  0.5625 0.3125 0  0.5 0.3125 0  0.3125 0.5625 0  0.25 0.5625 0  0.3125 0.5 0  -0.0625 0.5625 0  0 0.5625 0  -0.0625 0.5 0  -0.6875 -0.1875000000000001 0  -0.8125 -0.1875000000000001 0  -0.75 -0.1875000000000001 0  0.3125 0.25 0  0.28125 0.21875 0  0.3125 0 0  0.28125 0.03125 0  -0.0625 0.25 0  0.0625 0.25 0  0.03125 0.21875 0  -0.03125 0.21875 
[...]
<CellData  Scalars="w"> 
<DataArray  type="Float64"  Name="w"  format="ascii">4.3720468146109257e-09   3.8325487126531928e-09   7.0728525812549223e-10   4.6107430515374970e-10   2.5932606508128563e-09   9.4581853631422987e-10   5.4333938316335170e-10   4.2659185350287998e-09   5.0065462616134250e-10   8.6627392633795302e-10   7.1932589770383634e-10   5.0787442989016335e-10   4.3721366721404171e-09   3.8325344480889902e-09   7.0729456633938285e-10   4.6108351246189030e-10   2.5932635479699984e-09   9.4585171378766288e-10   5.4335816946314695e-10   4.2662941488374649e-09   5.0066763423094806e-10   8.6626659376198388e-10   7.1937202573788966e-10   5.0788660443777316e-10   4.9756992605147637e-09   4.6919263767470981e-09   5.1893641146120086e-09   6.2671455955877087e-09   5.4436094461099658e-09   5.4437769449772516e-09   5.4353410425872763e-09   6.6705248560292597e-09   5.5840880409425341e-09   4.6360797213754429e-09   5.6443271584934153e-09   6.0726601568665008e-09   6.2468654150218404e-09   7.1234144836770995e-09   6.3499663065589109e-09   6.9409929824478662e-09   5.5843485478333956e-09   4.6368931938816629e-09   5.6444354155551601e-09   6.0730416977490282e-09   6.2462532924136138e-09   7.1223135436781380e-09   6.3491652669670088e-09   6.9390966879762634e-09   4.9777843267265992e-09   4.6927782743325383e-09   5.1908396060861676e-09   6.2670978653390923e-09   5.4484220475114130e-09   5.4561422436899520e-09   5.4396435018862422e-09   6.6711073358267988e-09   5.7150941305400761e-09   5.0383676190777238e-09   5.7135431305094723e-09   6.3525282498757352e-09   5.2918048160573361e-09   4.2195016559576202e-09   5.3440358279273359e-09   3.9805960653923014e-09   5.7149861046656096e-09   5.0383512982285097e-09   5.7134424616300205e-09   6.3525215147523605e-09   5.2919729348376578e-09   4.2195570941218190e-09   5.3441682263443546e-09   3.9809124028131449e-09   5.4375716630734022e-10   9.1960622659492884e-10   3.5820255870326483e-09   1.5505750015918363e-10   3.8151954692019948e-10   8.2498676710800044e-10   1.3483874722073672e-10   1.3934132163491100e-10   1.5903149902178847e-10   1.7845897192962290e-10   5.2769569748858315e-09   4.9521189757601738e-09   5.4010303672372946e-09   2.8164806314805849e-09   4.0607453887505234e-10   1.4931507373623601e-10   4.1269091716474292e-10   1.7481503318035248e-10   2.2835918705652483e-09   5.4227280950751537e-09   1.5092484589426587e-10   1.7882866600899077e-10   1.3919489906661986e-10   1.6943958820318219e-10   1.4498572417489392e-10   1.3743964589667184e-10   1.5767860492017462e-10   1.6084139917305285e-10   2.1435329903174253e-10   1.9521689973599791e-10   1.8418957967633338e-10   1.6847754190494905e-10   2.2494966651366824e-10   1.8520579055074470e-10   9.9970731706796579e-10   1.7180352237936855e-10   1.4781126903074840e-10   1.7316147273929621e-10   5.0629544322066975e-10   1.7790017657646775e-10   1.8816023915803680e-10   1.5962529548718808e-10   1.7103712943922342e-10   2.5881114289249868e-10   2.4858008481385200e-10   2.4051891637905658e-10   2.1128968597294146e-10   4.2347713850212920e-10   7.5131060281526088e-10   1.9760832712061579e-09   2.2942913134748746e-10   2.5469146614501064e-10   2.1806121087701290e-10   2.2014043395738868e-10   2.3019386370262778e-10   7.4799360548825726e-10   2.4700970306851806e-10   7.5962493600140540e-10   2.1793985086388267e-10   2.2270464586212119e-10   2.2198769453944338e-10   2.0779946141205407e-10   6.5446945832802426e-10   6.1757555485568128e-10   1.2333252685852308e-09   1.9612778719091077e-10   2.1518634740210573e-10   2.0238104884118606e-10   2.0276789787200598e-10   1.8957916581843962e-10   1.9873085892830108e-10   1.8725835654278844e-10   1.8176434280379768e-10   2.6943963775903997e-10   2.9700083185271747e-10   2.6763867492107106e-10   2.4981001728871234e-10   2.6446892111197261e-10   3.0638715338035292e-10   2.7844312350610254e-10   2.9587528461920384e-10   2.7250489107382871e-10   2.9153233989995691e-10   2.7163963467219932e-10   2.4522893698742710e-10   2.9875377846915655e-10   3.2200458027966967e-10   2.9567826221904627e-10   3.2239937065692237e-10   1.0512305026079314e-09   4.5154626295627443e-10   4.7229513662445529e-10   6.1044468781962916e-10   2.2829942746860401e-10   1.1015016227979138e-09   2.2734402408796501e-10   3.9873220275972201e-10   2.1780437093392842e-10   2.2653753048007413e-10   1.9728433156899491e-10   1.9746533157183222e-10   1.9300511703227765e-10   1.7754935484529057e-10   5.3081826988189712e-09   6.1766711464735114e-09   5.5263566164056490e-09   9.3422466094252576e-10   7.3501394178365587e-10   4.2734131946350528e-09   6.8226874734126716e-10   8.1381470995293125e-10   6.9393469103212585e-09   2.5966329403723390e-09   9.8063690178117389e-10   5.8367870370476722e-09   6.2114447244801824e-09   6.3159345246868165e-09   2.1206184624154363e-09   4.1764833072463907e-10   2.0271700496299478e-10   1.0375411352249281e-09   4.0815076469708049e-10   1.4862649960047603e-10   1.5266439687943687e-10   1.6526239231770463e-10   1.5745079078374889e-10   1.5913952815875226e-10   2.3216627174961781e-10   1.4988597829303840e-10   7.7443782085123551e-10   1.2263442421184953e-10   1.4525333740883745e-10   1.4256405360235993e-10   1.6374572702384880e-10   1.4699332416481011e-10   1.6531392500996709e-10   1.5942915776400850e-10   1.6214051868677738e-10   1.6287891609184376e-10   1.7212293225539686e-10   1.6481482154998829e-10   1.5802251961968117e-10   1.7410455021171993e-10   1.8160082040151265e-10   1.7074948026086887e-10   1.6414037563469569e-10   5.4335887560443279e-10   2.1067518267173850e-10   1.1145327214900306e-09   6.5474764952120502e-10   3.8068367062273634e-10   1.5771992893431757e-10   7.1615292959300974e-10   1.6852663376839586e-10   3.9901758957894547e-10   1.2373921456554264e-10   1.5056492196192131e-10   1.2956563670629273e-10   1.6444425509873735e-10   1.7838291839373427e-10   4.0153276320949381e-10   6.7460137832895648e-10   1.8299255579365071e-10   1.8442615458410055e-10   1.7667428905077018e-10   1.9233126701743669e-10   1.6833082721575473e-10   1.6769660522537047e-10   1.6198073477844493e-10   1.4753966262334497e-10   2.0072036174284477e-10   1.9015917891047560e-10   1.9765138127937102e-10   1.9985613585977406e-10   1.8350949599056362e-10   1.9406289186456405e-10   2.1091968009088138e-10   2.6548735217217387e-10   1.7040902626300782e-10   1.6865271251583908e-10   1.7574259037355576e-10   1.9153911480940684e-10   1.5640774743539293e-10   1.5200397694593078e-10   1.6175713779308732e-10   1.5479049585878990e-10   1.7894496889106101e-10   1.6313078700690371e-10   1.8371032474957219e-10   1.8540344722796744e-10   1.7611687377189944e-10   1.6235121493912392e-10   1.7123373618139670e-10   1.6768253166121683e-10   1.1186531157246398e-09   2.7360215531287460e-09   7.6483499567351626e-09   1.5534657489972093e-10   1.4570918310593418e-10   1.5155177104450612e-10   4.6237479603742209e-10   1.4909401668927442e-10   1.3940227918222733e-10   1.6147435805751941e-10   1.5693067264454758e-10   1.7348075451140996e-10   1.5849509903793457e-10   1.8741740514176747e-10   1.8100263039785296e-10   1.9728053567527264e-10   2.1442947583166149e-10   2.0248718958670085e-10   1.9577725523148613e-10   1.7247882124558009e-10   1.8532914076707771e-10   1.6089693149339555e-10   1.6752976518245038e-10   1.6793407044182828e-10   1.7864881111532939e-10   1.7152576398737082e-10   1.6769428710877990e-10   3.0189000554607636e-10   9.2064194958708327e-10   3.9864136223219895e-09   1.4007537164341731e-10   4.1208148987902221e-10   1.3428316397613860e-10   9.7576520185965241e-11   1.4128295249259495e-10   1.4632265993826389e-10   1.5119351522338983e-10   1.6151028672599716e-10   9.2833383646376978e-10   9.0084511446158680e-10   3.0556291182643513e-10   1.4211396441152136e-09   1.4914548617721144e-10   1.4558270631244152e-10   1.4728280008953085e-10   1.5676576442278204e-10   1.4526358701055282e-10   3.7245226856116758e-10   1.2574262514582357e-10   3.6746595724734669e-10   5.8286122998839541e-09   6.2380997248531640e-09   6.3015849037805529e-09   2.1009802612673187e-09   4.1397909553212358e-10   2.0055225820476545e-10   4.0722372692840964e-10   1.4822858485070754e-10   1.0347941007738564e-09   1.5728332238621375e-10   1.5885164470818954e-10   1.5248431998551021e-10   1.6529731078710219e-10   1.2183317900204915e-10   1.4460846083220718e-10   1.4153588609829049e-10   1.6197294222496186e-10   2.3146870146909849e-10   1.4945553507723784e-10   7.7185775907449657e-10   5.3937415901824006e-09   6.2059766218996591e-09   5.5424942622892905e-09   9.2307024974656972e-10   7.2170455415317470e-10   5.9184948151485955e-09   5.6380835390535533e-09   7.2269820666011923e-09   2.4323430437587056e-09   9.3857076227760549e-10   2.6782093055115144e-10   2.9511507177794234e-10   2.6560831678583136e-10   2.5256345205725367e-10   2.7972872643326948e-10   3.0742969292607026e-10   2.8726161084347668e-10   2.9939279313420870e-10   2.7290650623415010e-10   2.8936559463421456e-10   2.7204643611355261e-10   2.4818067096775686e-10   2.9912184663819822e-10   3.2253916269970011e-10   2.9604673112376378e-10   3.2268265825895038e-10   2.4727943213564421e-10   2.2525597892306488e-10   2.4126476814103891e-10   2.3074043774151307e-10   2.5687556225224232e-10   2.3271571216993216e-10   2.6063401348308363e-10   2.6952286915821735e-10   2.1410259489136427e-10   2.2240031698074517e-10   2.0937024809992348e-10   2.2916680072348056e-10   1.9611166402623164e-10   2.0262635566725540e-10   1.9399081733552304e-10   1.7784317913209067e-10   2.4122676916935266e-10   2.4239913121592160e-10   2.3334428745601076e-10   2.1158407020725645e-10   2.6645104000514137e-10   2.6855005014773687e-10   2.5669123805091015e-10   2.8608740511812213e-10   2.2906155859703373e-10   2.5171482634107560e-10   2.1959895188811735e-10   2.1932294832072116e-10   2.2771145753644621e-10   2.5074449278476035e-10   2.3612882191044601e-10   2.3283677378223944e-10   2.2266356166742238e-10   2.1818546240505631e-10   2.3042797201435550e-10   2.0968625374795010e-10   2.4613424593243629e-10   2.3990201644921661e-10   2.5202176408265740e-10   2.7885882319756439e-10   1.9451003749533498e-10   2.1381082879208608e-10   2.0073853798204063e-10   2.0378111706394570e-10   1.9047099797824413e-10   2.0828909001721765e-10   1.8715451871429879e-10   1.8231105852000887e-10   1.8280579410806257e-10   1.8245349192694605e-10   1.7646905249349780e-10   1.9308909776537044e-10   1.6808811787358545e-10   1.6843787839660694e-10   1.6174382686062332e-10   1.4642111348863033e-10   2.0729765282214341e-10   1.9045614529743018e-10   2.0012958212429406e-10   2.0025730805962872e-10   2.0548417870733356e-10   1.8850379513526918e-10   2.1619531414188576e-10   2.1283218123214432e-10   1.7011562680413531e-10   1.6836429024882705e-10   1.7565448236448881e-10   1.9197717696217997e-10   1.5575577815256294e-10   1.5152379989246542e-10   1.6132307040334890e-10   1.5368744255755776e-10   1.7868764338785343e-10   1.6279506410311883e-10   1.8333937836485107e-10   1.8550138119005668e-10   1.7608896755524099e-10   1.6214997545989101e-10   1.7121181093481430e-10   1.6779286600363020e-10   1.5327441757362596e-10   1.7041921722868600e-10   1.7107887255223176e-10   1.8305421770089557e-10   1.6416118329927686e-10   1.7320320075884548e-10   1.6715985678772460e-10   1.5825176788397981e-10   1.7796280340620195e-10   1.7977994196982771e-10   1.8069054013409820e-10   1.7496536657323556e-10   1.9130872937982789e-10   1.9471259379886003e-10   2.0276842708819631e-10   2.1978298491116680e-10   1.1124228368806870e-09   4.1991460892611118e-10   1.7095743046839291e-10   7.4261686069634425e-10   1.5754622679904750e-10   3.8598572618896771e-10   9.4318733708855551e-10   8.0267244303947205e-10   6.2318153022275087e-09   9.7830081668898518e-10   1.8812548924159067e-09   5.4910824496602529e-09   2.2121640774809076e-10   4.1339185405203039e-10   7.8955169363093257e-10   1.5644869716255309e-10   1.3954156184474660e-10   1.5251281323140229e-10   1.6121558180457432e-10   6.9223200219757042e-09   6.8841267663135308e-09   6.3349452693601400e-09   5.8645059177641300e-09   1.6247847231747504e-09   1.1636662734914124e-09   6.3761693018962335e-09   1.5036366708218992e-10   3.1365993536736223e-10   1.4957576296327774e-10   4.3395717208560788e-10   1.4974870932329728e-10   1.3116426977922543e-10   1.5181893012254987e-10   1.5774805254879865e-10   5.9326306521774734e-09   7.0951488738504149e-09   6.4058176935820068e-09   7.2343333789233586e-09   2.1810615922122030e-10   2.3608769324168676e-10   2.1982548202666460e-10   2.3294565043072883e-10   2.0461840414888336e-10   2.2010618650155764e-10   2.0455024871392231e-10   1.9127561230033295e-10   2.5259657259793872e-10   2.3618564554116252e-10   2.5491582375300909e-10   2.3365370976066041e-10   2.7494367888100081e-10   2.5527153978888027e-10   2.7506486820142548e-10   2.9840922243185387e-10   2.0286905042292605e-10   1.8765016000340448e-10   2.0327396152102775e-10   2.1439554221963465e-10   1.9134640174336382e-10   1.7753653054486453e-10   1.8996924137753383e-10   1.7851106292409321e-10   2.0127611214365608e-10   1.9040687971633524e-10   2.0186848242577776e-10   2.1741655471220160e-10   1.8382101227430905e-10   1.7556285256400416e-10   1.8776462257557884e-10   1.7245525201139484e-10   2.1830664630718245e-10   2.3625634733757361e-10   2.2010127518024275e-10   2.3388512928445209e-10   2.0463141893067026e-10   2.2012085782299398e-10   2.0456110326447581e-10   1.9128838239608712e-10   2.5299219220879687e-10   2.3634651359882165e-10   2.5530811034524040e-10   2.3449513235316437e-10   2.7513853928742263e-10   2.5527880962333038e-10   2.7524849663125096e-10   2.9840507201262790e-10   2.0271914400030026e-10   1.8694285064920630e-10   2.0317035237944936e-10   2.1464891456753390e-10   1.9123484459847032e-10   1.7724125606680254e-10   1.8982226784694190e-10   1.7844179887888511e-10   1.9915575339583028e-10   1.8965672703364296e-10   2.0030940299626058e-10   2.1806598711304976e-10   1.8296958507405298e-10   1.7499785470122045e-10   1.8673453684577451e-10   1.7206360055912610e-10   1.6232159405985446e-09   1.1627977438609112e-09   6.3726125758616926e-09   1.5018517732177884e-10   3.1343172365521392e-10   1.4941072725683215e-10   4.3356886281711487e-10   1.4955927859819971e-10   1.3102322426340931e-10   1.5160780778369290e-10   1.5760040279748645e-10   5.9299623383002677e-09   7.0929755454326022e-09   6.4032958974932800e-09   7.2332609849578726e-09   9.7770862310124072e-10   1.8783766503454501e-09   5.4886345082247566e-09   2.2106053520091870e-10   4.1292739652077504e-10   7.8862138578906752e-10   1.5625380089754049e-10   1.3937567813294632e-10   1.5234196829092678e-10   1.6108734571433559e-10   6.9204227774543239e-09   6.8832794781626462e-09   6.3303416365560188e-09   5.8708270510625767e-09   1.5069648671891004e-09   1.3423058037684967e-09   6.2476829903009762e-09   1.5436507891280295e-10   4.1028655436028627e-10   1.5461716310537795e-10   3.6894151820228969e-10   1.5684648022611852e-10   1.4321048806093802e-10   1.5669342451843642e-10   1.6707284790076388e-10   1.5355850748957924e-10   1.6604803419585939e-10   1.5361900763730622e-10   1.4293061893990558e-10   1.6120139945101018e-10   1.7473400225804496e-10   1.6429139327786323e-10   1.7079101244708458e-10   1.6764403404674958e-10   1.7720508328797878e-10   1.6655978755564082e-10   1.7846718460659505e-10   1.5601795896115982e-10   1.6377626110514180e-10   1.5539271397996860e-10   1.3961805013013291e-10   1.5064234891933975e-09   1.3416721192451500e-09   6.2472850031101614e-09   1.5427587197352322e-10   4.1026124437333883e-10   1.5452666541014193e-10   3.6865594443991583e-10   1.5678789661037581e-10   1.4321680445182969e-10   1.5663654974383424e-10   1.6708029796336868e-10   1.5332283084656816e-10   1.6571644236310714e-10   1.5338460537607674e-10   1.4277527002172127e-10   1.6089702842740637e-10   1.7416630858512334e-10   1.6395165258891213e-10   1.7053751074711039e-10   1.6749509293153950e-10   1.7687774490983832e-10   1.6640240108620613e-10   1.7839239031233656e-10   1.5585046187710987e-10   1.6346405189042003e-10   1.5521446621755815e-10   1.3946973284577960e-10   6.7011464417437737e-10   6.8634061668071208e-10   6.0466197447380132e-10   4.2342396464010649e-10   9.4326281566185299e-10   9.9196107487229436e-10   8.4378964616958470e-10   1.2682966795395162e-09   5.8340699082327496e-10   7.9356690596459439e-10   4.0561381755438563e-10   4.6856046285813976e-10   1.1710014039929587e-10   1.8754444487853076e-10   5.3638911357108244e-10   1.1122605725951962e-10   2.0722116824122674e-10   4.5906938170537872e-11   8.7872018701920204e-11   5.1067572374313465e-10   4.3867433252903715e-10   5.5357137896159657e-10   4.1304217548932714e-10   7.0353140409499855e-10   5.6391200823737854e-10   7.1376390635711702e-10   9.7257715365173490e-10   3.3824798217046634e-10   4.3511353935083420e-10   3.5742140136191284e-10   3.8505739758764976e-10   2.9055849498631532e-10   3.5951344877054972e-10   2.8906617518558059e-10   2.4422926717500222e-10   1.7161236818287151e-09   1.1044510853553696e-09   2.4199784778516023e-09   2.0721071090037209e-09   1.8149121510513308e-09   1.1981533030603601e-09   1.5408012386880006e-09   1.3054036666878684e-09   1.0262221174260023e-09   1.2555326407216426e-09   1.6506285338781106e-09   2.1097191493317102e-09   7.8432623454017267e-10   9.1695116504699827e-10   7.9154825227748691e-10   2.3082387403548107e-10   1.3062618186394161e-10   3.3163348898544194e-09   1.1570033059480182e-09   8.5305744627563600e-10   3.5770011236714039e-09   2.9663451624468401e-09   2.9763425449307593e-09   3.3581504573170811e-09   2.7631583266878278e-09   1.9452377343065374e-09   1.7403313280564542e-10   4.1710014591365207e-10   2.6256936067138166e-10   1.8701675928011359e-10   1.7663998698202479e-10   1.9426636647586341e-10   1.4774835673446508e-10   3.7365256626759974e-10   1.0785368381009665e-09   1.1780288638960143e-09   4.1248134219412898e-09   3.2809962132231748e-10   7.5240440595789271e-10   4.2819375634198032e-10   3.5451150839278296e-10   2.7677017860372703e-10   4.8085741183010875e-10   2.5881982615452968e-10   1.8110355631118396e-10   9.5947135870720940e-10   9.3473204253523447e-10   9.0384786507357455e-10   6.2494625566222691e-10   3.8188905556213679e-10   5.0112458004507096e-10   1.3097261402379891e-09   9.4854599539802519e-11   2.4403479977377925e-10   9.2942751481187399e-11   6.9655141869394587e-11   3.7026736286370151e-11   5.0430596094352165e-11   1.2396487003457081e-10   9.3970341188308102e-12   2.3981926448172981e-11   9.3111573314470955e-12   6.9048397538378876e-12   3.6693703435829852e-12   5.0135164285283896e-12   1.2235100923025696e-11   9.3414915427286661e-13   2.3815124921985739e-12   9.2626848874848372e-13   6.8592767424210642e-13   3.6513486720141900e-13   4.9890553334114731e-13   1.2165571845921584e-12   9.3108305134042793e-14   2.3724896656085635e-13   9.2212793180517213e-14   6.8250578744848471e-14   3.6467656352700557e-14   4.9828762207385886e-14   1.2132960624777286e-13   9.3247066240130836e-15   2.3684148743561626e-14   9.2972865997158254e-15   6.8498111231713721e-15   3.5765879320707476e-15   5.0046482026650373e-15   1.2056912837577313e-14   8.3543895105440678e-16   2.2909248741195836e-15   1.1199203566638264e-15   7.5227324145236462e-16   3.0866573769438002e-15   1.8794294578655762e-15   3.3572280637828833e-08   6.9255427943991355e-07   2.8480245604966352e-10   2.6265772150236284e-10   2.7281614470153146e-10   3.2989569895277347e-10   2.1910842352235702e-10   2.1344681373664578e-10   1.9858316703151519e-10   1.7386126589535374e-10   4.0252309149902863e-10   3.2436168541484686e-10   3.5977716182381025e-10   3.6694243564358588e-10   3.3913774468375460e-10   2.9160491043321171e-10   3.2757816005626430e-10   4.1740752446645309e-10   1.0621216873396556e-09   3.8264284603122373e-10   3.1657055845265075e-10   8.5661966481935703e-10   4.9596741466671855e-10   2.4505342722337448e-10   2.7700288975379199e-10   5.8750760070426099e-10