<?xml version="1.0"?>
<VTKFile type="UnstructuredGrid"  version="0.1"  >
<UnstructuredGrid>
<Piece  NumberOfPoints="538" NumberOfCells="1006">
<Points>
<DataArray  type="Float64"  NumberOfComponents="3"  format="ascii">-1 1 0  -0.75 1 0  -1 0.75 0  -0.5 1 0  -0.75 0.75 0  -1 0.5 0  -0.25 1 0  -0.5 0.75 0  -0.75 0.5 0  -1 0.25 0  1 1 0  1 1.110223024625157e-16 0  1 0.2500000000000001 0  1 0.5 0  1 0.75 0  0.75 1 0  0.5 1 0  0.25 1 0  0 1 0  -0.25 0.75 0  -0.5 0.5 0  -0.75 0.25 0  -1 0 0  0.75 0.75 0  0.75 0 0  0.75 0.25 0  0.75 0.5 0  0.5 0.75 0  0.25 0.75 0  0 0.75 0  -0.25 0.5 0  -0.5 0.25 0  -0.75 0 0  -1 -0.2500000000000001 0  0.5 0.5 0  0.5 0 0  0.5 0.25 0  0.25 0.5 0  0 0.5 0  -0.25 0.25 0  -0.5 0 0  -0.75 -0.2500000000000001 0  -1 -0.5 0  0.25 0.25 0  0.25 0 0  0 0.25 0  -1 -0.75 0  -0.25 0 0  -0.5 -0.25 0  -0.75 -0.5 0  -0.9999999999999999 -1 0  0 0 0  -0.75 -0.75 0  -0.25 -0.25 0  -0.5 -0.5 0  -0.7499999999999999 -1 0  0 -0.25 0  -0.5 -0.75 0  -0.25 -0.5 0  -0.4999999999999999 -0.9999999999999999 0  0 -0.5 0  -0.25 -0.75 0  -0.2499999999999999 -0.9999999999999999 0  0 -0.75 0  0 -0.9999999999999999 0  0.375 0.375 0  0.375 0.25 0  0.375 0.125 0  0.25 0.375 0  0.125 0.375 0  -0.125 0.375 0  -0.375 0.125 0  -0.125 0.25 0  -0.25 0.125 0  0.25 0.125 0  0.125 0.25 0  0.125 0.125 0  0.125 0 0  -0.125 0.125 0  0 0.125 0  -0.375 -0.125 0  -0.125 0 0  -0.25 -0.125 0  -0.375 -0.25 0  -0.125 -0.125 0  0 -0.125 0  -0.375 -0.375 0  -0.125 -0.25 0  -0.125 -0.375 0  0.1875 0.0625 0  0.0625 0.1875 0  -0.0625 0.1875 0  -0.1875 0.0625 0  -0.1875 0 0  -0.1875 -0.0625 0  0.0625 0.0625 0  0.0625 0 0  -0.0625 0.0625 0  0 0.0625 0  -0.0625 0 0  -0.0625 -0.0625 0  0 -0.0625 0  -0.625 -0.625 0  -0.5 -0.625 0  -0.375 -0.5 0  -0.0625 -0.1875 0  -0.375 -0.625 0  -0.375 -0.75 0  -0.125 -0.5 0  -0.25 -0.625 0  -0.3749999999999999 -0.875 0  -0.3749999999999999 -0.9999999999999999 0  -0.125 -0.625 0  0 -0.625 0  -0.2499999999999999 -0.875 0  -0.125 -0.75 0  -0.1249999999999999 -0.875 0  -0.1249999999999999 -0.9999999999999999 0  0 -0.875 0  0.125 0.0625 0  0.0625 0.125 0  -0.0625 0.125 0  -0.125 0.0625 0  -0.125 -0.0625 0  -0.0625 -0.125 0  -0.375 0.875 0  -0.625 0.625 0  -0.375 0.75 0  -0.5 0.625 0  -0.875 0.375 0  -0.625 0.5 0  -0.75 0.375 0  -0.125 0.875 0  -0.375 0.625 0  -0.125 0.75 0  -0.25 0.625 0  -0.625 0.375 0  -0.375 0.5 0  -0.5 0.375 0  -0.875 0.125 0  -0.625 0.25 0  -0.75 0.125 0  0.625 0.125 0  0.625 0.25 0  0.625 0.375 0  0.125 0.625 0  -0.125 0.625 0  0 0.625 0  -0.375 0.375 0  -0.125 0.5 0  -0.25 0.375 0  -0.625 0.125 0  -0.375 0.25 0  -0.5 0.125 0  -0.625 0 0  0.5 0.125 0  -0.625 -0.125 0  0.03125 0.03125 0  0.03125 0 0  -0.03125 0.03125 0  0 0.03125 0  -0.03125 0 0  -0.03125 -0.03125 0  0 -0.03125 0  0.09375 0.03125 0  0.03125 0.09375 0  -0.03125 0.09375 0  0 0.09375 0  -0.09375 0.03125 0  -0.09375 0 0  -0.09375 -0.03125 0  -0.03125 -0.09375 0  0.0625 0.03125 0  0.03125 0.0625 0  -0.03125 0.0625 0  -0.0625 0.03125 0  -0.0625 -0.03125 0  -0.03125 -0.0625 0  -0.875 0.875 0  -0.625 1 0  -0.75 0.875 0  -0.875 0.75 0  -0.625 0.875 0  -0.875 0.625 0  0.875 0.875 0  1 0.1250000000000001 0  0.875 5.551115123125783e-17 0  1 0.3750000000000001 0  0.875 0.1250000000000001 0  0.875 0.2500000000000001 0  1 0.625 0  0.875 0.375 0  0.875 0.5 0  0.875 0.75 0  0.875 0.625 0  0.75 0.875 0  0.625 0.875 0  0.5 0.875 0  0.375 0.875 0  0.25 0.875 0  0.125 0.875 0  0.75 0.625 0  0.625 0.75 0  0.625 0.625 0  0.75 0.125 0  0.75 0.375 0  0.375 0.75 0  0.5 0.625 0  0.375 0.625 0  0.125 0.75 0  0.25 0.625 0  -0.875 -0.125 0  -0.75 -0.125 0  -0.875 -0.2500000000000001 0  0.5 0.375 0  0.375 0.5 0  0.4375 0.4375 0  0.125 0.5 0  0.3125 0.4375 0  0 0.375 0  0.0625 0.4375 0  -0.0625 0.4375 0  -0.375 0 0  -0.5 -0.125 0  -0.4375 0.0625 0  -0.4375 -0.0625 0  -0.875 -0.375 0  -0.625 -0.25 0  -0.75 -0.375 0  -0.875 -0.5 0  0.0625 0.3125 0  -0.0625 0.3125 0  -0.875 -0.625 0  -0.3125 0.0625 0  -0.3125 -0.0625 0  -0.625 -0.375 0  -0.5 -0.375 0  -0.625 -0.5 0  0.015625 0.015625 0  0.015625 0 0  -0.015625 0.015625 0  0 0.015625 0  -0.015625 0 0  -0.015625 -0.015625 0  0 -0.015625 0  0.046875 0.015625 0  0.015625 0.046875 0  -0.015625 0.046875 0  0 0.046875 0  -0.046875 0.015625 0  -0.046875 0 0  -0.046875 -0.015625 0  -0.015625 -0.046875 0  0.03125 0.015625 0  0.015625 0.03125 0  -0.015625 0.03125 0  -0.03125 0.015625 0  -0.03125 -0.015625 0  -0.015625 -0.03125 0  0.625 0 0  0.6875 0.0625 0  0.625 0.5 0  0.6875 0.4375 0  -0.1875 0.4375 0  -0.4375 0.1875 0  0.5625 0.4375 0  0.375 0 0  0.4375 0.0625 0  0.5625 0.0625 0  0.5 0.0625 0  0.4375 0.1875 0  0.5625 0.1875 0  -0.1875 0.3125 0  -0.3125 0.1875 0  -0.1875 0.25 0  -0.25 0.1875 0  -0.1875 0.1875 0  -0.3125 0.3125 0  -0.25 0.3125 0  -0.3125 0.25 0  0.3125 0.3125 0  0.3125 0.25 0  0.3125 0.1875 0  0.1875 0.3125 0  0.25 0.1875 0  0.1875 0.25 0  0.1875 0.1875 0  0.3125 0.0625 0  0.25 0.0625 0  -1 -0.875 0  -0.875 -0.75 0  -0.4375 -0.3125 0  -0.75 -0.625 0  -0.875 -0.875 0  -0.8749999999999999 -1 0  0.0078125 0.0078125 0  0.0078125 0 0  -0.0078125 0.0078125 0  0 0.0078125 0  -0.0078125 0 0  -0.0078125 -0.0078125 0  0 -0.0078125 0  -0.75 -0.875 0  -0.625 -0.75 0  -0.6875 -0.6875 0  -0.25 -0.375 0  -0.3125 -0.1875 0  -0.25 -0.1875 0  -0.3125 -0.25 0  -0.1875 -0.1875 0  -0.3125 -0.3125 0  -0.1875 -0.25 0  -0.1875 -0.3125 0  -0.625 -0.875 0  -0.6249999999999999 -1 0  0 -0.375 0  -0.0625 -0.25 0  -0.0625 -0.3125 0  -0.4999999999999999 -0.875 0  -0.5625 -0.6875 0  -0.4375 -0.8125 0  -0.3125 -0.4375 0  -0.1875 -0.4375 0  -0.1875 -0.5 0  -0.1875 -0.5625 0  -0.4374999999999999 -0.9375 0  -0.0625 -0.4375 0  -0.0625 -0.5 0  -0.0625 -0.5625 0  0.375 0.1875 0  0.3125 0.125 0  0.4375 0.125 0  0.125 0.3125 0  -0.125 0.3125 0  -0.1875 0.375 0  -0.3125 0.125 0  -0.375 0.1875 0  -0.125 0.1875 0  -0.1875 0.125 0  0.1875 0.125 0  0.21875 0.09375 0  0.125 0.1875 0  0.15625 0.09375 0  -0.3125 -0.125 0  -0.1875 -0.125 0  -0.375 -0.3125 0  -0.125 -0.1875 0  -0.09375 -0.15625 0  -0.125 -0.3125 0  -0.09375 -0.21875 0  -0.125 -0.4375 0  0.5625 0.125 0  0.0234375 0.0078125 0  0.0078125 0.0234375 0  -0.0078125 0.0234375 0  0 0.0234375 0  -0.0234375 0.0078125 0  -0.0234375 0 0  -0.0234375 -0.0078125 0  -0.0078125 -0.0234375 0  0.015625 0.0078125 0  0.0078125 0.015625 0  -0.0078125 0.015625 0  -0.015625 0.0078125 0  -0.015625 -0.0078125 0  -0.0078125 -0.015625 0  -1 0.625 0  -0.9375 0.6875 0  -0.375 1 0  -0.5 0.875 0  -0.4375 0.9375 0  -0.5625 0.9375 0  -0.625 0.75 0  -0.75 0.625 0  -0.6875 0.6875 0  -0.6875 0.8125 0  -0.8125 0.6875 0  -0.875 0.5 0  -1 0.375 0  -0.9375 0.4375 0  -0.9375 0.5625 0  -0.125 1 0  -0.25 0.875 0  -0.3125 0.9375 0  -0.1875 0.9375 0  -0.4375 0.8125 0  -0.5625 0.6875 0  -0.5625 0.8125 0  -0.6875 0.5625 0  -0.8125 0.4375 0  -0.8125 0.5625 0  -0.875 0.25 0  -1 0.125 0  -0.9375 0.3125 0  -0.9375 0.1875 0  0.125 1 0  0 0.875 0  -0.0625 0.9375 0  0.0625 0.9375 0  -0.3125 0.8125 0  -0.1875 0.8125 0  -0.3125 0.6875 0  -0.1875 0.75 0  -0.1875 0.6875 0  -0.4375 0.5625 0  -0.5625 0.4375 0  -0.4375 0.5 0  -0.5 0.4375 0  -0.4375 0.4375 0  -0.8125 0.3125 0  -0.6875 0.3125 0  -0.8125 0.1875 0  -0.75 0.1875 0  -0.6875 0.1875 0  -0.875 0 0  -1 -0.125 0  -0.9375 0.0625 0  -0.9375 -0.06250000000000001 0  0.1875 0.8125 0  -0.0625 0.8125 0  0.0625 0.6875 0  -0.0625 0.6875 0  0.0625 0.8125 0  0.0625 0.75 0  -0.3125 0.5625 0  -0.25 0.5625 0  -0.3125 0.5 0  -0.1875 0.5625 0  -0.3125 0.4375 0  -0.25 0.4375 0  -0.5625 0.3125 0  -0.5 0.3125 0  -0.5625 0.25 0  -0.4375 0.3125 0  -0.5625 0.1875 0  -0.4375 0.25 0  -0.8125 0.0625 0  -0.6875 0.0625 0  -0.6875 -0.06250000000000001 0  -0.8125 -0.06250000000000001 0  -0.75 -0.06250000000000001 0  0.4375 0.3125 0  0.4375 0.25 0  0.25 0.4375 0  0.1875 0.4375 0  0.1875 0.5625 0  0.1875 0.5 0  0.0625 0.5625 0  -0.0625 0.5625 0  0 0.5625 0  -0.0625 0.5 0  0.0625 0.5 0  -0.5625 0.0625 0  -0.5 0.0625 0  -0.5625 0 0  -0.5625 -0.06250000000000001 0  -0.5 -0.0625 0  -0.8125 -0.1875000000000001 0  0.1875 0 0  0.21875 0.03125 0  -0.0625 0.25 0  0.0625 0.25 0  0 0.1875 0  0.03125 0.21875 0  -0.03125 0.21875 0  0 0.3125 0  0.03125 0.28125 0  -0.03125 0.28125 0  -0.25 0.0625 0  -0.25 -0.0625 0  -0.21875 0.03125 0  -0.21875 -0.03125 0  -0.3125 0 0  -0.28125 0.03125 0  -0.4375 -0.1875 0  -0.4375 -0.25 0  -0.5625 -0.1875 0  -0.5 -0.1875 0  0.00390625 0.00390625 0  0.00390625 0 0  -0.00390625 0.00390625 0  0 0.00390625 0  -0.00390625 0 0  -0.00390625 -0.00390625 0  0 -0.00390625 0  0 -0.1875 0  -0.03125 -0.21875 0  0.375 0.3125 0  0.1875 0.375 0  0.125 0.4375 0  -0.09375 0.21875 0  -0.21875 0.09375 0  0.09375 0.21875 0  0.09375 0.28125 0  0.09375 0.15625 0  0.15625 0.03125 0  0.03125 0.15625 0  -0.03125 0.15625 0  0.03125 0.125 0  -0.375 -0.1875 0  -0.4375 -0.125 0  -0.21875 -0.09375 0  -0.03125 -0.15625 0  0.0625 0.15625 0  -0.125 0.8125 0  -0.3125 0.625 0  -0.625 0.3125 0  -0.375 0.4375 0  -0.4375 0.375 0  -0.8125 0.125 0  0.125 0.5625 0  -0.0625 0.625 0  -0.125 0.5625 0  -0.3125 0.375 0  -0.375 0.3125 0  -0.5625 0.125 0  -0.625 0.0625 0  -0.5625 -0.125 0  0.125 0.8125 0  -0.8125 -0.125 0  -0.03125 0.34375 0  -0.0625 0.375 0  -0.34375 0.03125 0  -0.375 0.0625 0  0.01171875 0.00390625 0  0.00390625 0.01171875 0  -0.00390625 0.01171875 0  0 0.01171875 0  -0.01171875 0.00390625 0  -0.01171875 0 0  -0.01171875 -0.00390625 0  -0.00390625 -0.01171875 0  0.0078125 0.00390625 0  0.00390625 0.0078125 0  -0.00390625 0.0078125 0  -0.0078125 0.00390625 0  -0.0078125 -0.00390625 0  -0.00390625 -0.0078125 0  </DataArray>
</Points>
<Cells>
[...]
<CellData  Scalars="w"> 
<DataArray  type="Float64"  Name="w"  format="ascii">1.4644876497388835e-06   1.5330431908942205e-06   5.3393745630020072e-08   3.1903408256355212e-08   5.0894509759616479e-08   4.2061562358303310e-08   7.5631181835022833e-08   4.9827734946464890e-08   7.1732461038015912e-08   4.4744836272032210e-08   3.0196363521695567e-07   7.3534278108769358e-08   8.3016507030779185e-08   2.6523380460017142e-07   4.4752854444846951e-08   6.3400101973414307e-08   3.0001271458772413e-07   5.4081331744725965e-07   2.9317114655357272e-07   5.8462943027722775e-07   7.4102078330082204e-08   2.0104150042564981e-08   6.3147618836400984e-08   9.4980080168960011e-08   7.9328569984662772e-08   1.0512674557751888e-07   6.8039365562644380e-08   9.6554461916488428e-08   5.9012629697574751e-07   1.4026586860696114e-07   1.1903844980460684e-07   5.5640964097844091e-07   1.6471651060072326e-07   2.4824746395909543e-07   6.7767482538949438e-08   2.8909343216635619e-08   6.7248874621716666e-08   6.7437241107014736e-08   9.7625231645633665e-08   7.5281111663708233e-08   5.9188554899245671e-08   6.8364637319635966e-08   5.5484716253217819e-08   4.9632363434980301e-08   1.2251150350599064e-07   9.2647172192343353e-08   5.5783992226163232e-08   8.1567942116685281e-08   1.2184333146039875e-07   1.8365665677147677e-07   7.9395734148752399e-08   1.0527083311142609e-07   6.8146396380021835e-08   9.6682145748630789e-08   7.4121748245673826e-08   2.0121672249161092e-08   6.3140572666299309e-08   9.5012297468539500e-08   9.8238151510307017e-08   7.6773788813984046e-08   5.8870405544166646e-08   6.9223430238852394e-08   6.8016908651673827e-08   2.9361553268599605e-08   6.7557238074468427e-08   6.7883643189240120e-08   5.5413018636106626e-07   1.6472052848925122e-07   2.4770787619193106e-07   5.8834496848809184e-07   1.4025525129620556e-07   1.1891715087998010e-07   5.5934018260396724e-08   8.1673711486613008e-08   1.2208773031325470e-07   1.8341178659768267e-07   5.5637934419290173e-08   4.9753950504957541e-08   1.2272573678052157e-07   9.2896670663765625e-08   5.1953652585798184e-08   4.0705237106085496e-08   7.6291042098473984e-08   5.7148405343168407e-08   4.3884663328662079e-08   6.4457511376650002e-08   5.4006586190568294e-08   5.6704312071611298e-08   5.9113084244314711e-07   1.4371952025442953e-07   1.1353009517868095e-07   5.9089731936108342e-07   1.4334869404018014e-07   1.1324730326979438e-07   4.5938050871068970e-08   6.8096772918408084e-08   5.2870832002729964e-08   5.6279851567296730e-08   6.2328353034192137e-08   4.0839283434467094e-08   7.5359624000802425e-08   5.6999557213336341e-08   8.4250584531214414e-08   5.9591128305301123e-08   1.0859717597533490e-07   7.5336485773982145e-08   8.4398677176831157e-08   5.9872366087081220e-08   1.0776768991548782e-07   7.5183414343568751e-08   3.9121675744946042e-07   5.1355336591608410e-07   1.3751122009576192e-06   9.7759003648629541e-08   2.5127633018413764e-07   9.6104894799446304e-08   7.1776234675608006e-08   3.7955309885209027e-08   5.1962724607279165e-08   1.2645753083232120e-07   9.6638015212725320e-09   2.4633034494111168e-08   9.5785074290744996e-09   7.0954972494401597e-09   3.7800479287282244e-09   5.1650633802654482e-09   1.2571704955094641e-08   9.6393613918311329e-10   2.4505694562852744e-09   9.6300158943806802e-10   7.1014553470283489e-10   3.6841066522125079e-10   5.1526988464768002e-10   1.2472504676019087e-09   8.5710717837827888e-11   2.3648487220085503e-10   1.1361315623540026e-10   7.6758159274743483e-11   3.1540266822625342e-10   1.9516976343526692e-10   5.5046711957425828e-07   1.0786089748811169e-05   9.4943719454117252e-07   9.2482291601583013e-07   9.2821713394300725e-07   2.2646210165455530e-07   7.2352112083321183e-08   3.8894156477170440e-07   2.6577501214265035e-07   1.4088040322704553e-06   9.6499682174872025e-08   2.4479029631731800e-07   9.1742996013280208e-08   6.6728534210303344e-08   3.7821468320226247e-08   5.1281862322251036e-08   1.2627985950875476e-07   9.6297511556000360e-09   2.4533205366754759e-08   9.5401810492716943e-09   7.0576732596953421e-09   3.7769148022092528e-09   5.1565664641324091e-09   1.2570078009707622e-08   9.6377150414449223e-10   2.4498831410607195e-09   9.6286190512026858e-10   7.0967898165424767e-10   3.6830574738999519e-10   5.1535448631457219e-10   1.2473262384750659e-09   8.5724422881996549e-11   2.3653465401839450e-10   1.1362956666348350e-10   7.6755760594333868e-11   3.1538493994643027e-10   1.9520735152609630e-10   5.5078778776120272e-07   1.0787321703835922e-05   2.7763247905420606e-07   1.6012090653091216e-07   8.9245888936615326e-07   6.3114022281069956e-08   5.6579231167443562e-08   2.0847002432617478e-07   1.2277556789914252e-07   1.4594130670953017e-07   1.0418461999028959e-07   1.7428620399847656e-07   6.5756030652111819e-08   3.9682498041124149e-08   1.8986768086698999e-07   1.2599741029502673e-07   1.6038669992933859e-07   1.2955104127236282e-07   1.0012990678694938e-07   2.2032860824376766e-07   4.4633932292759217e-07   2.9444710877475434e-08   4.9330517269157320e-08   2.9552280391851267e-08   3.2254355969378554e-08   4.4733452714189514e-08   2.7441240698256118e-08   9.4564179417013259e-08   1.0064450361592487e-07   2.1956046037143500e-07   4.4427778963000784e-07   3.0637947784095407e-08   9.8996074732907128e-08   2.5122716685487143e-08   3.4162838786191022e-08   4.4009617943582086e-08   2.8040653147345690e-08   9.3969623872224577e-08   1.4539784601802109e-07   1.0403415647827363e-07   1.7189060045481232e-07   6.4444636602752426e-08   3.9009222267988857e-08   1.8835504132283434e-07   1.2548540779277430e-07   1.5932513579049770e-07   1.2933662428132818e-07   2.2595730112126142e-07   1.8247757337477133e-07   2.8772799544610195e-07   5.3036558566732805e-07   7.7326837983790869e-08   6.8986138594467049e-08   3.4134938228992784e-08   5.5138643493931716e-08   7.0946022789659219e-07   8.1409582319044096e-08   9.2718452274062349e-08   2.2838670379715189e-07   1.8231054653039985e-07   2.8898159593563413e-07   5.2814392669235887e-07   9.7908477596110252e-08   7.1795251315802536e-08   3.5402416973090397e-08   5.8100497061898356e-08   5.9924472773415972e-07   8.5554096643857051e-08   9.4777122597046772e-08   1.1962999558080638e-08   1.1350328840545371e-08   1.1080050575996624e-07   1.6991578010547283e-08   3.1083248595204713e-08   1.5416850566993211e-08   4.2414565212579313e-08   6.3380002600976463e-08   6.0812850731940733e-08   1.6687097065322539e-07   1.2520274959884242e-07   1.0665794319035989e-07   6.9086109506968289e-08   3.2406548754902572e-08   1.3980733159550515e-07   4.5270751046005184e-08   6.1327341696121822e-08   2.3802003839628921e-08   3.8044306760453724e-08   2.6139083312233106e-08   3.8240108481688584e-08   2.6201133872605097e-08   5.9552910716534533e-08   1.0789950519257541e-07   3.8310685136030620e-08   3.2670002673371468e-08   5.7694701588752738e-08   4.7731789394278348e-08   9.5647492588683803e-08   4.2032541003743375e-08   1.8864565217410054e-07   2.6641025659789321e-08   3.1227734657601706e-08   3.4919860906334464e-08   3.6435405111367688e-08   2.1553761958542508e-08   6.0706275130034413e-08   1.2757139176114678e-07   8.6979506443298303e-08   1.5105403235561348e-07   6.8795226614909128e-08   4.5459769938951302e-08   1.4676245650084369e-07   4.8340007840808890e-08   1.9889127629605384e-08   1.5892886133211572e-07   1.5697358063069448e-07   1.5150910859342462e-07   6.3360164312241192e-08   6.0809237842460622e-08   1.6686330824948930e-07   1.2518143134671490e-07   1.1959644214136854e-08   1.1342753098424324e-08   1.1068317472560493e-07   1.6981290719243014e-08   3.1064752445782820e-08   1.5403575880180163e-08   4.2379206267929079e-08   2.6617466815030377e-08   3.1186272912870958e-08   3.4872832226516003e-08   3.6366034737601552e-08   2.1532201515809126e-08   6.0655716495512315e-08   1.2741160618816723e-07   3.8240653285702615e-08   3.2624331139301104e-08   5.7513864990684340e-08   4.7588631282740413e-08   9.5494878514990000e-08   4.1985423559000155e-08   1.8840565632120124e-07   2.3798017945829677e-08   3.8045484556939862e-08   2.6130138644679728e-08   3.8213929973727862e-08   2.6226792282930988e-08   5.9602011474668648e-08   1.0790744666314267e-07   1.0668502704405439e-07   6.9096733815029142e-08   3.2393012957173549e-08   1.3989175254231726e-07   4.5279398324633800e-08   6.1407887133269719e-08   4.8312268596114798e-08   1.9889075576217166e-08   1.5877843825230710e-07   1.5689438316955960e-07   1.5138621198288764e-07   8.6938335124225830e-08   1.5095343765484494e-07   6.8742201454679288e-08   4.5409770167268043e-08   1.4659258536903997e-07   9.7271426650301070e-08   1.0759288434359990e-07   8.5856757029039073e-08   1.2731765215410326e-07   6.7298209724711624e-08   7.4043227243893277e-08   5.8732048527304613e-08   1.4184240589372516e-07   3.3930498944225535e-07   7.9627947324145106e-08   1.4686141832728103e-07   3.6001282180551348e-07   3.6938515358392031e-07   3.0248136366277790e-08   2.3608612840219972e-08   3.0070632000736972e-08   3.6289886553962287e-08   3.5410774707597692e-08   3.8782241881446166e-08   3.3464156957761797e-08   4.3351469001948695e-08   3.0244203244415378e-08   2.3604278979612364e-08   3.0067782868771947e-08   3.6286218552581526e-08   3.5420709660530308e-08   3.8815632827805620e-08   3.3475992736304756e-08   4.3366042485190490e-08   3.3813309746838988e-07   7.9298555544154679e-08   1.4631022832027851e-07   3.5914722357330151e-07   3.6866793473359057e-07   9.7074585991801708e-08   1.0730841677482738e-07   8.5675987459879901e-08   1.2698541179145827e-07   6.7200007594562090e-08   7.3834681709183186e-08   5.8625561015848430e-08   1.4162796810807076e-07   7.0385128282698403e-08   5.6294479509481376e-08   7.1398904168961777e-08   9.7207259060342169e-08   5.0594151149801398e-08   4.3746662398355088e-08   5.4779620672464694e-08   4.1555013548093955e-08   7.0441741095951141e-08   5.6284567172701443e-08   7.1432065737929623e-08   9.7172618694153251e-08   5.0643955014125011e-08   4.3755233945675283e-08   5.4827983629299910e-08   4.1582761324818000e-08   1.9036909034962255e-07   1.8196236076137452e-07   1.3974988576178294e-08   8.2226323857149609e-08   1.1238578212861608e-07   1.0756114310369460e-07   1.2282050748791874e-07   4.8365102194752982e-07   8.7398947043860249e-07   5.8398916847998904e-07   6.2679237023038421e-07   4.1254317551273990e-07   3.9314632313807761e-08   1.7663323211223641e-08   1.1065401962384071e-07   1.8103803561965950e-07   6.4564975738755096e-08   3.7521936484560215e-08   1.9238442845150964e-07   1.3512555910124617e-07   2.5237023564582899e-07   4.2123469967111079e-07   1.3989912208399572e-08   2.6188655647975192e-08   2.3310144547292646e-07   1.5752396598326880e-08   2.5498950151574431e-08   1.8567001452427767e-08   4.2299974634253056e-08   1.1830799916531428e-07   9.1066677716057351e-08   4.7190077446020273e-07   3.0888498480880600e-07   9.5145215767827540e-07   7.9941931333606434e-07   1.9420261326075161e-07   9.2960955654210043e-08   5.1136612760380758e-07   5.5314991805146664e-07   5.4878662097068621e-07   4.0334811340731528e-07   3.1576584646880838e-07   4.5194106664892905e-07   3.7944966177710277e-07   5.9248609854028443e-07   1.0671631278433225e-07   6.6508314561415717e-08   9.2640616956303439e-08   6.9112617442355762e-08   3.0685002326478086e-07   1.1838429242358929e-07   1.0539117106013535e-07   1.6582522838191260e-07   1.8829783767515535e-07   2.9052868788080806e-07   4.2781166281682940e-07   4.6231339685398566e-07   5.8430152989071687e-08   1.4054680069193318e-07   1.0635860628203263e-06   1.2823634418146801e-06   6.2739875905981108e-08   1.0624296941111395e-07   1.1034111389848972e-07   1.8335760563307144e-07   6.2993812708040463e-09   1.0675905920171505e-08   1.0962636203650112e-08   1.8121203671842459e-08   6.3012420971524538e-10   1.0624685820722661e-09   1.1006653118640665e-09   1.8090189690757241e-09   6.5688527504214163e-11   1.0875478372384844e-10   1.4549400277094141e-10   1.9013949001984797e-10   9.8291419134776045e-07   4.7234432107936040e-06   1.5118854315758539e-10   1.8609807414013985e-10   4.4612775227584404e-10   4.5384252539785318e-10   1.3536569285735422e-09   4.5107925788869369e-09   4.4697979452860323e-09   1.3755494857749659e-08   4.5572377047787697e-08   4.4877421570423232e-08   1.3874612190446539e-07   4.5542777599975608e-07   4.3247448423125897e-07   1.3456878465440940e-06   6.2523188156407840e-08   6.7273639297697946e-08   4.7463850547594035e-08   4.4421755975179593e-08   6.9399267823725182e-08   7.4813179662360849e-08   4.5905392918364569e-08   4.4727912868554473e-08   6.4442950908551658e-07   7.1836300145197521e-07   1.0095348858668925e-07   1.8011485080067868e-07   9.6862683010700657e-07   1.1850214907351339e-06   3.6093450509820693e-07   5.8381934144783001e-07   5.0358875956349806e-08   4.7497431850179456e-08   5.0006171351459688e-08   1.1869199970173810e-07   8.7020876803793155e-08   2.3184407639936222e-07   5.6388931448154436e-08   1.1910217566949507e-07   7.3526397097113204e-08   7.0248915897651112e-08   8.1433108905397997e-08   9.3755636590178847e-08   6.8669461185081883e-08   6.7643162432518446e-08   4.6925544054525125e-08   4.5196655237981884e-08   1.5112110485197467e-07   1.4480334523595462e-07   1.4353301861288261e-07   1.4604051418170637e-07   1.5395544756701284e-07   2.2219545824712144e-07   1.8986739566025177e-07   1.9671031065210788e-07   5.4429806959737645e-07   7.7222245755399262e-07   7.2210160670589750e-07   7.1284542935751008e-07   9.0690055306980912e-07   7.8203915146490941e-07   1.5092361231090059e-06   1.3395728075425009e-06   3.6774971491327936e-07   4.2805897541348006e-07   9.8027298403338919e-07   4.0744549728963361e-08   5.1499627256391435e-08   7.0269754877204540e-08   3.8390951180566550e-08   3.6133174245330804e-08   3.9801518073185420e-08   4.2244739352335688e-08   5.2667558014561532e-08   7.3779689675514958e-07   7.7417806609915769e-07   1.2822512890971269e-06   1.1082095291059697e-06   5.4375624509674681e-07   8.3865630551513803e-07   5.5252347127079635e-07   5.3251188638723774e-07   1.2694858600872726e-06   1.0805336982283367e-06   1.3408204399509108e-06   3.8697203314761624e-07   2.2121950626173564e-07   4.9105780420186275e-07   6.1286677415407334e-07   4.2298578534838445e-07   4.3614815330106528e-08   3.9361498952012031e-08   8.1106671974019756e-07   8.7983509801085417e-07   8.3215731928764902e-07   5.9252024383608780e-07   7.0889755497772338e-08   2.5112974917758320e-07   3.1517523634445195e-08   7.8972343233137746e-08   6.8468792393065205e-08   8.9098397449842157e-08   4.8261739299086254e-08   5.7279011143919593e-08   2.2836839902815213e-07   3.5737670740713857e-07   2.1947728900788663e-07   1.6451390099913671e-07   1.4289413548732388e-07   1.4697512194845937e-07   6.1255197560288791e-08   1.5236374211163764e-07   8.5796042482637087e-08   6.2076713772301942e-08   9.3548057526358297e-08   7.3034610877793961e-08   7.2794315869469430e-07   3.7836969550414863e-07   9.2001036285536403e-07   1.8869864417951359e-07   1.0920911132376490e-07   3.7895375964111402e-07   7.2054678334685021e-08   3.6643895698019824e-08   1.1977673122537639e-07   1.8757238767647504e-08   1.1054679122289292e-08   3.8894770335189239e-08   7.1138034475610557e-09   3.6007661433962823e-09   1.1896162556734108e-08   1.8413022414374324e-09   1.0803665031474044e-09   3.8197998946669610e-09   6.7462612513191937e-10   3.5535008628553368e-10   1.1586705136755118e-09   2.2130184052557705e-10   8.8105777769731373e-11   3.9962223795049021e-10   3.2101087269114952e-10   9.0793759629655216e-11   1.8535576942170323e-07   1.8218479749467372e-06   6.9490739178196296e-07   2.7706350068441359e-07   1.5327184527879873e-06   3.1078134713644149e-07   5.1232775669501504e-07   5.8008568628386448e-07   5.6739712631698314e-07   6.6715099417512612e-08   1.5979904289068776e-07   5.9433046984973608e-08   1.2940548331545383e-07   5.1771736057046528e-08   1.9938642275596720e-07   5.1649397803562865e-08   1.4293518796387351e-07   4.3171234810172007e-07   8.2819440019802972e-07   5.0584408226247245e-07   7.7877998805839371e-07   4.8262451238545380e-07   9.0712635530823440e-07   3.0456207797517573e-07   7.1251525373276377e-07   2.0834907602514668e-07   1.4243065729879621e-07   1.3887651136544274e-07   1.4684756716920336e-07   2.0881960927335627e-07   4.6703018423548490e-07   1.7507693395912984e-07   2.8606289881495294e-07   3.2744694202339691e-07   2.6725464240150830e-07   4.0594024966229739e-07   3.0929836822014450e-07   3.2109035593466702e-07   4.5110747903682559e-07   2.8738003258181886e-07   2.1503298167302448e-07   1.8234962812184179e-07   3.1004244172868053e-07   5.6070808119821203e-07   1.3323757483284444e-07   1.2076494912346070e-07   6.2324870439137060e-08   1.0817642561924956e-07   4.8863795290970269e-07   3.9510801681639386e-07   5.8698937909739329e-07   5.0750227599660860e-07   4.7015654492234829e-07   2.3171593624277128e-07   1.1182633501908238e-06   9.9163864957273832e-08   5.4015629817920970e-08   2.4029485909953583e-07   6.7666268514656674e-08   9.0999501272560681e-08   2.1684093252279230e-07   1.5119266488827883e-06   1.2570362962359763e-06   1.1200813648502625e-06   9.5397680862661214e-07   7.8054050102374402e-08   2.0929083758327497e-07   8.3515779669242389e-07   6.5563285352981583e-08   4.7909134479007950e-08   7.8237167961729637e-08   2.1840457550213558e-07   1.2042551635835931e-06   1.3877361770410164e-06   1.0933285306526932e-06   4.8392067435757206e-07   1.8187943195143406e-07   1.3954051792477701e-08   1.9032037700745301e-07   8.2200854706874732e-08   1.1234704673829589e-07   1.0758559115279901e-07   1.2279393175945177e-07   4.1184515206177201e-07   3.9217077227688532e-08   1.7649969729799729e-08   6.2533263853404187e-07   1.8183310802477527e-07   1.1077384657960996e-07   1.9363430328002678e-07   6.4829899204660322e-08   3.7549898720449170e-08   4.8070437987695408e-07   8.7431518622610408e-07   5.8199471840902988e-07   2.5144311694779096e-07   1.3475040530168299e-07   4.2022778835599759e-07   1.3986286856136858e-08   2.6135470515840841e-08   2.3306661887552112e-07   1.5736452026656555e-08   2.5467544646566613e-08   1.8556252508597616e-08   4.2258222930188665e-08   7.4023023072481845e-08   4.7096689924802706e-08   5.0581392253200813e-08   7.5735100121956679e-08   4.8347559021903993e-08   9.8140246006631431e-08   6.7712839999860181e-08   1.0641485122837279e-07   1.8145394051051922e-07   1.9622323834139032e-07   2.8902949891926381e-07   3.3541547436199310e-07   1.7035076327155916e-08   2.2214020531075685e-08   2.9020843404093702e-08   5.5430773829865296e-08   2.7216643060835574e-08   1.6884834202363327e-08   4.1950154487380719e-07   7.8549204870976527e-08   9.5716578683147306e-08   1.2789458714426806e-07   1.2441012983125763e-07   4.3639741365604301e-07   3.5821281880884904e-08   3.5971803212645278e-08   1.0642446918486393e-06   1.1309055095675700e-07   1.8010558622709905e-07   5.4893208090804613e-08   5.2848972544762798e-08   4.6760355051188392e-08   4.6129796792653668e-08   1.4184498268905175e-07   1.0984903890357370e-08   1.8277286212518115e-08   6.2680755635808899e-09   1.0525033589781028e-08   4.5180220507690578e-09   4.4841611510653134e-09   1.3797274125141371e-08   1.1015096041127103e-09   1.8125597001881225e-09   6.3025501522886462e-10   1.0612474202852056e-09   4.4635399387847955e-10   4.5434303394250307e-10   1.3550346617696968e-09   1.4555248133230736e-10   1.9031957775210322e-10   6.5720955633240436e-11   1.0875690678336141e-10   1.5125405755944187e-10   1.8622880066080395e-10   9.8329093671047908e-07   4.7260532141525856e-06   4.6950649131525545e-07   3.1555709874476432e-07   6.8594440310269607e-07   3.8278236581107899e-07   3.6052193299472148e-07   9.2631721939016767e-08   5.0633730504343906e-08   4.5999574042424566e-07   5.3455944385461419e-07   6.9922972354607724e-08   7.4728433597845795e-08   4.6274824329939959e-08   4.5003684635863765e-08   6.3726169716470020e-08   6.8263452663104063e-08   4.2519924019600490e-08