<?xml version="1.0"?>
<VTKFile type="UnstructuredGrid"  version="0.1"  >
<UnstructuredGrid>
<Piece  NumberOfPoints="4149" NumberOfCells="8074">
<Points>
<DataArray  type="Float64"  NumberOfComponents="3"  format="ascii">-1 1 0  -0.75 1 0  -1 0.75 0  -0.5 1 0  -0.75 0.75 0  -1 0.5 0  -0.25 1 0  -0.5 0.75 0  -0.75 0.5 0  -1 0.25 0  1 1 0  1 1.110223024625157e-16 0  1 0.2500000000000001 0  1 0.5 0  1 0.75 0  0.75 1 0  0.5 1 0  0.25 1 0  0 1 0  -0.25 0.75 0  -0.5 0.5 0  -0.75 0.25 0  -1 0 0  0.75 0.75 0  0.75 0 0  0.75 0.25 0  0.75 0.5 0  0.5 0.75 0  0.25 0.75 0  0 0.75 0  -0.25 0.5 0  -0.5 0.25 0  -0.75 0 0  -1 -0.2500000000000001 0  0.5 0.5 0  0.5 0 0  0.5 0.25 0  0.25 0.5 0  0 0.5 0  -0.25 0.25 0  -0.5 0 0  -0.75 -0.2500000000000001 0  -1 -0.5 0  0.25 0.25 0  0.25 0 0  0 0.25 0  -1 -0.75 0  -0.25 0 0  -0.5 -0.25 0  -0.75 -0.5 0  -0.9999999999999999 -1 0  0 0 0  -0.75 -0.75 0  -0.25 -0.25 0  -0.5 -0.5 0  -0.7499999999999999 -1 0  0 -0.25 0  -0.5 -0.75 0  -0.25 -0.5 0  -0.4999999999999999 -0.9999999999999999 0  0 -0.5 0  -0.25 -0.75 0  -0.2499999999999999 -0.9999999999999999 0  0 -0.75 0  0 -0.9999999999999999 0  0.375 0.125 0  0.125 0.375 0  -0.125 0.375 0  -0.375 0.125 0  -0.125 0.25 0  -0.25 0.125 0  0.25 0.125 0  0.125 0.25 0  0.125 0.125 0  0.125 0 0  -0.125 0.125 0  0 0.125 0  -0.375 -0.125 0  -0.125 0 0  -0.25 -0.125 0  -0.125 -0.125 0  -0.125 -0.375 0  -0.375 -0.625 0  -0.125 -0.5 0  -0.25 -0.625 0  -0.3749999999999999 -0.875 0  -0.125 -0.625 0  0 -0.625 0  -0.2499999999999999 -0.875 0  -0.125 -0.75 0  -0.1249999999999999 -0.875 0  -0.1249999999999999 -0.9999999999999999 0  0 -0.875 0  -0.375 0.625 0  -0.625 0.375 0  -0.375 0.5 0  -0.5 0.375 0  -0.375 0.375 0  -0.25 0.375 0  -0.375 0.25 0  0.1875 0.0625 0  0.1875 0 0  0.0625 0.1875 0  -0.0625 0.1875 0  0 0.1875 0  -0.1875 0.0625 0  -0.1875 0 0  -0.1875 -0.0625 0  0 -0.125 0  0.0625 0.0625 0  0.0625 0 0  -0.0625 0.0625 0  0 0.0625 0  -0.0625 0 0  -0.0625 -0.0625 0  -0.125 -0.25 0  -0.1875 -0.1875 0  -0.0625 -0.1875 0  0.125 0.0625 0  0.0625 0.125 0  -0.0625 0.125 0  -0.125 0.0625 0  -0.125 -0.0625 0  0.875 0.375 0  0.125 0.875 0  0.625 0.625 0  0.75 0.375 0  0.625 0.125 0  0.625 0.25 0  0.625 0.5 0  0.625 0.375 0  0.375 0.625 0  0.125 0.75 0  0.25 0.625 0  0.125 0.625 0  -0.125 0.625 0  0 0.625 0  -0.125 0.5 0  -0.625 0.125 0  -0.5 0.125 0  -0.625 0 0  0.5 0.375 0  0.375 0.5 0  0.375 0.375 0  0.5 0.125 0  0.125 0.5 0  0.25 0.375 0  -0.625 -0.125 0  -0.5 -0.125 0  -0.625 -0.25 0  -0.625 -0.375 0  -0.375 -0.25 0  -0.5 -0.375 0  0 -0.0625 0  0.03125 0.03125 0  0.03125 0 0  -0.03125 0.03125 0  0 0.03125 0  -0.03125 0 0  -0.03125 -0.03125 0  -0.375 -0.375 0  0.09375 0.03125 0  0.03125 0.09375 0  -0.03125 0.09375 0  0 0.09375 0  -0.09375 0.03125 0  -0.09375 0 0  -0.09375 -0.03125 0  -0.03125 -0.09375 0  0.0625 0.03125 0  0.03125 0.0625 0  -0.03125 0.0625 0  -0.0625 0.03125 0  -0.0625 -0.03125 0  -0.0625 -0.125 0  -0.875 0.875 0  -0.625 1 0  -0.75 0.875 0  -0.875 0.75 0  -1 0.625 0  -0.625 0.875 0  -0.375 1 0  -0.5 0.875 0  -0.875 0.625 0  -0.625 0.75 0  -0.75 0.625 0  -0.875 0.5 0  -1 0.375 0  -0.375 0.875 0  -0.125 1 0  -0.25 0.875 0  -0.625 0.625 0  -0.375 0.75 0  -0.5 0.625 0  -0.875 0.375 0  -0.625 0.5 0  -0.75 0.375 0  -0.875 0.25 0  -1 0.125 0  0.875 0.1250000000000001 0  0.875 0.2500000000000001 0  -0.125 0.875 0  -0.875 0.125 0  -0.75 0.125 0  -0.875 0 0  -1 -0.125 0  0.75 0.125 0  -0.875 -0.125 0  -0.75 -0.125 0  -0.875 -0.2500000000000001 0  0 0.375 0  -0.0625 0.4375 0  -0.375 0 0  -0.4375 0.0625 0  -0.875 -0.375 0  -0.0625 0.3125 0  -0.875 -0.625 0  -0.3125 0.0625 0  -0.75 -0.625 0  -0.625 -0.5 0  0 -0.03125 0  0.015625 0.015625 0  0.015625 0 0  -0.015625 0.015625 0  0 0.015625 0  -0.015625 0 0  -0.015625 -0.015625 0  -0.625 -0.625 0  0.046875 0.015625 0  0.015625 0.046875 0  -0.015625 0.046875 0  0 0.046875 0  -0.046875 0.015625 0  -0.046875 0 0  -0.046875 -0.015625 0  -0.015625 -0.046875 0  0.03125 0.015625 0  0.015625 0.03125 0  -0.015625 0.03125 0  -0.03125 0.015625 0  -0.03125 -0.015625 0  -0.03125 -0.0625 0  1 0.875 0  0.875 0.875 0  1 0.625 0  0.875 0.5 0  0.875 0.75 0  0.875 0.625 0  0.625 1 0  0.75 0.875 0  0.625 0.875 0  0.5 0.875 0  0.375 0.875 0  -0.125 0.75 0  -0.25 0.625 0  -0.1875 0.6875 0  0.75 0.625 0  0.625 0.75 0  0.6875 0.6875 0  0.375 0.75 0  0.5 0.625 0  0.5625 0.6875 0  0.4375 0.6875 0  0.3125 0.6875 0  -0.1875 0.5625 0  0.375 0 0  0.4375 0.0625 0  0.375 0.25 0  0.4375 0.1875 0  0.5625 0.1875 0  0.4375 0.3125 0  0.5 0.1875 0  -0.1875 0.3125 0  -0.3125 0.1875 0  -0.1875 0.25 0  -0.25 0.1875 0  -0.1875 0.1875 0  0.3125 0.1875 0  0.1875 0.3125 0  0.25 0.1875 0  0.1875 0.25 0  0.1875 0.1875 0  0.3125 0.3125 0  0.3125 0.0625 0  0.25 0.0625 0  0.0625 0.3125 0  -0.4375 -0.3125 0  -0.875 -0.875 0  -0.8749999999999999 -1 0  0 -0.015625 0  0.0078125 0.0078125 0  0.0078125 0 0  -0.0078125 0.0078125 0  0 0.0078125 0  -0.0078125 0 0  -0.0078125 -0.0078125 0  -0.75 -0.875 0  -0.625 -0.75 0  -0.25 -0.375 0  -0.3125 -0.1875 0  -0.1875 -0.3125 0  -0.3125 -0.25 0  -0.3125 -0.3125 0  -0.5 -0.625 0  -0.375 -0.5 0  -0.4375 -0.5625 0  -0.4375 -0.4375 0  -0.625 -0.875 0  -0.6249999999999999 -1 0  0 -0.375 0  -0.0625 -0.3125 0  -0.0625 -0.25 0  -0.4999999999999999 -0.875 0  -0.375 -0.75 0  -0.4375 -0.8125 0  -0.1875 -0.4375 0  -0.3125 -0.5625 0  -0.1875 -0.5 0  -0.1875 -0.5625 0  -0.3125 -0.4375 0  -0.3749999999999999 -0.9999999999999999 0  -0.4374999999999999 -0.9375 0  -0.0625 -0.4375 0  0.3125 0.125 0  0.4375 0.125 0  0.125 0.3125 0  -0.125 0.1875 0  -0.1875 0.125 0  0.1875 0.125 0  0.125 0.1875 0  -0.125 -0.4375 0  -0.125 -0.3125 0  -0.375 -0.3125 0  0 -0.046875 0  0.0234375 0.0078125 0  0.0078125 0.0234375 0  -0.0078125 0.0234375 0  0 0.0234375 0  -0.0234375 0.0078125 0  -0.0234375 0 0  -0.0234375 -0.0078125 0  -0.0078125 -0.0234375 0  -0.0078125 -0.0390625 0  0.015625 0.0078125 0  0.0078125 0.015625 0  -0.0078125 0.015625 0  -0.015625 0.0078125 0  -0.015625 -0.0078125 0  -0.015625 -0.03125 0  -0.6875 0.4375 0  1 0.1250000000000001 0  0.875 5.551115123125783e-17 0  0.9375 0.06250000000000008 0  0.9375 0.1875000000000001 0  0.375 1 0  0.125 1 0  0.25 0.875 0  0.1875 0.9375 0  0.3125 0.9375 0  0 0.875 0  0.0625 0.9375 0  -0.0625 0.9375 0  -0.4375 0.4375 0  -0.625 0.25 0  -0.6875 0.3125 0  -0.6875 0.1875 0  -0.8125 0.3125 0  -0.75 0.3125 0  0.625 0 0  0.6875 0.0625 0  0.8125 0.06250000000000003 0  0.75 0.0625 0  0.6875 0.1875 0  0.1875 0.8125 0  0.3125 0.8125 0  0.0625 0.8125 0  -0.0625 0.8125 0  -0.1875 0.4375 0  -0.3125 0.5625 0  -0.3125 0.5 0  -0.3125 0.4375 0  -0.25 0.4375 0  -0.1875 0.5 0  -0.4375 0.1875 0  -0.5625 0.3125 0  -0.5 0.3125 0  -0.4375 0.3125 0  -0.4375 0.25 0  -0.5625 0.1875 0  -0.5 0.1875 0  -1 -0.375 0  0.5625 0.0625 0  0.5 0.0625 0  0.1875 0.4375 0  0.1875 0.5625 0  0.3125 0.4375 0  0.1875 0.5 0  0.25 0.4375 0  0.0625 0.4375 0  0.0625 0.5625 0  0.0625 0.5 0  0 0.4375 0  -0.3125 0.3125 0  -0.25 0.3125 0  -0.3125 0.25 0  -0.4375 -0.0625 0  -0.5625 0.0625 0  -0.5625 -0.06250000000000001 0  -0.5 -0.0625 0  -0.4375 0 0  -0.75 -0.375 0  -0.6875 -0.3125 0  -0.8125 -0.3125 0  -1 -0.625 0  -0.875 -0.5 0  -0.9375 -0.4375 0  -0.9375 -0.5625 0  -0.875 -0.75 0  -0.9375 -0.6875 0  -0.25 0.0625 0  -0.3125 -0.0625 0  -0.25 -0.0625 0  -0.21875 -0.03125 0  -0.3125 0 0  -0.28125 0.03125 0  -0.4375 -0.1875 0  -0.5625 -0.1875 0  -0.5 -0.1875 0  -0.6875 -0.4375 0  -0.8125 -0.4375 0  -0.8125 -0.5625 0  0 -0.0078125 0  0.00390625 0.00390625 0  0.00390625 0 0  -0.00390625 0.00390625 0  0 0.00390625 0  -0.00390625 0 0  -0.00390625 -0.00390625 0  -0.8125 -0.6875 0  -0.25 -0.1875 0  -0.1875 -0.25 0  -0.21875 -0.21875 0  0 -0.1875 0  -0.03125 -0.21875 0  0.125 0.4375 0  0.1875 0.375 0  0.0625 0.375 0  -0.1875 0.375 0  -0.125 0.4375 0  -0.375 0.1875 0  -0.4375 0.125 0  -0.3125 -0.125 0  -0.4375 -0.125 0  -0.375 -0.1875 0  -0.375 -0.0625 0  -0.34375 -0.15625 0  -0.1875 -0.125 0  -0.21875 -0.09375 0  -0.21875 -0.15625 0  -0.28125 -0.15625 0  -0.15625 -0.09375 0  -0.15625 -0.15625 0  -0.09375 -0.15625 0  -0.6875 0.375 0  -0.375 0.4375 0  -0.4375 0.375 0  -0.3125 0.375 0  -0.375 0.3125 0  -0.03125 -0.15625 0  -0.15625 -0.21875 0  -0.09375 -0.21875 0  -0.125 -0.1875 0  0.5625 0.125 0  0.6875 0.125 0  0.125 0.5625 0  -0.5625 0.125 0  0.3125 0.375 0  -0.5625 -0.125 0  -0.34375 0.03125 0  -0.375 0.0625 0  0 -0.0234375 0  0.01171875 0.00390625 0  0.01171875 0 0  0.00390625 0.01171875 0  -0.00390625 0.01171875 0  0 0.01171875 0  -0.01171875 0.00390625 0  -0.01171875 0 0  -0.01171875 -0.00390625 0  -0.00390625 -0.01171875 0  -0.00390625 -0.01953125 0  0.0078125 0.00390625 0  0.00390625 0.0078125 0  -0.00390625 0.0078125 0  -0.0078125 0.00390625 0  -0.0078125 -0.00390625 0  -0.0078125 -0.015625 0  -0.875 1 0  -1 0.875 0  -0.9375 0.9375 0  -0.8125 0.9375 0  -0.9375 0.8125 0  -0.4375 0.6875 0  -0.4375 0.8125 0  -0.5625 0.6875 0  -0.4375 0.75 0  -0.5 0.6875 0  -0.6875 0.5625 0  1 0.3750000000000001 0  0.9375 0.3125000000000001 0  0.9375 0.2500000000000001 0  0.9375 0.4375 0  -0.3125 0.6875 0  -0.25 0.6875 0  -0.4375 0.5625 0  -0.5625 0.4375 0  -0.4375 0.5 0  -0.5 0.4375 0  -0.5625 0.5625 0  -0.5 0.5625 0  -0.5625 0.5 0  -0.8125 0.1875 0  0.8125 0.3125 0  0.75 0.3125 0  0.6875 0.25 0  0.6875 0.3125 0  0.8125 0.4375 0  0.6875 0.5625 0  0.6875 0.5 0  0.6875 0.4375 0  0.1875 0.6875 0  0.0625 0.75 0  0.0625 0.6875 0  -0.0625 0.6875 0  0 0.6875 0  -0.6875 0.0625 0  -0.6875 0 0  -0.6875 -0.06250000000000001 0  -0.8125 0.0625 0  -0.75 0.0625 0  -0.8125 -0.06250000000000001 0  -0.75 -0.06250000000000001 0  0.5625 0.5625 0  0.5625 0.5 0  0.5625 0.4375 0  0.4375 0.5625 0  0.5 0.4375 0  0.4375 0.5 0  0.4375 0.4375 0  0.5 0.5625 0  0.5625 0.25 0  0.5625 0.3125 0  0.5 0.3125 0  0.3125 0.5625 0  0.25 0.5625 0  0.3125 0.5 0  -0.0625 0.5625 0  0 0.5625 0  -0.0625 0.5 0  -0.6875 -0.1875000000000001 0  -0.8125 -0.1875000000000001 0  -0.75 -0.1875000000000001 0  0.3125 0.25 0  0.28125 0.21875 0  0.3125 0 0  0.28125 0.03125 0  -0.0625 0.25 0  0.0625 0.25 0  0.03125 0.21875 0  -0.03125 0.21875 
[...]
<CellData  Scalars="w"> 
<DataArray  type="Float64"  Name="w"  format="ascii">6.8071432648560876e-11   7.2126279360508696e-11   6.7593998744796064e-11   7.2649024908217127e-11   6.3781895467958471e-11   5.7426209437396834e-11   6.3774276270590130e-11   6.9146605492072686e-11   5.4776041915664241e-10   4.2724044856130203e-10   2.7913629374185062e-09   1.2784157889815611e-10   7.0105284175928232e-11   3.8294718990746517e-10   6.6966699972894568e-11   7.2271867888320735e-11   6.6562762312791039e-11   6.7167044050271862e-11   4.4769858933094069e-10   1.5582154231941828e-10   1.4625231953826670e-10   6.9574095485675662e-11   1.3640552410748550e-10   2.8433241593288633e-10   6.8069542473409563e-11   7.2122835790834303e-11   6.7591936567164066e-11   7.2647819581170265e-11   6.3781187517770401e-11   5.7426274251797026e-11   6.3773589074239900e-11   6.9146691634404799e-11   5.4775284503649413e-10   4.2722980790466942e-10   2.7913597515954826e-09   1.2783296497264189e-10   7.0101422122156032e-11   3.8292986467508021e-10   6.6961077405605702e-11   7.2266102071357729e-11   6.6556980721537708e-11   6.7159412606949333e-11   4.4768338700581086e-10   1.5582067205326602e-10   1.4625020980518549e-10   6.9570291228906303e-11   1.3639947553269920e-10   2.8432443300350655e-10   7.5150619693193996e-11   7.6333516116087817e-11   7.5724070993374647e-11   8.4292233379835925e-11   7.1788370914492312e-11   7.0235792352814693e-11   7.3769625030600840e-11   8.3041272382887704e-11   8.8425306115255265e-11   8.5304480830962075e-11   8.9980491141731027e-11   7.9583583779238767e-11   9.3769672453422304e-11   9.0976364530522858e-11   9.4491850340328428e-11   1.0103824616129884e-10   8.0579382035494436e-11   7.9970734268794970e-11   8.5596820113611906e-11   9.7029151125907430e-11   8.4474891232643106e-11   8.4440225773627210e-11   8.6882774274905321e-11   9.6664468602028124e-11   9.2217854403891944e-11   9.5136789178016475e-11   9.0533144237658505e-11   8.1261716946121243e-11   9.8854737935155394e-11   1.0115675538842777e-10   9.6852993424130251e-11   1.0404716513242911e-10   8.2473678720760264e-11   8.7561996501008648e-11   8.3428599759812298e-11   8.6441204241856946e-11   7.8177959340047526e-11   7.0410855191669937e-11   7.8733496666248809e-11   8.1868484818058931e-11   9.2322260205605276e-11   8.6799055002374297e-11   9.1190697521965396e-11   8.7759322765847715e-11   9.5626589918896188e-11   8.9534850669099478e-11   9.6101950303195736e-11   9.9326999464472720e-11   9.8011718219427884e-11   9.2341350777397825e-11   9.8107741340614357e-11   1.0262251206550484e-10   1.0359666235380303e-10   1.0983375572702671e-10   1.0408216160744195e-10   1.0922574629509655e-10   9.7314923623418410e-11   1.0356603516903532e-10   9.7066229743094196e-11   9.3132037000227176e-11   1.0119480486082327e-10   1.0802999006017380e-10   1.0255150178273989e-10   1.0634640977883373e-10   8.2463795512938283e-11   8.7552115288018742e-11   8.3418653001062164e-11   8.6428364612373031e-11   7.8167760881436138e-11   7.0401419261656106e-11   7.8723682182404447e-11   8.1856081825261045e-11   9.2309360649106884e-11   8.6786664036573356e-11   9.1177844203090377e-11   8.7749873698062105e-11   9.5610051592342282e-11   8.9519451263579995e-11   9.6085949909173762e-11   9.9307241134901288e-11   9.8003035115822215e-11   9.2331903424471194e-11   9.8099519705543486e-11   1.0260933521923427e-10   1.0358915437637757e-10   1.0982915396210392e-10   1.0407548072786471e-10   1.0921300187261073e-10   9.7302267391407958e-11   1.0355324326083299e-10   9.7053002274093603e-11   9.3122865909653586e-11   1.0117765755554120e-10   1.0801156862941384e-10   1.0253427415513916e-10   1.0632456649556926e-10   7.5136578704341061e-11   7.6317574694461987e-11   7.5710388546397844e-11   8.4277072314060324e-11   7.1776482249858972e-11   7.0226099184748505e-11   7.3758081663334664e-11   8.3028574832558192e-11   8.8408055024257682e-11   8.5289728632997775e-11   8.9962729316827517e-11   7.9567899116082118e-11   9.3750953532890650e-11   9.0960641567478590e-11   9.4473514907843696e-11   1.0101801147951448e-10   8.0561549899062078e-11   7.9953306611634975e-11   8.5578560404644050e-11   9.7007292109940314e-11   8.4458003098944362e-11   8.4427542685707049e-11   8.6865576250926258e-11   9.6642816566224257e-11   9.2198294056223181e-11   9.5115727379191224e-11   9.0513534838138381e-11   8.1244597078896661e-11   9.8832733974673925e-11   1.0113203256769842e-10   9.6831792419396433e-11   1.0402316189763868e-10   8.3956808719633051e-11   8.8631288841880299e-11   8.4304165299613519e-11   8.8287829740128080e-11   8.0006819986945439e-11   8.4264729965667434e-11   7.9993863668987323e-11   7.6201536890489708e-11   9.3106412342745504e-11   8.8645716098682538e-11   9.3513514219009478e-11   8.8362006798940576e-11   9.8481853445907783e-11   9.3496494521565041e-11   9.8499545030438629e-11   1.0408648526646872e-10   7.9771497956559613e-11   7.5540642941991964e-11   7.9825958861850159e-11   8.3412202305363395e-11   7.6148926100939096e-11   7.2078802663132439e-11   7.5843312536093861e-11   7.2664991754792748e-11   7.9377077601163799e-11   7.6123274984147111e-11   7.9508604222118985e-11   8.4080751876652730e-11   7.5647676030923005e-11   7.2413354357177463e-11   7.6453474242440505e-11   6.8356008352103457e-11   8.3953048289445056e-11   8.8629131345918871e-11   8.4300749771617891e-11   8.8281556457056732e-11   8.0005314191622579e-11   8.4264936143071829e-11   7.9992274968463236e-11   7.6201658976240271e-11   9.3101219961768152e-11   8.8643677841460826e-11   9.3508867077712553e-11   8.8356052564348666e-11   9.8478809703410827e-11   9.3496820475440307e-11   9.8496681813356278e-11   1.0408699283337801e-10   7.9766828535237856e-11   7.5535365897491234e-11   7.9821510947037708e-11   8.3405176523562166e-11   7.6146356726347276e-11   7.2075485747584250e-11   7.5840537157968129e-11   7.2663849351745156e-11   7.9369527317299799e-11   7.6118065079014508e-11   7.9501370585038144e-11   8.4073889703033510e-11   7.5639952426846452e-11   7.2407828700326958e-11   7.6445626467945508e-11   6.8348640714566582e-11   2.9101852217134003e-10   1.3230235555318308e-10   3.2222134800780432e-10   7.9830412307674019e-11   9.4441010072423321e-11   1.1695174834282073e-10   1.3085960548369319e-10   1.2452343118441924e-10   1.3756754573934232e-10   1.3634918065693174e-10   1.1318836333318059e-10   1.3750668165790964e-10   1.4367864417668953e-10   1.5328098043368602e-10   1.6567230398414434e-10   7.7149790948289323e-11   8.7876619879351531e-11   1.1616182985943667e-10   1.2444566196650018e-10   8.4285091846678142e-11   7.6614001954640663e-11   1.1471777575114940e-10   1.2601750266228925e-10   1.4075394231285120e-10   1.3901430325339637e-10   1.2847973820017799e-10   1.2878529527721858e-10   1.4960026703276601e-10   4.2770370362365154e-10   1.4942240909637580e-10   1.2125654170237404e-10   1.3295089379846910e-10   1.4744499348388524e-10   1.3668348231195751e-10   1.3965092509728568e-10   1.2443641862335840e-10   1.2321094733962479e-10   1.3140571801200240e-10   1.2780783478712256e-10   1.5609195902362306e-10   1.4633142737027417e-10   1.5394104102613975e-10   1.6047453450751042e-10   1.4956114037825916e-10   1.4294864380825816e-10   1.6050244061968060e-10   1.6030602040896031e-10   2.2303835885436134e-10   1.9697922101004612e-10   1.8548021469218703e-10   1.6541274066236000e-10   2.6951239619914704e-10   1.8215376810975592e-10   9.7784273994280523e-10   1.7361045465475063e-10   1.4757884150592325e-10   1.7128191998741969e-10   4.9713439412191868e-10   1.7867901334709924e-10   1.8533548793593890e-10   1.6529574190407907e-10   1.7182623082579358e-10   2.6249479838718508e-10   2.5396534214916518e-10   2.4584092565447650e-10   2.1225928625786271e-10   4.2199624588293063e-10   2.4895932686836994e-10   1.2620719901373458e-09   2.3124802150203059e-10   2.6782681555912816e-10   2.1519062519746683e-10   2.2143797227914394e-10   2.2054598823121333e-10   6.8339816991926650e-10   2.2414070857604730e-10   2.4500340477271269e-10   2.1852801875347362e-10   2.2137857836994969e-10   2.2356512912177020e-10   2.0849585722697527e-10   6.4300814774029504e-10   6.0989410078152543e-10   1.2068303830066817e-09   1.9596790859346399e-10   2.1465587311227180e-10   2.0236870294985145e-10   2.0352437152066039e-10   1.8872549981542839e-10   1.9773909769973865e-10   1.8650198390957769e-10   1.8080568059245768e-10   2.6831139690019107e-10   2.9676941652402846e-10   2.6622935799443434e-10   2.4910681002752096e-10   2.6245077110690660e-10   3.0430087882081766e-10   2.7783409317625731e-10   3.1016024681692501e-10   2.7243468364914369e-10   2.9110183549598609e-10   2.7145939597764994e-10   2.4448785422296619e-10   2.9952610125159328e-10   3.2351603144361001e-10   2.9629314215258069e-10   3.2356367854537794e-10   1.0412003356699334e-09   4.4302433757354501e-10   4.6400958003429312e-10   6.0491938054689175e-10   2.2730131531410157e-10   1.0858444803114947e-09   2.2609124233688975e-10   3.9596926144620106e-10   2.1673327821286904e-10   2.2541954872835526e-10   1.9634324630264222e-10   1.9650803972658119e-10   1.9208668871788995e-10   1.7657014340172660e-10   9.0719215071767783e-11   8.8466852918930993e-11   9.7384215410838083e-11   1.0767305079941988e-10   8.7309060665368556e-11   8.8574262034841367e-11   9.8078334319594730e-11   1.1196618046791373e-10   1.1390178799354862e-10   1.1517486920238212e-10   1.1259125408319351e-10   1.0172220082475001e-10   3.4210904220188653e-10   1.3092860894144042e-10   6.2503875291578391e-10   8.5892888702798782e-11   9.3382183572032079e-11   1.0689075606631957e-10   1.1599210642187871e-10   3.4300720895222564e-10   1.2902900717490012e-10   3.1492747696320145e-10   1.3609414176474649e-10   1.2186701471035250e-10   1.1641809708426882e-10   1.0288424859708727e-10   1.9114497271598523e-10   3.4619152623999615e-10   6.1497670340017674e-10   1.1241901426206179e-10   1.2471197703269850e-10   1.1643823613232504e-10   1.1828622169167971e-10   1.0324009179398401e-10   9.2594540162754723e-11   1.0717314800664800e-10   1.0937823726634665e-10   1.2481847984307398e-10   1.2043851095340008e-10   1.2507637830073603e-10   1.3219783968695723e-10   1.1795653729057261e-10   1.2336641597908064e-10   1.2860817706173875e-10   1.8244635331484710e-10   6.1651662119265495e-10   3.6569427268232975e-10   1.4965848990723379e-10   1.4775864721883959e-10   1.6319245133643708e-10   1.5310335288046688e-10   1.5790793085800850e-10   1.2967776763910326e-10   1.5256995228919399e-10   1.3055397243249138e-10   2.1448703870233769e-10   1.3670828600683509e-10   1.5340768838659157e-10   1.4565100617139455e-10   1.5588302139230689e-10   1.5030395970857569e-10   1.6739655269979354e-10   1.6072061409011336e-10   1.6105323845863644e-10   1.6479685492760302e-10   1.7347068373625246e-10   1.7066840044126952e-10   1.5661786861498985e-10   1.7557957970158293e-10   1.8271141898868676e-10   1.7347721681563467e-10   1.6529614951479059e-10   5.4702831544466279e-10   2.1117934629369879e-10   1.0656907450217085e-09   6.8295724417154627e-10   3.9859155361948252e-10   1.5879539179613900e-10   6.7073366576595592e-10   1.9366471806474625e-10   3.5616142354653714e-10   1.2976990847201907e-10   1.6702776375883458e-10   1.2828750312830540e-10   1.5506429149914535e-10   1.2283411913786282e-10   1.4374397019905596e-10   1.2836421332867410e-10   1.2195690889592388e-10   1.8347123241307740e-10   1.8499682664113846e-10   1.7726688728457016e-10   1.9279314076548523e-10   1.6830215043209988e-10   1.6873882713405504e-10   1.6102224524376625e-10   1.4252290670313568e-10   1.9962455694936186e-10   1.9017686377681611e-10   1.9748699071442242e-10   2.0054523600668239e-10   1.8418437467732214e-10   1.9471369765596255e-10   2.0563228214337597e-10   2.6457230300979701e-10   1.7169183723950316e-10   1.7003194492726269e-10   1.7683432766338936e-10   1.9218081783663503e-10   1.5867924709584751e-10   1.5808870416006180e-10   1.6266642284449395e-10   1.5386106460310862e-10   1.7960834512215820e-10   1.6478152596558550e-10   1.8394111867199889e-10   1.8608871594412732e-10   1.7552294173680207e-10   1.6043844590103475e-10   1.7014022232297598e-10   1.6604662933581069e-10   7.2300249395861697e-10   1.3698247597264543e-10   1.5882986428703460e-10   1.2394263765176415e-10   1.1152356376862646e-10   1.4859682835262690e-10   1.3449913114574222e-10   1.5971051789992827e-10   1.3253478376226413e-10   1.6710026000466844e-10   4.1226449766959251e-10   1.4985747065444564e-10   1.3711100245494714e-10   1.6474748496694782e-10   1.5743455897470807e-10   1.7309202223133384e-10   1.5598734910248839e-10   1.8724567964365787e-10   1.8232596106385268e-10   1.9703341425888759e-10   2.1424742873393363e-10   2.0277798205187191e-10   1.9683479660860096e-10   1.7518906991057463e-10   1.8714652614562193e-10   1.6792378565764041e-10   1.6866931676865008e-10   1.7123482751099536e-10   1.8105859857413239e-10   1.7309387115891513e-10   1.6779811054820928e-10   2.9780898208400900e-10   1.3073515400055477e-10   3.2414134866923715e-10   8.4678189211683526e-11   9.4347312671161904e-11   1.1907927102147432e-10   1.3034054132533593e-10   1.1974834832590270e-10   1.3515491906459127e-10   1.3064018455593905e-10   1.1509849201543693e-10   1.3302323629741579e-10   1.4085866887681184e-10   1.4931347477835917e-10   1.6029116035564689e-10   9.3084800246247256e-10   8.9725012134857871e-10   3.1040240873502429e-10   1.4227811977020866e-09   1.4793020899165720e-10   1.4516333915964897e-10   1.4408317623191472e-10   1.5463123241300787e-10   1.4208979174891158e-10   3.7044993123602321e-10   1.2732534435892193e-10   3.7904068156421415e-10   1.1238273127488035e-10   1.2464752050866714e-10   1.1639467106906338e-10   1.1825051998278034e-10   1.0322584364562788e-10   9.2586926606183269e-11   1.0714905688858389e-10   1.0937350679773128e-10   1.2470979221037210e-10   1.2038085866487932e-10   1.2499160887415129e-10   1.3212750741456801e-10   1.1785581972552181e-10   1.2332838535197137e-10   1.2841434521545880e-10   1.8245227346874494e-10   3.6554713712952546e-10   1.4951393834679195e-10   6.1619291921218429e-10   1.5312217694637372e-10   1.5778495934006664e-10   1.4775564945344367e-10   1.6342436641593067e-10   1.3645371065265076e-10   1.5305116469260061e-10   1.4527985352622573e-10   1.5529178632014619e-10   1.2953185665600303e-10   1.5238188013036503e-10   1.3040033190743512e-10   2.1429492373701226e-10   9.0743546146625564e-11   8.8457149133191523e-11   9.7398991620705708e-11   1.0772873841181310e-10   8.7318293260523408e-11   8.8569607080300920e-11   9.8081687034423002e-11   1.1196817707799196e-10   1.1407265384774298e-10   1.1517861842792536e-10   1.1295249814032222e-10   1.0185844938943954e-10   3.4201301110229950e-10   1.3086061191280991e-10   6.2390986136806302e-10   8.9803992149964944e-11   9.4013188275513931e-11   1.0773065299921827e-10   1.1728782132796909e-10   9.4777036352365838e-11   8.9649710035133097e-11   1.0704620760514763e-10   1.2093710566390684e-10   1.3644310139613108e-10   1.2446125134779037e-10   1.1723925073144407e-10   1.0246501229487296e-10   1.9165230659672885e-10   3.4754660923990818e-10   6.1429572390822697e-10   2.6755024946090701e-10   2.9504353694327662e-10   2.6527642787139778e-10   2.5243495653450174e-10   2.7906441497690877e-10   3.0688326270365108e-10   2.8648098266182601e-10   2.9790119908115118e-10   2.7298200113302262e-10   2.8927421907435052e-10   2.7209053088393313e-10   2.4806461737719564e-10   2.9949399711361493e-10   3.2291449261617641e-10   2.9639466796504012e-10   3.2342101720275077e-10   2.4689637761439653e-10   2.2490164694196428e-10   2.4092470914725524e-10   2.3054771193743916e-10   2.5631331014443181e-10   2.3233543860290945e-10   2.6006082536814209e-10   2.6876246037863739e-10   2.1382346878887843e-10   2.2204227984596616e-10   2.0911583004824529e-10   2.2895187740686816e-10   1.9573936230417979e-10   2.0223353247535604e-10   1.9357334990856934e-10   1.7715614958367273e-10   2.4106914714415921e-10   2.4241743408568090e-10   2.3327713999588423e-10   2.1154432601186684e-10   2.6623146137055944e-10   2.6893759551021259e-10   2.5643337636672075e-10   2.8531525155301618e-10   2.2899762458529293e-10   2.5186625116566946e-10   2.1944878336339123e-10   2.1923457343779733e-10   2.2753666935483492e-10   2.5091266939435352e-10   2.3598486275102284e-10   2.3248465302037245e-10   2.2247722984246385e-10   2.1787043818572216e-10   2.3021979372508979e-10   2.0963295082134102e-10   2.4576481556257084e-10   2.3947535525605999e-10   2.5150574655434879e-10   2.7790915955005201e-10   1.9435243062238700e-10   2.1356199322286869e-10   2.0061730198264881e-10   2.0384764001132693e-10   1.8994666138685894e-10   2.0792077294739547e-10   1.8662114049542280e-10   1.8167387349882774e-10   1.8252161699968836e-10   1.8167858201126202e-10   1.7648303785384360e-10   1.9302915912483377e-10   1.6737145792880613e-10   1.6739801952274644e-10   1.5992404600165077e-10   1.4160960925787665e-10   2.0695974247632308e-10   1.8994069487523781e-10   1.9985401150399611e-10   2.0023375628223882e-10   2.0495037977701489e-10   1.8767122787179088e-10   2.1584268333786361e-10   2.1240190767692300e-10   1.7116444005597403e-10   1.6970500216379817e-10   1.7650073110673928e-10   1.9216200653591855e-10   1.5813624398972635e-10   1.5778781914333075e-10   1.6197683860428730e-10   1.5330629651742887e-10   1.7927972355637978e-10   1.6451723079652301e-10   1.8353892221101430e-10   1.8589342256186966e-10   1.7561413660889448e-10   1.6039783990221872e-10   1.7026297221385560e-10   1.6638228724715958e-10   1.5019949414810528e-10   1.6859161631675117e-10   1.6712982371462752e-10   1.8110367563904428e-10   1.6310394758958585e-10   1.7198307179284924e-10   1.6807607943525796e-10   1.5506619834009536e-10   1.7665980937778404e-10   1.7853533628770033e-10   1.7988331460362403e-10   1.7303880284444415e-10   1.9056129053118876e-10   1.9397953667610760e-10   2.0219950166057765e-10   2.1945179719239978e-10   6.5066666531688950e-10   3.7755469579181686e-10   1.9086460297645578e-10   6.5646629251504320e-10   1.9426031640406388e-10   3.5490072547405453e-10   3.5871604166527636e-10   1.8848064190337153e-10   7.1637478636738290e-10   1.3086179198088476e-10   1.4495718637074607e-10   1.1888395484321722e-10   1.1130474179576481e-10   1.2251370549245224e-10   1.2197829636306689e-10   1.2650157844915522e-10   3.2919802014512866e-10   1.1820362385410035e-10   1.2477933944014399e-10   1.1737025608675395e-10   1.1281244032432005e-10   2.2274311393355915e-10   1.2671558601760737e-10   6.0185581238044576e-10   1.5420541257367136e-10   1.4199413908152122e-10   1.5235125925540226e-10   1.6044445742993376e-10   1.1123370804959958e-10   1.0396660326640547e-10   1.1353238244765858e-10   1.1424105142394845e-10   1.1021038406456512e-10   1.0249408011946581e-10   1.0780174246873747e-10   1.0501654964286612e-10   1.0832589259178759e-10   1.0635455595005731e-10   1.0975626937575872e-10   1.1601378081351119e-10   1.0200105792903780e-10   9.9178394801586097e-11   1.0426359150735888e-10   9.1807928575371102e-11   1.2788053578267075e-10   1.3224294099299028e-10   1.2594642693384571e-10   1.3559068343031107e-10   1.1920661289600897e-10   1.2304169952408858e-10   1.1848520549636745e-10   1.1069814758946228e-10   1.4445024633926937e-10   1.3339947621811094e-10   1.4191746446885202e-10   1.3613485471771856e-10   1.5031797955119812e-10   1.3735236565447392e-10   1.5149243804427622e-10   1.5739871374935855e-10   1.2069993921190636e-10   1.1564077325559170e-10   1.2111373773828301e-10   1.2975484468660408e-10   1.1272621870500446e-10   1.0834454152495764e-10   1.1433602486933228e-10   1.0691562885049787e-10   1.2225877846289821e-10   1.1450499669861095e-10   1.2241728042688432e-10   1.2836329678592865e-10   1.1632457225782137e-10   1.0934858992752173e-10   1.1573789420402879e-10   1.0985557520725228e-10   2.1792236102110365e-10   2.3605662835760719e-10   2.1965057929119417e-10   2.3253262550067840e-10   2.0458216226243967e-10   2.2012755056778444e-10   2.0450878736871331e-10