<?xml version="1.0"?>
<VTKFile type="UnstructuredGrid"  version="0.1"  >
<UnstructuredGrid>
<Piece  NumberOfPoints="1140" NumberOfCells="2179">
<Points>
<DataArray  type="Float64"  NumberOfComponents="3"  format="ascii">-1 1 0  -0.75 1 0  -1 0.75 0  -0.5 1 0  -0.75 0.75 0  -1 0.5 0  -0.25 1 0  -0.5 0.75 0  -0.75 0.5 0  -1 0.25 0  1 1 0  1 1.110223024625157e-16 0  1 0.2500000000000001 0  1 0.5 0  1 0.75 0  0.75 1 0  0.5 1 0  0.25 1 0  0 1 0  -0.25 0.75 0  -0.5 0.5 0  -0.75 0.25 0  -1 0 0  0.75 0.75 0  0.75 0 0  0.75 0.25 0  0.75 0.5 0  0.5 0.75 0  0.25 0.75 0  0 0.75 0  -0.25 0.5 0  -0.5 0.25 0  -0.75 0 0  -1 -0.2500000000000001 0  0.5 0.5 0  0.5 0 0  0.5 0.25 0  0.25 0.5 0  0 0.5 0  -0.25 0.25 0  -0.5 0 0  -0.75 -0.2500000000000001 0  -1 -0.5 0  0.25 0.25 0  0.25 0 0  0 0.25 0  -1 -0.75 0  -0.25 0 0  -0.5 -0.25 0  -0.75 -0.5 0  -0.9999999999999999 -1 0  0 0 0  -0.75 -0.75 0  -0.25 -0.25 0  -0.5 -0.5 0  -0.7499999999999999 -1 0  0 -0.25 0  -0.5 -0.75 0  -0.25 -0.5 0  -0.4999999999999999 -0.9999999999999999 0  0 -0.5 0  -0.25 -0.75 0  -0.2499999999999999 -0.9999999999999999 0  0 -0.75 0  0 -0.9999999999999999 0  0.375 0.375 0  0.375 0.25 0  0.375 0.125 0  0.25 0.375 0  0.125 0.375 0  -0.125 0.375 0  -0.375 0.125 0  -0.125 0.25 0  -0.25 0.125 0  0.25 0.125 0  0.125 0.25 0  0.125 0.125 0  0.125 0 0  -0.125 0.125 0  0 0.125 0  -0.375 -0.125 0  -0.125 0 0  -0.25 -0.125 0  -0.375 -0.25 0  -0.125 -0.125 0  0 -0.125 0  -0.375 -0.375 0  -0.125 -0.25 0  -0.125 -0.375 0  0.1875 0.0625 0  0.0625 0.1875 0  -0.0625 0.1875 0  -0.1875 0.0625 0  -0.1875 0 0  -0.1875 -0.0625 0  0.0625 0.0625 0  0.0625 0 0  -0.0625 0.0625 0  0 0.0625 0  -0.0625 0 0  -0.0625 -0.0625 0  0 -0.0625 0  -0.625 -0.625 0  -0.5 -0.625 0  -0.375 -0.5 0  -0.0625 -0.1875 0  -0.375 -0.625 0  -0.375 -0.75 0  -0.125 -0.5 0  -0.25 -0.625 0  -0.3749999999999999 -0.875 0  -0.3749999999999999 -0.9999999999999999 0  -0.125 -0.625 0  0 -0.625 0  -0.2499999999999999 -0.875 0  -0.125 -0.75 0  -0.1249999999999999 -0.875 0  -0.1249999999999999 -0.9999999999999999 0  0 -0.875 0  0.125 0.0625 0  0.0625 0.125 0  -0.0625 0.125 0  -0.125 0.0625 0  -0.125 -0.0625 0  -0.0625 -0.125 0  -0.375 0.875 0  -0.625 0.625 0  -0.375 0.75 0  -0.5 0.625 0  -0.875 0.375 0  -0.625 0.5 0  -0.75 0.375 0  -0.125 0.875 0  -0.375 0.625 0  -0.125 0.75 0  -0.25 0.625 0  -0.625 0.375 0  -0.375 0.5 0  -0.5 0.375 0  -0.875 0.125 0  -0.625 0.25 0  -0.75 0.125 0  0.625 0.125 0  0.625 0.25 0  0.625 0.375 0  0.125 0.625 0  -0.125 0.625 0  0 0.625 0  -0.375 0.375 0  -0.125 0.5 0  -0.25 0.375 0  -0.625 0.125 0  -0.375 0.25 0  -0.5 0.125 0  -0.625 0 0  0.5 0.125 0  -0.625 -0.125 0  0.03125 0.03125 0  0.03125 0 0  -0.03125 0.03125 0  0 0.03125 0  -0.03125 0 0  -0.03125 -0.03125 0  0 -0.03125 0  0.09375 0.03125 0  0.03125 0.09375 0  -0.03125 0.09375 0  0 0.09375 0  -0.09375 0.03125 0  -0.09375 0 0  -0.09375 -0.03125 0  -0.03125 -0.09375 0  0.0625 0.03125 0  0.03125 0.0625 0  -0.03125 0.0625 0  -0.0625 0.03125 0  -0.0625 -0.03125 0  -0.03125 -0.0625 0  -0.875 0.875 0  -0.625 1 0  -0.75 0.875 0  -0.875 0.75 0  -0.625 0.875 0  -0.875 0.625 0  0.875 0.875 0  1 0.1250000000000001 0  0.875 5.551115123125783e-17 0  1 0.3750000000000001 0  0.875 0.1250000000000001 0  0.875 0.2500000000000001 0  1 0.625 0  0.875 0.375 0  0.875 0.5 0  0.875 0.75 0  0.875 0.625 0  0.75 0.875 0  0.625 0.875 0  0.5 0.875 0  0.375 0.875 0  0.25 0.875 0  0.125 0.875 0  0.75 0.625 0  0.625 0.75 0  0.625 0.625 0  0.75 0.125 0  0.75 0.375 0  0.375 0.75 0  0.5 0.625 0  0.375 0.625 0  0.125 0.75 0  0.25 0.625 0  -0.875 -0.125 0  -0.75 -0.125 0  -0.875 -0.2500000000000001 0  0.5 0.375 0  0.375 0.5 0  0.4375 0.4375 0  0.125 0.5 0  0.3125 0.4375 0  0 0.375 0  0.0625 0.4375 0  -0.0625 0.4375 0  -0.375 0 0  -0.5 -0.125 0  -0.4375 0.0625 0  -0.4375 -0.0625 0  -0.875 -0.375 0  -0.625 -0.25 0  -0.75 -0.375 0  -0.875 -0.5 0  0.0625 0.3125 0  -0.0625 0.3125 0  -0.875 -0.625 0  -0.3125 0.0625 0  -0.3125 -0.0625 0  -0.625 -0.375 0  -0.5 -0.375 0  -0.625 -0.5 0  0.015625 0.015625 0  0.015625 0 0  -0.015625 0.015625 0  0 0.015625 0  -0.015625 0 0  -0.015625 -0.015625 0  0 -0.015625 0  0.046875 0.015625 0  0.015625 0.046875 0  -0.015625 0.046875 0  0 0.046875 0  -0.046875 0.015625 0  -0.046875 0 0  -0.046875 -0.015625 0  -0.015625 -0.046875 0  0.03125 0.015625 0  0.015625 0.03125 0  -0.015625 0.03125 0  -0.03125 0.015625 0  -0.03125 -0.015625 0  -0.015625 -0.03125 0  0.625 0 0  0.6875 0.0625 0  0.625 0.5 0  0.6875 0.4375 0  -0.1875 0.4375 0  -0.4375 0.1875 0  0.5625 0.4375 0  0.375 0 0  0.4375 0.0625 0  0.5625 0.0625 0  0.5 0.0625 0  0.4375 0.1875 0  0.5625 0.1875 0  -0.1875 0.3125 0  -0.3125 0.1875 0  -0.1875 0.25 0  -0.25 0.1875 0  -0.1875 0.1875 0  -0.3125 0.3125 0  -0.25 0.3125 0  -0.3125 0.25 0  0.3125 0.3125 0  0.3125 0.25 0  0.3125 0.1875 0  0.1875 0.3125 0  0.25 0.1875 0  0.1875 0.25 0  0.1875 0.1875 0  0.3125 0.0625 0  0.25 0.0625 0  -1 -0.875 0  -0.875 -0.75 0  -0.4375 -0.3125 0  -0.75 -0.625 0  -0.875 -0.875 0  -0.8749999999999999 -1 0  0.0078125 0.0078125 0  0.0078125 0 0  -0.0078125 0.0078125 0  0 0.0078125 0  -0.0078125 0 0  -0.0078125 -0.0078125 0  0 -0.0078125 0  -0.75 -0.875 0  -0.625 -0.75 0  -0.6875 -0.6875 0  -0.25 -0.375 0  -0.3125 -0.1875 0  -0.25 -0.1875 0  -0.3125 -0.25 0  -0.1875 -0.1875 0  -0.3125 -0.3125 0  -0.1875 -0.25 0  -0.1875 -0.3125 0  -0.625 -0.875 0  -0.6249999999999999 -1 0  0 -0.375 0  -0.0625 -0.25 0  -0.0625 -0.3125 0  -0.4999999999999999 -0.875 0  -0.5625 -0.6875 0  -0.4375 -0.8125 0  -0.3125 -0.4375 0  -0.1875 -0.4375 0  -0.1875 -0.5 0  -0.1875 -0.5625 0  -0.4374999999999999 -0.9375 0  -0.0625 -0.4375 0  -0.0625 -0.5 0  -0.0625 -0.5625 0  0.375 0.1875 0  0.3125 0.125 0  0.4375 0.125 0  0.125 0.3125 0  -0.125 0.3125 0  -0.1875 0.375 0  -0.3125 0.125 0  -0.375 0.1875 0  -0.125 0.1875 0  -0.1875 0.125 0  0.1875 0.125 0  0.21875 0.09375 0  0.125 0.1875 0  0.15625 0.09375 0  -0.3125 -0.125 0  -0.1875 -0.125 0  -0.375 -0.3125 0  -0.125 -0.1875 0  -0.09375 -0.15625 0  -0.125 -0.3125 0  -0.09375 -0.21875 0  -0.125 -0.4375 0  0.5625 0.125 0  0.0234375 0.0078125 0  0.0078125 0.0234375 0  -0.0078125 0.0234375 0  0 0.0234375 0  -0.0234375 0.0078125 0  -0.0234375 0 0  -0.0234375 -0.0078125 0  -0.0078125 -0.0234375 0  0.015625 0.0078125 0  0.0078125 0.015625 0  -0.0078125 0.015625 0  -0.015625 0.0078125 0  -0.015625 -0.0078125 0  -0.0078125 -0.015625 0  -1 0.625 0  -0.9375 0.6875 0  -0.375 1 0  -0.5 0.875 0  -0.4375 0.9375 0  -0.5625 0.9375 0  -0.625 0.75 0  -0.75 0.625 0  -0.6875 0.6875 0  -0.6875 0.8125 0  -0.8125 0.6875 0  -0.875 0.5 0  -1 0.375 0  -0.9375 0.4375 0  -0.9375 0.5625 0  -0.125 1 0  -0.25 0.875 0  -0.3125 0.9375 0  -0.1875 0.9375 0  -0.4375 0.8125 0  -0.5625 0.6875 0  -0.5625 0.8125 0  -0.6875 0.5625 0  -0.8125 0.4375 0  -0.8125 0.5625 0  -0.875 0.25 0  -1 0.125 0  -0.9375 0.3125 0  -0.9375 0.1875 0  0.125 1 0  0 0.875 0  -0.0625 0.9375 0  0.0625 0.9375 0  -0.3125 0.8125 0  -0.1875 0.8125 0  -0.3125 0.6875 0  -0.1875 0.75 0  -0.1875 0.6875 0  -0.4375 0.5625 0  -0.5625 0.4375 0  -0.4375 0.5 0  -0.5 0.4375 0  -0.4375 0.4375 0  -0.8125 0.3125 0  -0.6875 0.3125 0  -0.8125 0.1875 0  -0.75 0.1875 0  -0.6875 0.1875 0  -0.875 0 0  -1 -0.125 0  -0.9375 0.0625 0  -0.9375 -0.06250000000000001 0  0.1875 0.8125 0  -0.0625 0.8125 0  0.0625 0.6875 0  -0.0625 0.6875 0  0.0625 0.8125 0  0.0625 0.75 0  -0.3125 0.5625 0  -0.25 0.5625 0  -0.3125 0.5 0  -0.1875 0.5625 0  -0.3125 0.4375 0  -0.25 0.4375 0  -0.5625 0.3125 0  -0.5 0.3125 0  -0.5625 0.25 0  -0.4375 0.3125 0  -0.5625 0.1875 0  -0.4375 0.25 0  -0.8125 0.0625 0  -0.6875 0.0625 0  -0.6875 -0.06250000000000001 0  -0.8125 -0.06250000000000001 0  -0.75 -0.06250000000000001 0  0.4375 0.3125 0  0.4375 0.25 0  0.25 0.4375 0  0.1875 0.4375 0  0.1875 0.5625 0  0.1875 0.5 0  0.0625 0.5625 0  -0.0625 0.5625 0  0 0.5625 0  -0.0625 0.5 0  0.0625 0.5 0  -0.5625 0.0625 0  -0.5 0.0625 0  -0.5625 0 0  -0.5625 -0.06250000000000001 0  -0.5 -0.0625 0  -0.8125 -0.1875000000000001 0  0.1875 0 0  0.21875 0.03125 0  -0.0625 0.25 0  0.0625 0.25 0  0 0.1875 0  0.03125 0.21875 0  -0.03125 0.21875 0  0 0.3125 0  0.03125 0.28125 0  -0.03125 0.28125 0  -0.25 0.0625 0  -0.25 -0.0625 0  -0.21875 0.03125 0  -0.21875 -0.03125 0  -0.3125 0 0  -0.28125 0.03125 0  -0.4375 -0.1875 0  -0.4375 -0.25 0  -0.5625 -0.1875 0  -0.5 -0.1875 0  0.00390625 0.00390625 0  0.00390625 0 0  -0.00390625 0.00390625 0  0 0.00390625 0  -0.00390625 0 0  -0.00390625 -0.00390625 0  0 -0.00390625 0  0 -0.1875 0  -0.03125 -0.21875 0  0.375 0.3125 0  0.1875 0.375 0  0.125 0.4375 0  -0.09375 0.21875 0  -0.21875 0.09375 0  0.09375 0.21875 0  0.09375 0.28125 0  0.09375 0.15625 0  0.15625 0.03125 0  0.03125 0.15625 0  -0.03125 0.15625 0  0.03125 0.125 0  -0.375 -0.1875 0  -0.4375 -0.125 0  -0.21875 -0.09375 0  -0.03125 -0.15625 0  0.0625 0.15625 0  -0.125 0.8125 0  -0.3125 0.625 0  -0.625 0.3125 0  -0.375 0.4375 0  -0.4375 0.375 0  -0.8125 0.125 0  0.125 0.5625 0  -0.0625 0.625 0  -0.125 0.5625 0  -0.3125 0.375 0  -0.375 0.3125 0  -0.5625 0.125 0  -0.625 0.0625 0  -0.5625 -0.125 0  0.125 0.8125 0  -0.8125 -0.125 0  -0.03125 0.34375 0  -0.0625 0.375 0  -0.34375 0.03125 0  -0.375 0.0625 0  0.01171875 0.00390625 0  0.00390625 0.01171875 0  -0.00390625 0.01171875 0  0 0.01171875 0  -0.01171875 0.00390625 0  -0.01171875 0 0  -0.01171875 -0.00390625 0  -0.00390625 -0.01171875 0  0.0078125 0.00390625 0  0.00390625 0.0078125 0  -0.00390625 0.0078125 0  -0.0078125 0.00390625 0  -0.0078125 -0.00390625 0  -0.00390625 -0.0078125 0  -0.875 1 0  -1 0.875 0  -0.9375 0.9375 0  -0.8125 0.9375 0  -0.9375 0.8125 0  1 0.875 0  0.875 1 0  0.9375 0.9375 0  0.9375 0.06250000000000008 0  0.9375 0.1875000000000001 0  0.9375 0.3125000000000001 0  0.9375 0.8125 0  0.9375 0.75 0  0.9375 0.6875 0  0.625 1 0  0.8125 0.9375 0  0.75 0.9375 0  0.6875 0.9375 0  0.375 1 0  0.5625 0.9375 0  0.5 0.9375 0  0.4375 0.9375 0  0.3125 0.9375 0  0.25 0.9375 0  0.1875 0.9375 0  0.8125 0.8125 0  0.6875 0.8125 0  0.8125 2.775557561562891e-17 0  0.8125 0.06250000000000003 0  0.75 0.0625 0  0.
[...]
<CellData  Scalars="w"> 
<DataArray  type="Float64"  Name="w"  format="ascii">2.5774219401720000e-08   2.6345696387073922e-08   3.3039200832009640e-08   2.8639667918306981e-08   2.5893822540240032e-08   2.6155772386044556e-08   2.5441883908208495e-08   2.8670510405341117e-08   5.2660188769266002e-08   2.9541509913106579e-08   5.1916340389528975e-08   4.3021464261265600e-08   3.9170153594916236e-08   4.7386719638871966e-08   1.5525189705635821e-08   1.4352144665413079e-08   3.2744755682668193e-08   5.5920588528249883e-09   4.8901927609138447e-09   5.6427074300030963e-09   5.9049871352312161e-09   6.1894236696143460e-09   1.4154690009380553e-08   1.1192043584581523e-08   6.3099878655103927e-09   5.0274927669189926e-09   4.8851479317801761e-09   5.2129430099398648e-09   6.0078701315039552e-09   3.6765030204491635e-08   1.6495750928797915e-08   1.5508315066625719e-08   5.7851258748244038e-09   5.0273240530178676e-09   5.7692432471170547e-09   6.5177953742164976e-09   9.6895127001822457e-09   9.4448232171903577e-09   2.6935939399106917e-08   5.6598664822025701e-09   5.0191623796525561e-09   5.6671932877876808e-09   6.5140305694418698e-09   5.1140025303937444e-09   9.5210812700469272e-09   5.2060169243008666e-09   8.7535795113898586e-09   5.3365461121742616e-08   1.9961224820544580e-08   6.3277003598855393e-08   9.2180497542541383e-08   8.0164743354204096e-08   1.0584286834445460e-07   7.2170494643401696e-08   1.0088370929081264e-07   1.1280260201322514e-08   1.2819250381398066e-08   1.2658145154967720e-08   1.4984677601774069e-08   1.1760632374489296e-07   1.7905012154350752e-08   4.5191444659121381e-08   1.2742123587841566e-08   1.1307204054252242e-08   1.2813137977106760e-08   1.5832923420578171e-08   2.9827014184248659e-09   3.7471093165077760e-09   3.7773683883025797e-09   2.3606503345483346e-09   2.1580266935465358e-09   2.1886518191121727e-09   5.3429935946704305e-09   2.2882313347821677e-09   6.3804325069124620e-08   2.7497360878441204e-08   6.5189988856952550e-08   6.5136207931572094e-08   5.6667830582208844e-08   7.0028630775160884e-08   1.2597932329572777e-08   2.5309428395402817e-09   1.4590381258131059e-09   5.7263775597507146e-08   5.1413590185941164e-08   4.9137543074464436e-08   1.2769383297857026e-07   9.3232166311396090e-08   1.3554173247648714e-08   1.2524672465460441e-08   5.8965179794575442e-08   1.9038227734053461e-09   4.1360869112854321e-09   2.2225916451989238e-08   1.6350519122250804e-09   3.4219330030435599e-09   1.1834207584147823e-09   1.4375870431319972e-09   8.0147252060154265e-08   1.0581940785981270e-07   7.2158635389257727e-08   1.0086606959036257e-07   5.3352255613600804e-08   1.9950518647038324e-08   6.3255135767472790e-08   9.2162940528663858e-08   5.6683995361369178e-08   7.0468694392193164e-08   1.2494241307105020e-08   2.5200319263691260e-09   1.4592803791087958e-09   5.7328625793856371e-08   6.3786647992679869e-08   2.7547437031457284e-08   6.5182494714388487e-08   6.5151306522351769e-08   1.2750649521683369e-08   1.1316012366122329e-08   1.2822407802150582e-08   1.5837441958256625e-08   2.9838556265382473e-09   3.7458444606512558e-09   3.7807782385473971e-09   2.3614026400675148e-09   2.1582989109674098e-09   2.1892629120320208e-09   5.3447577749772544e-09   2.2890177762637394e-09   1.1279926581998870e-08   1.2824018907046044e-08   1.2658652039026855e-08   1.4987577628588086e-08   1.1759030496060731e-07   1.7904392867076343e-08   4.5185012751976701e-08   1.3547076987306424e-08   1.2516271575731841e-08   5.8946299329457293e-08   1.9015904778681301e-09   4.1337628525897111e-09   2.2213065945974313e-08   1.6328493611867315e-09   3.4169810117350321e-09   1.1831966747332791e-09   1.4359190296763525e-09   5.1396497387113250e-08   4.9127739922897004e-08   1.2766696378210676e-07   9.3216274607698620e-08   5.0612181391021906e-08   4.1393560651216372e-08   2.2559330626168616e-08   2.0698836025252973e-08   3.7761264816437033e-08   4.1918483069020424e-08   4.7912920047328933e-08   4.4139857066625363e-08   5.6885146889609425e-08   1.3175231128239438e-08   1.2350764426975564e-08   1.4465486309041548e-08   1.5110132913387973e-08   1.3110938586847886e-08   2.3250421469744718e-08   1.3624740999523497e-08   2.1693151482204964e-08   1.3182877219851898e-08   1.2352111959222015e-08   1.4474341760435375e-08   1.5109308929525885e-08   1.3134274674855144e-08   2.3239966313720547e-08   1.3646092873263594e-08   2.1761264330967877e-08   3.6529787667580817e-08   4.8011324098982010e-08   4.4570502288391355e-08   5.7112885378802163e-08   4.3173716175014109e-08   4.1379003727880247e-08   2.2395593157080344e-08   2.0810731336938249e-08   3.6575917891261480e-08   6.2833008723753635e-08   6.2146695233485994e-08   6.6024495024023064e-08   7.0977254455202675e-08   6.2847312266014390e-08   6.1942779879895794e-08   6.6423423830178803e-08   7.1122063806098224e-08   3.2977742273515789e-08   7.6372628214547800e-08   4.1890947313834582e-08   3.2401104423390815e-08   2.8888056103681754e-08   5.1079958137229473e-08   2.7051248697622594e-08   1.8960201086212575e-08   9.7463698216116798e-08   9.5321367174835731e-08   9.2961811690852458e-08   6.3496440083646670e-08   3.8797421196593440e-08   5.1142290006896663e-08   1.3223064617282297e-07   9.6682187262207018e-09   2.4830139906969163e-08   9.5019159275200220e-09   7.1062639983600456e-09   3.7764781079475699e-09   5.1412835579707105e-09   1.2619896463937132e-08   9.5764601135791697e-10   2.4435472745494706e-09   9.4925827876617293e-10   7.0422098582386281e-10   3.7434080383172571e-10   5.1079252104856238e-10   1.2470821262777124e-09   9.5244716021760583e-11   2.4275780128994962e-10   9.4414063018828556e-11   6.9932405278077530e-11   3.7277024263137178e-11   5.0907799875118868e-11   1.2405498170365737e-10   9.5018658980742935e-12   2.4160881586863363e-11   9.4911257643149144e-12   7.0004671655643531e-12   3.6305265257171986e-12   5.0782052682151921e-12   1.2295260601673470e-11   8.4458913078348653e-13   2.3305061653043092e-12   1.1194144810688062e-12   7.5634831178780733e-13   3.1071998710783346e-12   1.9230374936316669e-12   4.9774843799987778e-08   9.7639450721742040e-07   1.7591028548615806e-08   1.0457311865058399e-08   2.5587851473472928e-08   2.1541036030607839e-08   1.8299529572213197e-08   1.2314192309283220e-08   1.5702567885414752e-08   1.3198637614364741e-08   1.0857472464551409e-08   1.2918557933796286e-08   1.7749180033590207e-08   2.2434074612132349e-08   8.1320244765014705e-09   1.1197629528864178e-08   4.7833144273166235e-08   8.0362458074121973e-09   9.2480699163121707e-09   6.9123042676934500e-08   7.6625614502356378e-09   7.3727204309537672e-09   3.4148522693765255e-09   5.6063448717980337e-09   2.8520243700349983e-08   5.1592274496128470e-08   2.2258963558072203e-08   1.8820797732376352e-08   9.2905325144460686e-08   9.0243172776108587e-08   9.1055757789100112e-08   2.1813354664406849e-08   1.0357742966769528e-08   3.8714965040245902e-08   5.0729551619394078e-08   1.3223963438990220e-07   9.6662444517923809e-09   2.4799696416315194e-08   9.5204054211663562e-09   7.1079827408921047e-09   3.7759032299073544e-09   5.1443260498652053e-09   1.2620937911733012e-08   9.5800890717222040e-10   2.4443202505200449e-09   9.4977851115406190e-10   7.0444034365988871e-10   3.7432371080837382e-10   5.1098082247543669e-10   1.2471525185204760e-09   9.5260918097970667e-11   2.4279792722843821e-10   9.4432273418002530e-11   6.9940959767207676e-11   3.7275731631857011e-11   5.0916184661594936e-11   1.2405845980782557e-10   9.5026215350803750e-12   2.4162779180016262e-11   9.4919280582345515e-12   7.0007914773031493e-12   3.6304393747967814e-12   5.0786252357108409e-12   1.2295446071304963e-11   8.4462239289789023e-13   2.3306146970858126e-12   1.1194547863587050e-12   7.5636214427196172e-13   3.1071960184195533e-12   1.9230906490723844e-12   4.9778527582901740e-08   9.7640860151656627e-07   1.4860191691286809e-08   1.1057832061696914e-08   1.7281589661649831e-08   6.4909508141468540e-09   3.9965407792799191e-09   1.8659869452232526e-08   1.6940541597526888e-08   1.5207219940272497e-08   3.1392876568645116e-08   1.0207632861637952e-08   1.1118062547955209e-08   4.7973274851802646e-08   3.0200225549886581e-09   9.6950057457892498e-09   2.4852396214229483e-09   3.3629042510032168e-09   4.1411191838306568e-09   2.7360057818981261e-09   8.3127237378614489e-09   1.4776865141990924e-08   7.2116718860737104e-09   3.5410552680390993e-09   1.5671822687603833e-08   9.0803627690489387e-09   4.3511869677588096e-09   3.9513475651933483e-09   3.4668534758915838e-09   3.9303592125670422e-09   3.3256457754330463e-09   3.2803364661332781e-09   2.9249831604409498e-08   2.3910695394696198e-09   2.2251287229911428e-09   2.5967640129913758e-09   3.3216920344281312e-09   2.5510069692377070e-09   5.5532134873596657e-09   1.0925646846412445e-08   2.6562996685023130e-09   1.9641502850871174e-09   2.7904126616910346e-09   2.9665148796064057e-09   2.5017514092531430e-09   4.5288350713765357e-09   2.4120309611070011e-09   6.1893490346005783e-09   1.7509743725675248e-08   5.0636455084579054e-09   2.0758187993150299e-09   1.6707949452867651e-09   3.1071171552794164e-09   1.5406302698892480e-09   4.3268576670774231e-09   1.1647716854970150e-08   1.2223955538163174e-08   3.6731719482748185e-08   2.5533770738355240e-08   4.8799777840694810e-08   1.6319946964983270e-08   3.2091003747108567e-08   1.4104650878814631e-08   2.4077320990548632e-08   1.2918393349214166e-09   3.7858262169469438e-09   1.0302891967763154e-08   1.7326437985120490e-08   5.0244940153429252e-09   2.0593933151681905e-09   1.6631086115383850e-09   3.1000428249878115e-09   1.5343605041472179e-09   4.3115639062832597e-09   1.1644310634759266e-08   1.2247187531486526e-08   3.6772238588460950e-08   2.4873979188138543e-08   4.4188688070840779e-08   1.5886561028293274e-08   3.0836335202937199e-08   1.3955638584845532e-08   2.3675540705524611e-08   1.2922467646213357e-09   3.7883030539822820e-09   1.0198619167613859e-08   1.4725742566780370e-08   7.2017350853995695e-09   3.5586427078671966e-09   1.5616910452973558e-08   9.0394259673557366e-09   4.2984505805908120e-09   3.9070542535292932e-09   3.4490902412832946e-09   4.0335709700254078e-09   3.2619976341340507e-09   3.2425334392778304e-09   2.9362220585336767e-08   2.3928064773450676e-09   2.2270985121950409e-09   2.6067948336196576e-09   3.3483640965646646e-09   2.5451579282357594e-09   5.5505421905951269e-09   1.0911365621593538e-08   2.6588831886435406e-09   1.9647632154063211e-09   2.7907661085574807e-09   2.9806094570929554e-09   2.5017420795057971e-09   4.5269944446197308e-09   2.4118792852402817e-09   6.1901080236289626e-09   3.5745412872670425e-09   3.9890466214590984e-09   3.3618566294340628e-09   4.3572220197523528e-09   2.8845323070539130e-09   2.3855993512964885e-09   2.8932497675252788e-09   3.5727214828104959e-09   5.0511325020272800e-09   4.3946514344478236e-09   5.4102392367247218e-09   4.1788219469236748e-09   6.6593081182385012e-09   5.5601737430450280e-09   6.6950873444693350e-09   1.8352688786665464e-08   3.7481516299108068e-08   7.0888075030709577e-08   4.5956847326583825e-09   5.4547862248132937e-09   5.4364182124639748e-08   9.3669662514185060e-09   1.0652528312578942e-08   8.1757969020066704e-09   1.2795054742066107e-08   6.4942386336245520e-09   1.9937391801451928e-08   5.6051226929601270e-09   4.6415313256914016e-09   3.5810138075710011e-09   3.9675736442333584e-09   3.3663034252172818e-09   4.3119390201890456e-09   2.8870858615559432e-09   2.3854753116693157e-09   2.8956706563203146e-09   3.5724248519594956e-09   5.3421424769508570e-09   4.3298563923235268e-09   5.9312982248962118e-09   4.2603735293471262e-09   1.6506830459909389e-08   5.5381506655007234e-09   3.6118847988976302e-08   6.0935093752329690e-08   6.8907693862994352e-08   4.6766435964630113e-09   5.0218839457850843e-09   5.5641294278433563e-08   5.8615776471648494e-08   6.8343074249570882e-08   5.7897283020408762e-08   7.7990462021956772e-09   4.4706572417734174e-09   1.1975665619912011e-08   1.1277692626109368e-08   1.1226417484377402e-08   4.9909562263516432e-09   2.3903875791806545e-09   1.3391572300684869e-08   3.1550834309975409e-08   1.5234528529923517e-08   4.5193405822495633e-08   9.0396856477314639e-09   9.7702901518880065e-09   5.2483918561586923e-08   2.6434909783288170e-09   6.7905211052449155e-09   2.1363592306743428e-09   2.6643160979912950e-09   4.4407850656932673e-09   2.8663695579522904e-09   9.6510078210995418e-09   2.8154905469811915e-08   1.8296352264694104e-08   2.8888841045735247e-08   2.8059739123907236e-08   2.2295990323106869e-08   4.9431165179587701e-09   2.9918499807230717e-09   1.8968818727061779e-08   4.0335029599811280e-09   4.8899042147709174e-09   2.7335279404314322e-08   2.1958256789738705e-08   2.8784996966758713e-08   2.7122971197346568e-08   2.2526112906044431e-08   2.0150271569770531e-08   1.0239508637479872e-07   3.6044765100561979e-08   3.2118704806607436e-08   2.8756527562437344e-08   4.3129924418635524e-08   6.8750921390665193e-09   1.3666250059653534e-08   2.1362387257977622e-08   5.7429767562997982e-09   6.8863523983816760e-09   3.9028645978208987e-09   5.4115135812234563e-09   2.4812387484477030e-08   3.0368145513460997e-08   3.4173527370636078e-08   4.1909753922206129e-08   2.1392720723775567e-08   2.3421570875869570e-08   1.6070853281284688e-08   6.7078532697663939e-09   4.1603965387205978e-09   8.8727503812630488e-08   6.9889124186080176e-09   3.0602198049990184e-09   5.4503284285629469e-08   2.6641252792663564e-08   3.7968682798307511e-09   7.8516113076624023e-09   1.8163869016692244e-08   2.6109291464627846e-08   5.3448277806986161e-09   3.3088511117076196e-09   1.6378343545026668e-08   3.1647211208417454e-09   1.6940845957296853e-09   9.5955045760075763e-09   3.6363656451356058e-09   3.5741334777727138e-09   3.8118148835692667e-09   2.1642286340758063e-09   3.0160766906674927e-09   1.5994559135700333e-08   4.2206256782229864e-09   2.3765307523926825e-09   9.0429176869117980e-09   9.7738143531496688e-09   5.2498607380212354e-08   2.6443281124954300e-09   6.7968991977572624e-09   2.1371327960177632e-09   2.6657512581567546e-09   4.4425309433543572e-09   2.8671535812669456e-09   9.6544508208838237e-09   1.1978402247069353e-08   1.1280269045907494e-08   1.1228685357185274e-08   4.9909360368486920e-09   2.3904291763116633e-09   1.3394212807677976e-08   3.1559775642334390e-08   1.5237680013952827e-08   4.5203540119208027e-08   2.4894762403792712e-08   3.0413488054523530e-08   3.4084546025078314e-08   4.1888867465655376e-08   2.1401691779983731e-08   2.3436631882664776e-08   1.5941505230465839e-08   6.7040626175955173e-09   4.1100523198768128e-09   3.6070990150748528e-08   3.2133566342459605e-08   2.8752738329633524e-08   4.3161393086198832e-08   6.8741209775499258e-09   1.3666329165630548e-08   2.1366279825478318e-08   5.7420679426627892e-09   6.8836572106823756e-09   3.9013440781025631e-09   5.4092950809519185e-09   2.7335556005056530e-08   2.1955908575571668e-08   2.8782595351563629e-08   2.7119303503504859e-08   2.2529921858588934e-08   2.0148849567670472e-08   1.0240415390534167e-07   2.8151180911057891e-08   1.8295457670344620e-08   2.8884271447086975e-08   2.8055714833844752e-08   2.2291573829617716e-08   4.9416807574290303e-09   2.9914921435017583e-09   1.8967275177318349e-08   4.0330864930473417e-09   4.8883839867073611e-09   5.3454758196389605e-09   3.3090711620038548e-09   1.6384351641119488e-08   3.1652733723049215e-09   1.6942448388375261e-09   9.5975721547240378e-09   3.6369843972799404e-09   3.5729111753627251e-09   3.8121996163129434e-09   2.1635949140536959e-09   3.0152610474819569e-09   1.5997249079044613e-08   4.2203100388840933e-09   2.3768340980580988e-09   8.8737375124249138e-08   6.9892213669991141e-09   3.0604241018001420e-09   5.4511380449138968e-08   2.6642485270798263e-08   3.7969293890258418e-09   7.8501505932023613e-09   1.8171596832520562e-08   2.6112406933958327e-08   6.9698635853852324e-08   1.1442979098010459e-08   1.4078742153352872e-08   7.6671161524855112e-08   2.2154160807610346e-08   1.7440924528936546e-08   6.5475710862613169e-08   1.9199023524130147e-08   9.4044351691615743e-09   4.6296225814905638e-08   8.8668370768959061e-09   1.1985673193484360e-08   5.8507912735160940e-09   6.8149749398919948e-09   1.1328225287151393e-08   9.8498497975732926e-09   1.8071399327087475e-08   7.1392140034309556e-09   4.5463661998467976e-08   5.0939011153432358e-09   1.2552832704338832e-08   5.2067864802570613e-09   8.7953208424127066e-09   9.8442420888363272e-09   4.4519521467912220e-09   8.4649286512749083e-09   6.8071962925684190e-09   2.9742607029744003e-08   2.0175247882213160e-08   2.9657304030069610e-08   3.6649808174554233e-08   3.5735794869958725e-08   3.5493553493574317e-08   3.3836528127688075e-08   4.4826592606144186e-08   2.9745058446169600e-08   2.0177183658882466e-08   2.9659581286629948e-08   3.6650348262380326e-08   3.5741986279562899e-08   3.5502264321845290e-08   3.3841045841602291e-08   4.4831995723666360e-08   5.8369542797908046e-09   6.7951892769246071e-09   1.1315958661473526e-08   9.8289596230012891e-09   1.8060676471960430e-08   7.1324226048630209e-09   4.5481521508301056e-08   5.0870788428278120e-09   1.2526256287630316e-08   5.1999595095644030e-09   8.7800099196550982e-09   9.8351866374028937e-09   4.4501913985318164e-09   8.4579181159550889e-09   6.8017051515527237e-09   6.9656102803329155e-08   1.1426867494628338e-08   1.4054119679140217e-08   7.6639657266820940e-08   2.2155818305573751e-08   1.7435777335984764e-08   6.5430935521029290e-08   1.9180309845803197e-08   9.3927761601809530e-09   4.6263587109908753e-08   8.8611013753621359e-09   1.1979711795980009e-08   7.4099729733608385e-08   5.8272126933946033e-08   7.6455814549418769e-08   7.4698363874520918e-08   5.4187034201866439e-08   4.5180242844377826e-08   5.8544583566451995e-08   4.3317945348455600e-08   7.4115927657694918e-08   5.8271848636736800e-08   7.6468138022957615e-08   7.4702658494958324e-08   5.4203308350719555e-08   4.5184875199831173e-08   5.8565357591116997e-08   4.3331224031561160e-08   7.4226679778536616e-08   1.9426598438591620e-09   7.8268457212075940e-08   1.2977786035810257e-08   7.9216585262282141e-08   1.0184003833377611e-07   7.9968555070144426e-09   1.4659202638767458e-08   1.0859069977474844e-07   5.3279489688783327e-08   4.9348447137120673e-09   5.3553640995206256e-08   6.6364207334957954e-09   8.2042960598008655e-09   1.4628955321702113e-08   1.0902542058100327e-08   1.3506834271990154e-08   8.3503954103716706e-08   1.2672627052902492e-08   1.0989776885274575e-08   4.2623476089004919e-09   3.2481250239073065e-09   3.6608506847052188e-09   4.1260542575028623e-09   5.8069412975947497e-09   3.9712121664635753e-09   1.4286536847660713e-08   4.3530747293285787e-09   4.4799462742623287e-09   2.6742569542165198e-09   4.1980583365970885e-09   4.5547549647773208e-09   5.3975866629923939e-09   1.1370865116694088e-08   6.9195080390232169e-09   4.2084277383465640e-09   1.2352360792708955e-08   3.0023952664967740e-09   3.5206000156586887e-09   3.2017297372200622e-09   3.6758935419342848e-09   1.1479013350412126e-08   6.1172244523719535e-09   2.4386771164770456e-08   3.9195037767660272e-09   3.6465672837103352e-09   4.3710913525766106e-09   3.7422830419714675e-09   8.3904651190287911e-08   8.0597830170680537e-08   7.7643955062895028e-08   1.5585574217692141e-08   9.0783359904406358e-09   1.3484311193488570e-08   2.7129303792819799e-08   1.1865728719179560e-08   1.8100094712241914e-08   1.3838259546395611e-08   2.8274764925618097e-08   1.2889819544671176e-08   1.6065046713745404e-08   4.2584109983777626e-09   4.7569991736581850e-09   6.0624452705415958e-09   5.3869962799244533e-09   3.7512641592607889e-09   4.3331993039499434e-09   5.5391411210989309e-09   5.9435168965643616e-09   4.5982409950024510e-09   4.8268434401527776e-09   4.5325274417339418e-09   4.1333845272413247e-09   4.5383612498356665e-09   9.6832694897834538e-09   1.2705583616263745e-08