<?xml version="1.0"?>
<VTKFile type="UnstructuredGrid"  version="0.1"  >
<UnstructuredGrid>
<Piece  NumberOfPoints="715" NumberOfCells="1345">
<Points>
<DataArray  type="Float64"  NumberOfComponents="3"  format="ascii">-1 1 0  -0.75 1 0  -1 0.75 0  -0.5 1 0  -0.75 0.75 0  -1 0.5 0  -0.25 1 0  -0.5 0.75 0  -0.75 0.5 0  -1 0.25 0  1 1 0  1 1.110223024625157e-16 0  1 0.2500000000000001 0  1 0.5 0  1 0.75 0  0.75 1 0  0.5 1 0  0.25 1 0  0 1 0  -0.25 0.75 0  -0.5 0.5 0  -0.75 0.25 0  -1 0 0  0.75 0.75 0  0.75 0 0  0.75 0.25 0  0.75 0.5 0  0.5 0.75 0  0.25 0.75 0  0 0.75 0  -0.25 0.5 0  -0.5 0.25 0  -0.75 0 0  -1 -0.2500000000000001 0  0.5 0.5 0  0.5 0 0  0.5 0.25 0  0.25 0.5 0  0 0.5 0  -0.25 0.25 0  -0.5 0 0  -0.75 -0.2500000000000001 0  -1 -0.5 0  0.25 0.25 0  0.25 0 0  0 0.25 0  -1 -0.75 0  -0.25 0 0  -0.5 -0.25 0  -0.75 -0.5 0  -0.9999999999999999 -1 0  0 0 0  -0.75 -0.75 0  -0.25 -0.25 0  -0.5 -0.5 0  -0.7499999999999999 -1 0  0 -0.25 0  -0.5 -0.75 0  -0.25 -0.5 0  -0.4999999999999999 -0.9999999999999999 0  0 -0.5 0  -0.25 -0.75 0  -0.2499999999999999 -0.9999999999999999 0  0 -0.75 0  0 -0.9999999999999999 0  0.375 0.125 0  0.125 0.375 0  -0.125 0.375 0  -0.375 0.125 0  -0.125 0.25 0  -0.25 0.125 0  0.25 0.125 0  0.125 0.25 0  0.125 0.125 0  0.125 0 0  -0.125 0.125 0  0 0.125 0  -0.375 -0.125 0  -0.125 0 0  -0.25 -0.125 0  -0.125 -0.125 0  -0.125 -0.375 0  -0.375 -0.625 0  -0.125 -0.5 0  -0.25 -0.625 0  -0.3749999999999999 -0.875 0  -0.125 -0.625 0  0 -0.625 0  -0.2499999999999999 -0.875 0  -0.125 -0.75 0  -0.1249999999999999 -0.875 0  -0.1249999999999999 -0.9999999999999999 0  0 -0.875 0  -0.375 0.625 0  -0.625 0.375 0  -0.375 0.5 0  -0.5 0.375 0  -0.375 0.375 0  -0.25 0.375 0  -0.375 0.25 0  0.1875 0.0625 0  0.1875 0 0  0.0625 0.1875 0  -0.0625 0.1875 0  0 0.1875 0  -0.1875 0.0625 0  -0.1875 0 0  -0.1875 -0.0625 0  0 -0.125 0  0.0625 0.0625 0  0.0625 0 0  -0.0625 0.0625 0  0 0.0625 0  -0.0625 0 0  -0.0625 -0.0625 0  -0.125 -0.25 0  -0.1875 -0.1875 0  -0.0625 -0.1875 0  0.125 0.0625 0  0.0625 0.125 0  -0.0625 0.125 0  -0.125 0.0625 0  -0.125 -0.0625 0  0.875 0.375 0  0.125 0.875 0  0.625 0.625 0  0.75 0.375 0  0.625 0.125 0  0.625 0.25 0  0.625 0.5 0  0.625 0.375 0  0.375 0.625 0  0.125 0.75 0  0.25 0.625 0  0.125 0.625 0  -0.125 0.625 0  0 0.625 0  -0.125 0.5 0  -0.625 0.125 0  -0.5 0.125 0  -0.625 0 0  0.5 0.375 0  0.375 0.5 0  0.375 0.375 0  0.5 0.125 0  0.125 0.5 0  0.25 0.375 0  -0.625 -0.125 0  -0.5 -0.125 0  -0.625 -0.25 0  -0.625 -0.375 0  -0.375 -0.25 0  -0.5 -0.375 0  0 -0.0625 0  0.03125 0.03125 0  0.03125 0 0  -0.03125 0.03125 0  0 0.03125 0  -0.03125 0 0  -0.03125 -0.03125 0  -0.375 -0.375 0  0.09375 0.03125 0  0.03125 0.09375 0  -0.03125 0.09375 0  0 0.09375 0  -0.09375 0.03125 0  -0.09375 0 0  -0.09375 -0.03125 0  -0.03125 -0.09375 0  0.0625 0.03125 0  0.03125 0.0625 0  -0.03125 0.0625 0  -0.0625 0.03125 0  -0.0625 -0.03125 0  -0.0625 -0.125 0  -0.875 0.875 0  -0.625 1 0  -0.75 0.875 0  -0.875 0.75 0  -1 0.625 0  -0.625 0.875 0  -0.375 1 0  -0.5 0.875 0  -0.875 0.625 0  -0.625 0.75 0  -0.75 0.625 0  -0.875 0.5 0  -1 0.375 0  -0.375 0.875 0  -0.125 1 0  -0.25 0.875 0  -0.625 0.625 0  -0.375 0.75 0  -0.5 0.625 0  -0.875 0.375 0  -0.625 0.5 0  -0.75 0.375 0  -0.875 0.25 0  -1 0.125 0  0.875 0.1250000000000001 0  0.875 0.2500000000000001 0  -0.125 0.875 0  -0.875 0.125 0  -0.75 0.125 0  -0.875 0 0  -1 -0.125 0  0.75 0.125 0  -0.875 -0.125 0  -0.75 -0.125 0  -0.875 -0.2500000000000001 0  0 0.375 0  -0.0625 0.4375 0  -0.375 0 0  -0.4375 0.0625 0  -0.875 -0.375 0  -0.0625 0.3125 0  -0.875 -0.625 0  -0.3125 0.0625 0  -0.75 -0.625 0  -0.625 -0.5 0  0 -0.03125 0  0.015625 0.015625 0  0.015625 0 0  -0.015625 0.015625 0  0 0.015625 0  -0.015625 0 0  -0.015625 -0.015625 0  -0.625 -0.625 0  0.046875 0.015625 0  0.015625 0.046875 0  -0.015625 0.046875 0  0 0.046875 0  -0.046875 0.015625 0  -0.046875 0 0  -0.046875 -0.015625 0  -0.015625 -0.046875 0  0.03125 0.015625 0  0.015625 0.03125 0  -0.015625 0.03125 0  -0.03125 0.015625 0  -0.03125 -0.015625 0  -0.03125 -0.0625 0  1 0.875 0  0.875 0.875 0  1 0.625 0  0.875 0.5 0  0.875 0.75 0  0.875 0.625 0  0.625 1 0  0.75 0.875 0  0.625 0.875 0  0.5 0.875 0  0.375 0.875 0  -0.125 0.75 0  -0.25 0.625 0  -0.1875 0.6875 0  0.75 0.625 0  0.625 0.75 0  0.6875 0.6875 0  0.375 0.75 0  0.5 0.625 0  0.5625 0.6875 0  0.4375 0.6875 0  0.3125 0.6875 0  -0.1875 0.5625 0  0.375 0 0  0.4375 0.0625 0  0.375 0.25 0  0.4375 0.1875 0  0.5625 0.1875 0  0.4375 0.3125 0  0.5 0.1875 0  -0.1875 0.3125 0  -0.3125 0.1875 0  -0.1875 0.25 0  -0.25 0.1875 0  -0.1875 0.1875 0  0.3125 0.1875 0  0.1875 0.3125 0  0.25 0.1875 0  0.1875 0.25 0  0.1875 0.1875 0  0.3125 0.3125 0  0.3125 0.0625 0  0.25 0.0625 0  0.0625 0.3125 0  -0.4375 -0.3125 0  -0.875 -0.875 0  -0.8749999999999999 -1 0  0 -0.015625 0  0.0078125 0.0078125 0  0.0078125 0 0  -0.0078125 0.0078125 0  0 0.0078125 0  -0.0078125 0 0  -0.0078125 -0.0078125 0  -0.75 -0.875 0  -0.625 -0.75 0  -0.25 -0.375 0  -0.3125 -0.1875 0  -0.1875 -0.3125 0  -0.3125 -0.25 0  -0.3125 -0.3125 0  -0.5 -0.625 0  -0.375 -0.5 0  -0.4375 -0.5625 0  -0.4375 -0.4375 0  -0.625 -0.875 0  -0.6249999999999999 -1 0  0 -0.375 0  -0.0625 -0.3125 0  -0.0625 -0.25 0  -0.4999999999999999 -0.875 0  -0.375 -0.75 0  -0.4375 -0.8125 0  -0.1875 -0.4375 0  -0.3125 -0.5625 0  -0.1875 -0.5 0  -0.1875 -0.5625 0  -0.3125 -0.4375 0  -0.3749999999999999 -0.9999999999999999 0  -0.4374999999999999 -0.9375 0  -0.0625 -0.4375 0  0.3125 0.125 0  0.4375 0.125 0  0.125 0.3125 0  -0.125 0.1875 0  -0.1875 0.125 0  0.1875 0.125 0  0.125 0.1875 0  -0.125 -0.4375 0  -0.125 -0.3125 0  -0.375 -0.3125 0  0 -0.046875 0  0.0234375 0.0078125 0  0.0078125 0.0234375 0  -0.0078125 0.0234375 0  0 0.0234375 0  -0.0234375 0.0078125 0  -0.0234375 0 0  -0.0234375 -0.0078125 0  -0.0078125 -0.0234375 0  -0.0078125 -0.0390625 0  0.015625 0.0078125 0  0.0078125 0.015625 0  -0.0078125 0.015625 0  -0.015625 0.0078125 0  -0.015625 -0.0078125 0  -0.015625 -0.03125 0  -0.6875 0.4375 0  1 0.1250000000000001 0  0.875 5.551115123125783e-17 0  0.9375 0.06250000000000008 0  0.9375 0.1875000000000001 0  0.375 1 0  0.125 1 0  0.25 0.875 0  0.1875 0.9375 0  0.3125 0.9375 0  0 0.875 0  0.0625 0.9375 0  -0.0625 0.9375 0  -0.4375 0.4375 0  -0.625 0.25 0  -0.6875 0.3125 0  -0.6875 0.1875 0  -0.8125 0.3125 0  -0.75 0.3125 0  0.625 0 0  0.6875 0.0625 0  0.8125 0.06250000000000003 0  0.75 0.0625 0  0.6875 0.1875 0  0.1875 0.8125 0  0.3125 0.8125 0  0.0625 0.8125 0  -0.0625 0.8125 0  -0.1875 0.4375 0  -0.3125 0.5625 0  -0.3125 0.5 0  -0.3125 0.4375 0  -0.25 0.4375 0  -0.1875 0.5 0  -0.4375 0.1875 0  -0.5625 0.3125 0  -0.5 0.3125 0  -0.4375 0.3125 0  -0.4375 0.25 0  -0.5625 0.1875 0  -0.5 0.1875 0  -1 -0.375 0  0.5625 0.0625 0  0.5 0.0625 0  0.1875 0.4375 0  0.1875 0.5625 0  0.3125 0.4375 0  0.1875 0.5 0  0.25 0.4375 0  0.0625 0.4375 0  0.0625 0.5625 0  0.0625 0.5 0  0 0.4375 0  -0.3125 0.3125 0  -0.25 0.3125 0  -0.3125 0.25 0  -0.4375 -0.0625 0  -0.5625 0.0625 0  -0.5625 -0.06250000000000001 0  -0.5 -0.0625 0  -0.4375 0 0  -0.75 -0.375 0  -0.6875 -0.3125 0  -0.8125 -0.3125 0  -1 -0.625 0  -0.875 -0.5 0  -0.9375 -0.4375 0  -0.9375 -0.5625 0  -0.875 -0.75 0  -0.9375 -0.6875 0  -0.25 0.0625 0  -0.3125 -0.0625 0  -0.25 -0.0625 0  -0.21875 -0.03125 0  -0.3125 0 0  -0.28125 0.03125 0  -0.4375 -0.1875 0  -0.5625 -0.1875 0  -0.5 -0.1875 0  -0.6875 -0.4375 0  -0.8125 -0.4375 0  -0.8125 -0.5625 0  0 -0.0078125 0  0.00390625 0.00390625 0  0.00390625 0 0  -0.00390625 0.00390625 0  0 0.00390625 0  -0.00390625 0 0  -0.00390625 -0.00390625 0  -0.8125 -0.6875 0  -0.25 -0.1875 0  -0.1875 -0.25 0  -0.21875 -0.21875 0  0 -0.1875 0  -0.03125 -0.21875 0  0.125 0.4375 0  0.1875 0.375 0  0.0625 0.375 0  -0.1875 0.375 0  -0.125 0.4375 0  -0.375 0.1875 0  -0.4375 0.125 0  -0.3125 -0.125 0  -0.4375 -0.125 0  -0.375 -0.1875 0  -0.375 -0.0625 0  -0.34375 -0.15625 0  -0.1875 -0.125 0  -0.21875 -0.09375 0  -0.21875 -0.15625 0  -0.28125 -0.15625 0  -0.15625 -0.09375 0  -0.15625 -0.15625 0  -0.09375 -0.15625 0  -0.6875 0.375 0  -0.375 0.4375 0  -0.4375 0.375 0  -0.3125 0.375 0  -0.375 0.3125 0  -0.03125 -0.15625 0  -0.15625 -0.21875 0  -0.09375 -0.21875 0  -0.125 -0.1875 0  0.5625 0.125 0  0.6875 0.125 0  0.125 0.5625 0  -0.5625 0.125 0  0.3125 0.375 0  -0.5625 -0.125 0  -0.34375 0.03125 0  -0.375 0.0625 0  0 -0.0234375 0  0.01171875 0.00390625 0  0.01171875 0 0  0.00390625 0.01171875 0  -0.00390625 0.01171875 0  0 0.01171875 0  -0.01171875 0.00390625 0  -0.01171875 0 0  -0.01171875 -0.00390625 0  -0.00390625 -0.01171875 0  -0.00390625 -0.01953125 0  0.0078125 0.00390625 0  0.00390625 0.0078125 0  -0.00390625 0.0078125 0  -0.0078125 0.00390625 0  -0.0078125 -0.00390625 0  -0.0078125 -0.015625 0  -0.875 1 0  -1 0.875 0  -0.9375 0.9375 0  -0.8125 0.9375 0  -0.9375 0.8125 0  -0.4375 0.6875 0  -0.4375 0.8125 0  -0.5625 0.6875 0  -0.4375 0.75 0  -0.5 0.6875 0  -0.6875 0.5625 0  1 0.3750000000000001 0  0.9375 0.3125000000000001 0  0.9375 0.2500000000000001 0  0.9375 0.4375 0  -0.3125 0.6875 0  -0.25 0.6875 0  -0.4375 0.5625 0  -0.5625 0.4375 0  -0.4375 0.5 0  -0.5 0.4375 0  -0.5625 0.5625 0  -0.5 0.5625 0  -0.5625 0.5 0  -0.8125 0.1875 0  0.8125 0.3125 0  0.75 0.3125 0  0.6875 0.25 0  0.6875 0.3125 0  0.8125 0.4375 0  0.6875 0.5625 0  0.6875 0.5 0  0.6875 0.4375 0  0.1875 0.6875 0  0.0625 0.75 0  0.0625 0.6875 0  -0.0625 0.6875 0  0 0.6875 0  -0.6875 0.0625 0  -0.6875 0 0  -0.6875 -0.06250000000000001 0  -0.8125 0.0625 0  -0.75 0.0625 0  -0.8125 -0.06250000000000001 0  -0.75 -0.06250000000000001 0  0.5625 0.5625 0  0.5625 0.5 0  0.5625 0.4375 0  0.4375 0.5625 0  0.5 0.4375 0  0.4375 0.5 0  0.4375 0.4375 0  0.5 0.5625 0  0.5625 0.25 0  0.5625 0.3125 0  0.5 0.3125 0  0.3125 0.5625 0  0.25 0.5625 0  0.3125 0.5 0  -0.0625 0.5625 0  0 0.5625 0  -0.0625 0.5 0  -0.6875 -0.1875000000000001 0  -0.8125 -0.1875000000000001 0  -0.75 -0.1875000000000001 0  0.3125 0.25 0  0.28125 0.21875 0  0.3125 0 0  0.28125 0.03125 0  -0.0625 0.25 0  0.0625 0.25 0  0.03125 0.21875 0  -0.03125 0.21875 0
[...]
<CellData  Scalars="w"> 
<DataArray  type="Float64"  Name="w"  format="ascii">3.5391775783185306e-08   2.5828232105160675e-08   3.9543038394344438e-08   2.9824023758367808e-08   3.5481379907965285e-08   2.5851516994301543e-08   3.9646257157040705e-08   2.9872607869058334e-08   3.1186837220415127e-07   3.6337194986856334e-07   3.0375942978887149e-07   4.8002835668938562e-07   3.0779213402816384e-07   4.7300568741600461e-07   3.1521515279737742e-07   3.8426249636556156e-07   3.2195294240817361e-07   6.6377257107700522e-08   5.0523968690525822e-08   3.2155952304968964e-07   6.6288256803636875e-08   5.0883769877774516e-08   4.2734940094707815e-07   3.2985315500296362e-07   5.3155496023305096e-07   8.7745403011333051e-08   1.8177020404181772e-07   1.2834117193686968e-08   4.5552259283068038e-08   1.5719293286609126e-08   5.1360402493472396e-08   2.5963302706068453e-08   4.2502881750551638e-08   7.6297522610171234e-08   7.9749803713208448e-08   4.2644704573397644e-08   2.0537894589475809e-08   1.0127514755161315e-07   1.1351723311081270e-07   4.4736668291586983e-07   3.6657393784232024e-07   4.3008469590646860e-07   4.7645920757528757e-07   8.1080189578766938e-08   7.4134992764412446e-08   4.0795284095064305e-07   1.8812520240969908e-07   3.8558485511933292e-08   1.7168707733694515e-08   5.4291951226348153e-07   5.1534050810853832e-07   5.9454880257721101e-07   3.2189904006969806e-07   2.4737524071008688e-08   1.1100986170301874e-07   4.2240461270382898e-07   7.8973857267780877e-08   1.6695859373109138e-07   3.5524863402641359e-07   4.1371404688477608e-07   1.7571610637867486e-08   1.9832317387270200e-08   1.6876646601834236e-08   2.0437428363185004e-08   1.4305299039279041e-08   1.5445945551407438e-08   1.3859530962569987e-08   1.0668172985742183e-08   4.4613726511627174e-08   1.9783080806378792e-08   1.9052883322148083e-07   1.2845740136857621e-08   1.7198644233045968e-08   1.1285319996574179e-08   1.1343467239559643e-08   5.7709491905426521e-07   6.5967002471890001e-08   2.0627071092856880e-08   3.4244190737540201e-08   6.7268967966945945e-07   5.7678683713871290e-07   4.8858983034376041e-07   3.9142765748808265e-07   5.0458964732686624e-07   4.8658038996885666e-07   1.5456312411974362e-08   1.2567324187063944e-08   1.5333669206864266e-08   1.7459705538485474e-08   2.3906562915309126e-08   3.2474901890875567e-08   7.6514518809746020e-08   1.4822976011381625e-08   1.2506296627373799e-08   1.4834317206999324e-08   1.7453773522738084e-08   1.3034422833072650e-08   3.3746875736825108e-08   1.3300178869073837e-08   2.6599308239618736e-08   4.5698395693131750e-07   4.8102714981776070e-07   4.0601334538693495e-07   4.2532813362277035e-07   4.4644600115179712e-07   1.3911382814515799e-07   9.9525192985422641e-08   4.4479367582174413e-07   1.2257319963941520e-07   9.9918227940921531e-08   3.1728684694738208e-08   7.4850762748601323e-08   3.9922723867509698e-08   2.8973340085047749e-08   2.7744055082777332e-08   4.8197470209364504e-08   2.6005265944489321e-08   1.8246898060749903e-08   9.7192503582294334e-08   9.3882668328774867e-08   9.7077386940105841e-08   6.6570020052479077e-08   3.8777256928679968e-08   5.1199795367855867e-08   1.3231585956009918e-07   9.6553449895396165e-09   2.4823857614196910e-08   9.4623150665467499e-09   7.0881416097972967e-09   3.7711001237588688e-09   5.1338840765431341e-09   1.2617856503326512e-08   9.5873511105859149e-10   2.4459402379875057e-09   9.4764010890678706e-10   7.0250661274667564e-10   3.7557614248572342e-10   5.1295724922923229e-10   1.2503500427427825e-09   9.6028049319050795e-11   2.4392657158945265e-10   9.5721956828824555e-11   7.0524319031780768e-11   3.6834180177686577e-11   5.1545695212382831e-11   1.2418024647367715e-10   8.6053630957776470e-12   2.3597553573700634e-11   1.1535843719426238e-11   7.7481592465022582e-12   3.1795157700650528e-11   1.9360070922990138e-11   1.4283494541703048e-06   2.9459442319471710e-05   1.7812683568074862e-08   1.0860912310647279e-08   2.4928626961421846e-08   2.1815060494266975e-08   1.8192336955615798e-08   2.0466091710747873e-08   1.5568711504043783e-08   3.8993913154083651e-08   1.1696579574132236e-08   1.3520311152179171e-08   1.9472323161247943e-08   2.5948828003385923e-08   8.4453506247541737e-09   2.5439914022631057e-08   5.5267661222060629e-08   3.2734049266926167e-08   7.5521313924426654e-08   4.1597799115960635e-08   3.2206513635614733e-08   2.8177669991319851e-08   4.8286891847397710e-08   2.6514975363806850e-08   1.8362745918987055e-08   9.6886878617210720e-08   9.4142662325500722e-08   9.2860051874167752e-08   6.3382798941817960e-08   3.8775571739693023e-08   5.0921673606881646e-08   1.3226799122384037e-07   9.6497236315730389e-09   2.4789641445006699e-08   9.4713519890196197e-09   7.0882380595476744e-09   3.7769886655140786e-09   5.1348785152078896e-09   1.2615245456100070e-08   9.5873187796834697e-10   2.4451837901241757e-09   9.4919457815458698e-10   7.0385583007451318e-10   3.7568924020287307e-10   5.1243548277204174e-10   1.2499998594210776e-09   9.5716479681769444e-11   2.4349473392331783e-10   9.5526893507587701e-11   7.0482526923281819e-11   3.6550839358587628e-11   5.1143008742238529e-11   1.2415140115832209e-10   8.4983598922200655e-12   2.3503907574362678e-11   1.1237717262132128e-11   7.6016012932076954e-12   3.1069167279907689e-11   1.9425176141994788e-11   1.5168298356920043e-06   2.9657897464042302e-05   1.7888195039050353e-08   1.0552400621188370e-08   2.5913771597717951e-08   2.1521852278281983e-08   1.8964537112352335e-08   1.2608519865404866e-08   1.6659813402965246e-08   3.7979956402954192e-08   1.0528639249572594e-08   1.2839839235496700e-08   1.6821409898848891e-08   2.1556840638175058e-08   8.5363582110837681e-09   1.0884820714506674e-08   8.4108684017022693e-09   6.6014622530276977e-09   4.3557516880833443e-08   2.0571663903559448e-08   1.1781472681869662e-07   1.7568960783199476e-08   2.6857969791540654e-08   4.4804775832594716e-08   3.6485739128835583e-08   1.2647761070411392e-07   1.2686061389563476e-07   1.4472441000143455e-07   1.4001575984276623e-07   8.7207979459241000e-08   9.2393504915796036e-08   1.2027986739001764e-08   2.7283862084859318e-08   4.5589387890800562e-08   3.6045632186447760e-08   5.0949838152446976e-08   2.5763275512960975e-08   3.4714824507860706e-08   2.0197310549704866e-08   3.9429824598394869e-08   2.2194810037957684e-08   1.7558181827455057e-08   1.2983158983674664e-07   1.1996445597752662e-07   7.4166824286234405e-08   6.8452921730978808e-08   2.7157526606172013e-08   9.0949148115877320e-08   1.9890860403993788e-08   3.0804381549709727e-08   3.7199385565665306e-08   2.7246511494657612e-08   8.5694343965595960e-08   7.0518080327409093e-07   5.3842303298730331e-07   7.9304950408889589e-08   3.7316440781978649e-08   7.1158008902804248e-07   2.2729633029666300e-07   1.1860664077703705e-07   3.0366292942605714e-07   1.6256695486176806e-07   3.2709918382750647e-07   3.2288735330602335e-07   2.7564094448762473e-07   3.9832684651306201e-08   5.0327435685499517e-08   1.2671164587782401e-07   8.8572992253356004e-08   3.1576407388114272e-07   4.6768158496767284e-08   4.4268857555059018e-08   1.6180211274399953e-07   6.1437413786273565e-08   1.5348095384105076e-08   9.5291511621341158e-09   3.4372172715568230e-07   3.9184081854868443e-08   5.4459657456318949e-08   2.4845289637259326e-08   5.0997440115884217e-08   2.1559098247444436e-08   1.0718523199949994e-08   6.4910724146669865e-08   5.6654012484181671e-09   1.8475072856652364e-08   5.3402265786746705e-09   1.3782775584476362e-08   2.6240803364444436e-07   1.3899195629504238e-07   6.4729611120023796e-07   1.1778590314376530e-07   6.4941846255919514e-08   1.6699563787260215e-07   1.2807845633137420e-07   2.5061468816730323e-08   2.2791831212261420e-08   2.7327786441240204e-08   4.2604148505098667e-08   2.4312007077538000e-08   2.0224349437053465e-08   2.3369748167065949e-08   2.0510368979084187e-08   6.4948218823785986e-08   2.4682730860582550e-08   1.4395714886033809e-07   1.8109101501920943e-08   2.0227837463436685e-08   2.1102008800669165e-08   2.5938370615661050e-08   3.5442547231120437e-08   2.9251810312869786e-08   4.7404539543738582e-08   4.1553379121151136e-08   4.0195233624265726e-08   8.1369395214582558e-08   3.7025588163366653e-08   1.0569966556145095e-07   2.5718468921141351e-08   3.0196660379746721e-08   3.4622360572881985e-08   3.8843064758764451e-08   2.2612731876776561e-08   6.0031483343284489e-08   2.3154195732237533e-08   1.7444457893276457e-08   1.3663240196478466e-07   6.7595085254290615e-08   5.7696694355293567e-08   1.5589892784376675e-07   1.4565908451739902e-07   1.5235323743099016e-07   1.2469036951461069e-07   1.4197077272187654e-07   1.5192604308174268e-07   1.0547885488798870e-07   8.7659797006393362e-08   4.5756181460800866e-07   1.4440623677476753e-08   4.0023925380901936e-08   1.6227585184373028e-08   1.2351867277981421e-08   3.9086043163962967e-08   1.4868676745602395e-08   1.1057935759464174e-07   8.7047703183413346e-08   3.0988926142354246e-08   2.9392401659697758e-07   2.3271156608979129e-08   2.3979158065685536e-08   1.9986859397847203e-08   1.9463523489691669e-08   2.7296431375045764e-08   3.3056326569834533e-08   2.5215676578071992e-07   4.5089312323039871e-08   7.7476028561085418e-08   3.7498363860868128e-08   1.0274367214621030e-07   1.0013106468085655e-07   1.0630480201151141e-07   2.2192126316638151e-07   1.8473356761499776e-07   2.6599390500328122e-08   3.3941985457513768e-08   2.7871413329508818e-08   4.0811723133320269e-08   2.3823574299269147e-08   3.5399474207735794e-08   2.2326500413902376e-08   2.0615936866713497e-08   2.1549459460317502e-08   2.2059125647176122e-08   1.9313229645863783e-08   1.8025087320954696e-08   2.2058355132824304e-08   2.5260819311511873e-08   8.9881014136086703e-08   1.3191362726478909e-07   2.1831498350181609e-07   1.5321116346183954e-07   2.1836626548920059e-07   9.7253858061081749e-08   1.0438919175093895e-07   8.6955050059934949e-08   1.3370547764654186e-07   6.8563997565918852e-08   6.7993404416781465e-08   6.1529163473110746e-08   4.3397295588736827e-08   5.3528771036816293e-08   6.4680051993207455e-08   5.8570255638948749e-08   4.6356354247327171e-08   5.8078674363708995e-08   7.7033205178230715e-08   4.7672909107819175e-08   4.9254666004307539e-08   2.9233896407813908e-08   2.4875792153873815e-08   2.9433875805337433e-08   3.6649713747772258e-08   3.6633064423331796e-08   4.2459176584416212e-08   3.4048691958115958e-08   4.4559593299156833e-08   2.9261996472531209e-08   2.4873267249555563e-08   2.9445005098038348e-08   3.6660250026962811e-08   3.6909192000513638e-08   4.3577603872501333e-08   3.4103532693595598e-08   4.4738441929493112e-08   1.5366260791519024e-07   8.4467892591806810e-08   3.3113606950850942e-07   5.6561542032511533e-08   7.5618636624854419e-08   4.2426698927267723e-08   4.6325441372001079e-08   1.0146966703271142e-07   3.1001039705936570e-07   8.9177986326913632e-08   1.1345142738627033e-07   6.7828326327720748e-08   6.6248201999170467e-08   5.9264713848225748e-08   4.1427644124006951e-08   7.2889914011881839e-08   5.7886152039542319e-08   7.3672592716277348e-08   9.7308368517081214e-08   5.2553140161948179e-08   4.4925157777977899e-08   5.6607040760957854e-08   4.3779046013503094e-08   7.2165245686059974e-08   5.7864443252840129e-08   7.3031935596817923e-08   9.7533723470277569e-08   5.3142136479631087e-08   4.5071540067666233e-08   5.7175809213571712e-08   4.4605023319440343e-08   3.2657129512840281e-07   2.4949147325164278e-07   5.3879715689889157e-07   1.0066397640866068e-07   2.2132004444962608e-07   1.4368985258050956e-07   4.4025604518701742e-10   1.2904735018141270e-07   4.3952687276455370e-07   8.4861001520947946e-08   1.7400195086133653e-07   2.0893561107769548e-08   2.5257682989035766e-08   1.6606820427370483e-08   3.1027186397190362e-08   2.1909363710738161e-08   2.4002135462136086e-08   1.6516791440993554e-08   1.8201683340982749e-08   1.9571599038504205e-08   1.6739033700311299e-08   3.0723100334105868e-08   2.6214610378706146e-08   2.1650129994141932e-07   2.5600284390251712e-08   2.6016591994407210e-08   1.4354681281329011e-07   8.9409462370710929e-08   4.1585335462863058e-07   1.4034629535845067e-08   2.9012328684611038e-08   1.6316636516079602e-08   1.8324898449489360e-08   1.4700984379358572e-08   1.3557639270047529e-08   1.5762214156511381e-08   3.7635018851728837e-08   2.6897947604593880e-07   2.7521699376252388e-07   3.8266540620006938e-07   8.5338456212801245e-08   1.1870498869061491e-08   2.8836396634825096e-08   1.6825145123533065e-08   4.3449410297296043e-08   1.4087381181631336e-08   1.1697963922169178e-08   8.6343550894970980e-08   1.0583046210723520e-07   3.5579870606494129e-07   6.4315194180227878e-08   6.1174684763912236e-08   1.0558112266145163e-07   9.6818100442630784e-08   4.3548345488903329e-08   2.4075358232965722e-08   1.0133962679492806e-08   6.8492505339030067e-08   9.6812621453352478e-08   1.7245056838345574e-07   6.6947125148669953e-08   7.5217474808147441e-08   7.6577517379427569e-08   1.5994420653398458e-07   5.9711944564460620e-08   6.9013455753460152e-08   8.2348662615128267e-08   6.4195427518948963e-08   1.0018534020609101e-07   6.9805855173420573e-08   9.8820790011473711e-08   6.7646881366004500e-08   7.3056829638298928e-08   1.0284292006848855e-07   2.9443311953981396e-08   3.3307092599166409e-08   4.3899064315637698e-08   3.8611067497859145e-08   3.9492152093347288e-08   4.8503399277235358e-08   9.0040066418377239e-08   7.4805987577103049e-08   2.9652700107621380e-08   1.7244629845702726e-08   8.5430014032675847e-08   5.2833299342824231e-08   1.0296067055542593e-07   1.1810238085705386e-07   1.6655011665831627e-07   1.4116305352642821e-07   1.7668253559644708e-08   2.7018943038288007e-08   6.4780370239916253e-08   9.1081842818989239e-08   1.0161185464331676e-07   1.2044737183049507e-07   6.1367548086274344e-09   1.0432482651187328e-08   1.0804606737729200e-08   1.7865474180826599e-08   6.2196120561707992e-10   1.0509631376330489e-09   1.0854002542158390e-09   1.8006466190447104e-09   6.2472876523525658e-11   1.0507439392181430e-10   1.0893678003027914e-10   1.7745441447568853e-10   6.6792409029093940e-12   1.0871785729750795e-11   1.5418825162333708e-11   2.0355128522861990e-11   2.4845479132757848e-06   1.9259986752333482e-05   1.6268752847682067e-11   3.3043510668459749e-11   4.3332647039467459e-11   4.5529936043115476e-11   1.2979373832569264e-10   4.4714885715752027e-10   4.4294307374775264e-10   1.3783507052984704e-09   4.4702057365515428e-09   4.4016837688317357e-09   1.3849345354516450e-08   4.3001297534946948e-08   4.0756704102192491e-08   1.2938706142460994e-07   4.8997897368131553e-08   4.4447276118595316e-08   2.1190799507382694e-07   3.9646304672711529e-08   4.9561137740315078e-08   1.8731110724575024e-08   2.0061727238937248e-08   5.4794237412104472e-08   5.5577478998413989e-08   5.5401171871777571e-08   6.4560714509632447e-08   5.9196325420462765e-08   6.0576192867346578e-08   4.6767085981338533e-08   5.3884187655050122e-08   1.0748074176176146e-07   9.2579864708325196e-08   9.9158989159505642e-08   1.5515552367850275e-07   1.0022246659426974e-07   8.9783350382047861e-08   6.7782657692954417e-08   6.4873222794793076e-08   4.2493971369993465e-08   7.1476041138931906e-08   1.9118040583459573e-07   6.3402125872246489e-08   2.3866993079328466e-08   1.9835208232647912e-07   2.5684832172958111e-07   5.6805352433565154e-08   9.5332466062847852e-08   7.4400591544271295e-08   9.0503689839980099e-08   6.7473947063766446e-08   1.3963520392959056e-07   6.8578768403915682e-08   2.9039708832226527e-08   2.6089722905007126e-08   7.0232827160183154e-08   8.0360625002089118e-08   1.0925830939815845e-07   6.6761885588268490e-08   2.6707847876290549e-07   2.5596374371001595e-08   4.1300306866081511e-08   5.2679325262538900e-08   2.7530714332785142e-08   5.0869096799199350e-08   2.7474056362873672e-08   8.8506426078059058e-08   1.1716287555400481e-07   1.0915364693712491e-07   1.9950359951758391e-07   1.9354725927391822e-07   1.1578297703872600e-07   7.3972379939379464e-08   8.7833746627330596e-08   1.0446042815861746e-07   1.2192461697495592e-07   9.6551228580334852e-08   9.0702160134377713e-08   1.1975688847809700e-07   1.1480311641983127e-07   3.2037122259677270e-08   1.9518354762988419e-08   1.0444899996653674e-07   8.8563869323186479e-08   2.2742520614966665e-08   2.2678785575742391e-08   2.1586809463258309e-08   2.4996026897244368e-08   2.3672876596970918e-08   4.4219068116756155e-08   4.2323732699580204e-08   5.0722916254830885e-08   1.9198730058572613e-07   2.0513869910406725e-07   1.7573902290239056e-07   1.5087635301585134e-07   4.1621943024651913e-08   5.9778442776868956e-08   5.7565670700751153e-08   3.7748513999115499e-08   3.2161024187716319e-08   3.3497473913826227e-08   4.6733565692470746e-08   8.8590441552565370e-08   1.3475268105873795e-07   1.0139779726591879e-07   1.2896107355414612e-07   1.2004366815738550e-07   1.3547198982000211e-07   1.5138067656818455e-07   2.0018013283874562e-07   1.7359532255915683e-07   5.6497338375128318e-07   1.1366155687458745e-07   7.9131073868658356e-08   5.3468168908993532e-07   5.0027076058993782e-07   1.9772127367593814e-08   2.5173115139829165e-08   2.2398190306926016e-08   1.9415835046648844e-08   1.7924351832232785e-08   2.2223015786593058e-08   1.8589370743718569e-08   1.7398757464954468e-08   2.4426442050646719e-08   2.4562659444180858e-08   2.4021221276702025e-08   1.9229722632148356e-08   3.1828295695575128e-08   3.2057217851793378e-08   3.1321987533605624e-08   4.2501155985888552e-08   5.3418427702781480e-07   1.9586211225669611e-07   8.2680837373892455e-08   3.7263013032962294e-07   4.5235100893756317e-08   4.1104031561566428e-08   1.4824372435859511e-08   2.0953122550768938e-08   2.0799837235166282e-08   3.7605031688631756e-08   2.4269814423425499e-08   2.9973377217060760e-08   3.7881699008372862e-08   2.1715262369729647e-08   7.4990821722396945e-08   8.4677667539796940e-08   5.3252969523880794e-07   6.6163864023374343e-08   6.6119116075899388e-08   5.6390712710339140e-08   7.9745656796350586e-08   4.4076101416183107e-08   3.3892717329383701e-08   3.9343167916981511e-08   3.1702268397267162e-08   3.9966268942277826e-08   7.0125487640280947e-08   5.0980139851028361e-08   5.8824014571133097e-08   4.6203043936539280e-08   5.0187780897707536e-08   7.7833374592228827e-08   5.3845379737419580e-08   8.5720145459421591e-08   4.1678705408176814e-08   3.4700462139635037e-08   3.2412366388000478e-08   3.3142383045974089e-08   2.2351759339140653e-08   1.4371693866291908e-08   9.1194537619715726e-08   1.2161282182843560e-07   8.0424143531367556e-09   1.1928624766790353e-08   7.8989634200399265e-10   1.1800901054636316e-09   7.8282487292463232e-11   1.2011155444246994e-10   5.4766429738381742e-11   1.1700651702851891e-05   7.5099588224615660e-11   6.7685836593161235e-07   1.7735649511570930e-11   1.5640659686990598e-11   7.2178601164346858e-11   2.3545620711522197e-11   8.3965689797994199e-11   9.2446338483427983e-12   2.8164428514381472e-11   1.8111663144976609e-10   1.5855833032634185e-10   7.3253225889740990e-10   1.8623297766055409e-10   8.1273123563464705e-10   9.4219624667982907e-11   2.6448205432012242e-10   1.7720836249234009e-09   1.5945125122025817e-09   1.3338994806468142e-08   1.9046892646602731e-09   8.2798211211910616e-09   9.4897913673392622e-10   2.7260872761039697e-09   3.5134207456440667e-07   1.9431666692641083e-07   3.0371843991269313e-08   7.5122406744226196e-08   9.0396652978980279e-08   6.3476967465913681e-08   9.5860961398403010e-08   7.5071252408288871e-08   1.5017921084977043e-07   1.4087822374569142e-07   2.3162029017450546e-07   6.6073286568529524e-08   6.3397787064079357e-08   2.7339175183796444e-07   2.7704546197655996e-07   2.1095276035910481e-07   3.6131250906245989e-07   3.6536294077923617e-07   5.0615975569557782e-08   8.9852234879187699e-08   5.0560946752398126e-07   5.3221810586669755e-07   6.5263128468324591e-08