<?xml version="1.0"?>
<VTKFile type="UnstructuredGrid"  version="0.1"  >
<UnstructuredGrid>
<Piece  NumberOfPoints="123" NumberOfCells="205">
<Points>
<DataArray  type="Float64"  NumberOfComponents="3"  format="ascii">-1 1 0  -0.75 1 0  -1 0.75 0  -0.5 1 0  -0.75 0.75 0  -1 0.5 0  -0.25 1 0  -0.5 0.75 0  -0.75 0.5 0  -1 0.25 0  1 1 0  1 1.110223024625157e-16 0  1 0.2500000000000001 0  1 0.5 0  1 0.75 0  0.75 1 0  0.5 1 0  0.25 1 0  0 1 0  -0.25 0.75 0  -0.5 0.5 0  -0.75 0.25 0  -1 0 0  0.75 0.75 0  0.75 0 0  0.75 0.25 0  0.75 0.5 0  0.5 0.75 0  0.25 0.75 0  0 0.75 0  -0.25 0.5 0  -0.5 0.25 0  -0.75 0 0  -1 -0.2500000000000001 0  0.5 0.5 0  0.5 0 0  0.5 0.25 0  0.25 0.5 0  0 0.5 0  -0.25 0.25 0  -0.5 0 0  -0.75 -0.2500000000000001 0  -1 -0.5 0  0.25 0.25 0  0.25 0 0  0 0.25 0  -1 -0.75 0  -0.25 0 0  -0.5 -0.25 0  -0.75 -0.5 0  -0.9999999999999999 -1 0  0 0 0  -0.75 -0.75 0  -0.25 -0.25 0  -0.5 -0.5 0  -0.7499999999999999 -1 0  0 -0.25 0  -0.5 -0.75 0  -0.25 -0.5 0  -0.4999999999999999 -0.9999999999999999 0  0 -0.5 0  -0.25 -0.75 0  -0.2499999999999999 -0.9999999999999999 0  0 -0.75 0  0 -0.9999999999999999 0  0.375 0.125 0  0.125 0.375 0  -0.125 0.375 0  -0.375 0.125 0  -0.125 0.25 0  -0.25 0.125 0  0.25 0.125 0  0.125 0.25 0  0.125 0.125 0  0.125 0 0  -0.125 0.125 0  0 0.125 0  -0.375 -0.125 0  -0.125 0 0  -0.25 -0.125 0  -0.125 -0.125 0  -0.125 -0.375 0  -0.375 -0.625 0  -0.125 -0.5 0  -0.25 -0.625 0  -0.3749999999999999 -0.875 0  -0.125 -0.625 0  0 -0.625 0  -0.2499999999999999 -0.875 0  -0.125 -0.75 0  -0.1249999999999999 -0.875 0  -0.1249999999999999 -0.9999999999999999 0  0 -0.875 0  -0.375 0.625 0  -0.625 0.375 0  -0.375 0.5 0  -0.5 0.375 0  -0.375 0.375 0  -0.25 0.375 0  -0.375 0.25 0  0.1875 0.0625 0  0.1875 0 0  0.0625 0.1875 0  -0.0625 0.1875 0  0 0.1875 0  -0.1875 0.0625 0  -0.1875 0 0  -0.1875 -0.0625 0  0 -0.125 0  0.0625 0.0625 0  0.0625 0 0  -0.0625 0.0625 0  0 0.0625 0  -0.0625 0 0  -0.0625 -0.0625 0  -0.125 -0.25 0  -0.1875 -0.1875 0  -0.0625 -0.1875 0  0.125 0.0625 0  0.0625 0.125 0  -0.0625 0.125 0  -0.125 0.0625 0  -0.125 -0.0625 0  </DataArray>
</Points>
<Cells>
<DataArray  type="UInt32"  Name="connectivity"  format="ascii">0 1 2  2 4 5  1 3 4  1 2 4  9 21 22  8 21 94  8 20 94  5 8 9  8 9 21  6 18 19  3 6 7  7 20 93  7 19 93  6 7 19  4 5 8  7 8 20  3 4 7  4 7 8  78 111 121  75 111 121  78 111 113  51 111 113  78 105 121  75 105 121  78 105 106  47 105 106  76 111 120  75 111 120  76 111 112  51 111 112  76 103 120  75 103 120  76 103 104  45 103 104  45 67 69  39 67 69  38 45 67  40 47 68  47 68 70  39 68 70  39 70 75  47 70 105  70 75 105  39 69 75  45 69 103  69 75 103  18 19 29  30 93 95  20 93 95  19 30 93  29 30 38  19 29 30  21 22 32  31 32 40  21 31 94  31 94 96  20 94 96  21 31 32  39 67 98  30 67 98  30 38 67  20 96 97  31 96 97  20 95 97  30 95 97  31 40 68  39 68 99  31 68 99  39 97 99  31 97 99  39 97 98  30 97 98  22 32 33  33 41 42  32 40 41  32 33 41  46 50 52  49 52 54  42 46 49  46 49 52  47 79 107  79 80 107  53 79 116  79 80 116  78 106 107  47 106 107  78 107 122  80 107 122  78 113 114  51 113 114  78 114 122  80 114 122  40 48 77  40 47 77  48 53 54  48 53 77  53 77 79  47 77 79  41 42 49  48 49 54  40 41 48  41 48 49  64 90 92  63 90 92  64 90 91  62 90 91  63 86 89  61 86 89  63 86 87  60 86 87  62 85 88  61 85 88  59 62 85  61 89 90  63 89 90  61 88 90  62 88 90  80 116 117  53 115 116  56 115 117  115 116 117  80 114 117  51 108 114  56 108 117  108 114 117  53 54 58  60 81 83  58 81 83  56 60 81  53 58 81  56 81 115  53 81 115  50 52 55  55 57 59  52 54 57  52 55 57  58 84 86  61 84 86  58 83 86  60 83 86  54 58 82  54 57 82  57 61 85  57 59 85  61 82 84  58 82 84  57 61 82  17 18 29  28 29 38  16 17 28  17 28 29  45 72 102  72 73 102  43 72 73  76 102 119  73 102 119  76 102 104  45 102 104  76 109 119  73 109 119  76 109 112  51 109 112  34 37 43  37 38 66  38 45 66  37 43 66  43 66 72  45 66 72  10 15 23  15 16 27  23 27 34  15 23 27  28 37 38  27 34 37  16 27 28  27 28 37  11 12 24  12 13 25  24 25 35  12 24 25  10 14 23  23 26 34  13 14 26  14 23 26  44 71 100  71 73 100  43 71 73  74 100 118  73 100 118  74 100 101  44 100 101  74 109 118  73 109 118  74 109 110  51 109 110  35 44 65  35 36 65  34 36 43  36 43 65  43 65 71  44 65 71  13 25 26  26 34 36  25 35 36  25 26 36  </DataArray>
<DataArray  type="UInt32"  Name="offsets"  format="ascii">3 6 9 12 15 18 21 24 27 30 33 36 39 42 45 48 51 54 57 60 63 66 69 72 75 78 81 84 87 90 93 96 99 102 105 108 111 114 117 120 123 126 129 132 135 138 141 144 147 150 153 156 159 162 165 168 171 174 177 180 183 186 189 192 195 198 201 204 207 210 213 216 219 222 225 228 231 234 237 240 243 246 249 252 255 258 261 264 267 270 273 276 279 282 285 288 291 294 297 300 303 306 309 312 315 318 321 324 327 330 333 336 339 342 345 348 351 354 357 360 363 366 369 372 375 378 381 384 387 390 393 396 399 402 405 408 411 414 417 420 423 426 429 432 435 438 441 444 447 450 453 456 459 462 465 468 471 474 477 480 483 486 489 492 495 498 501 504 507 510 513 516 519 522 525 528 531 534 537 540 543 546 549 552 555 558 561 564 567 570 573 576 579 582 585 588 591 594 597 600 603 606 609 612 615 </DataArray>
<DataArray  type="UInt8"  Name="types"  format="ascii">5 5 5 5 5 5 5 5 5 5 5 5 5 5 5 5 5 5 5 5 5 5 5 5 5 5 5 5 5 5 5 5 5 5 5 5 5 5 5 5 5 5 5 5 5 5 5 5 5 5 5 5 5 5 5 5 5 5 5 5 5 5 5 5 5 5 5 5 5 5 5 5 5 5 5 5 5 5 5 5 5 5 5 5 5 5 5 5 5 5 5 5 5 5 5 5 5 5 5 5 5 5 5 5 5 5 5 5 5 5 5 5 5 5 5 5 5 5 5 5 5 5 5 5 5 5 5 5 5 5 5 5 5 5 5 5 5 5 5 5 5 5 5 5 5 5 5 5 5 5 5 5 5 5 5 5 5 5 5 5 5 5 5 5 5 5 5 5 5 5 5 5 5 5 5 5 5 5 5 5 5 5 5 5 5 5 5 5 5 5 5 5 5 5 5 5 5 5 5 5 5 5 5 5 5 </DataArray>
</Cells>
<CellData  Scalars="w"> 
<DataArray  type="Float64"  Name="w"  format="ascii">1.8407129864150061e-05   3.6871755789665383e-05   3.6927073166440850e-05   3.7254398835248660e-05   4.6801051533315810e-05   1.1050957150001580e-05   1.2708919215752492e-05   4.2247144585345897e-05   4.8556932115752788e-05   4.7171783127484315e-05   4.2413900928669512e-05   1.2695129567237622e-05   1.1073299012151081e-05   4.8768572904489323e-05   5.7540827831857895e-05   4.2467699464778502e-05   5.7669543224234454e-05   5.4844111007068282e-05   3.3348083332569859e-06   2.0542921145191354e-06   1.6313631650579947e-04   3.2174516666934609e-03   9.1725206968932068e-07   2.5719325604032142e-06   1.1885900072374212e-06   8.3563245505706099e-07   3.2634857837559773e-06   2.0634011693568566e-06   1.7300020842315775e-04   3.2401197540857180e-03   9.0318536153429254e-07   2.5594689337851645e-06   1.1532568339554030e-06   8.1329659575731600e-07   9.1643680751622943e-06   9.6266493717556228e-06   4.6827687184778960e-05   4.6769908179843976e-05   9.1922942961874574e-06   9.6631413664067962e-06   1.3948919042048008e-05   6.0987092150338727e-06   4.1486484089679315e-06   1.3942447667225272e-05   6.0158915400559038e-06   4.1033078156356451e-06   5.9894059009049586e-05   2.9298910726889752e-06   3.6902608787534055e-06   2.5950578469819674e-05   1.2949507499466660e-04   5.9130837705834684e-05   5.9445914395158384e-05   1.2919008101909595e-04   2.5953106265162265e-05   2.9140240711124311e-06   3.6909906500819001e-06   5.8845783562751003e-05   7.3509692929164452e-06   1.3642688152980745e-05   3.5827071298055236e-05   1.6819234825814271e-06   2.4407751344212704e-06   1.6799480196128696e-06   2.4413692232650052e-06   3.5943694333591813e-05   7.3612158975830986e-06   1.3645946951158514e-05   4.5700019394385808e-06   2.6482173573125972e-06   4.5644188300988375e-06   2.6451703727850473e-06   4.2421073917110266e-05   2.5452015441666767e-05   1.0023703449036030e-04   4.4418951668228170e-05   8.2800475074889083e-06   4.5859548801079650e-05   1.3324472414524827e-05   3.2167303205095565e-05   5.6127360381572942e-06   3.1916340026717792e-06   3.5250631228820685e-06   2.8940154923504485e-06   6.5574993992905371e-07   1.0654622323592728e-06   1.5315852187394723e-06   1.9346980950877880e-06   2.7601737101958315e-04   2.1053087877899255e-03   1.6231909572558271e-06   3.4294353901877868e-06   5.0634017211723078e-05   3.9528342635853451e-05   1.5492016673483494e-04   4.4718093525756192e-05   1.3628750847267654e-05   1.7518031777269629e-05   3.9185042509451469e-05   9.8206249932650125e-05   1.0307442372863837e-04   8.0873426634834729e-05   5.5660250719915320e-07   8.3805269822398908e-07   5.6414895653546422e-07   5.2872216246362755e-07   1.2969632937405558e-06   1.0659596807202307e-06   1.2550917021600410e-06   2.2928049858356536e-06   1.3787010177779403e-06   7.0402454798724131e-07   2.7340202256845860e-06   8.2923235820517562e-07   8.7235041612252811e-07   8.8391528232691149e-07   6.0203355332126358e-07   3.2948295465583739e-06   5.6530627753195909e-06   2.3804342344559621e-06   3.7497103615910974e-06   7.0073394278476011e-06   1.2843727803595914e-03   8.6788800314072849e-06   8.7315201279567300e-05   8.6383010191018185e-05   1.0397459530553496e-05   1.1561769202245678e-05   2.7608539264565742e-05   6.4961464633719022e-05   1.9218480275606646e-05   1.0956976309111501e-05   2.3398241238680997e-05   1.7937377423722803e-05   2.9940470025944555e-05   3.1307354960977871e-05   1.8123644626787799e-06   1.2988428567642552e-06   1.9357965596451376e-06   2.7113223814620111e-06   1.2064987852586786e-05   2.3777823386882699e-05   3.8759333057647348e-06   1.0050732304827487e-05   2.9438617263318601e-06   1.5636986041624018e-06   7.4591921228003560e-06   4.2841697050959134e-05   1.0041421444626864e-04   2.5725535360317935e-05   4.4626467934440812e-05   5.2026730022216138e-06   4.6919646077307008e-06   1.4464200777119904e-05   1.4864973256481875e-06   1.9776901520630620e-06   6.3464362509515726e-07   1.0168779019545538e-06   1.5491831526043256e-06   1.9188020410864849e-06   3.0712475966769841e-04   1.4390705791092334e-03   1.5063565207469571e-04   4.9891258087279670e-05   3.9862824424533584e-05   4.3028526222705929e-05   1.8758379521814334e-05   1.8095032116980884e-05   8.1944755678101007e-06   1.3829025402078081e-05   5.0661681313877855e-05   3.3665307671150971e-05   1.0334678584053071e-04   9.4206289092296338e-05   3.9362984571411806e-05   8.0966326819118965e-05   3.6279959639083424e-05   5.0681806009280204e-05   9.2873762153775384e-05   7.0349495625038881e-05   2.3452159620870976e-05   6.6979181319342079e-05   3.7407152678100763e-05   3.1327966808092555e-05   2.9721163706986838e-06   7.1030134781522656e-06   1.2077519213325920e-05   1.2309129429545859e-06   9.2383657653973645e-07   8.7392004426395143e-07   1.4113990977152240e-06   3.3366829193241516e-06   9.5304773376139364e-07   6.1457034558428864e-05   5.5578379657438362e-04   3.9986263743186239e-05   3.7928577577169909e-05   9.0813038369465279e-05   7.5605291319065759e-05   1.1275830146675666e-05   1.9110310479399147e-05   5.3589923098471100e-05   1.0390052693010287e-04   1.3804691201576205e-04   1.0208100294902649e-04   </DataArray> 
</CellData> 
</Piece>
</UnstructuredGrid>
</VTKFile>