<?xml version="1.0"?>
<VTKFile type="UnstructuredGrid"  version="0.1"  >
<UnstructuredGrid>
<Piece  NumberOfPoints="1004" NumberOfCells="1893">
<Points>
<DataArray  type="Float64"  NumberOfComponents="3"  format="ascii">-1 1 0  -0.75 1 0  -1 0.75 0  -0.5 1 0  -0.75 0.75 0  -1 0.5 0  -0.25 1 0  -0.5 0.75 0  -0.75 0.5 0  -1 0.25 0  1 1 0  1 1.110223024625157e-16 0  1 0.2500000000000001 0  1 0.5 0  1 0.75 0  0.75 1 0  0.5 1 0  0.25 1 0  0 1 0  -0.25 0.75 0  -0.5 0.5 0  -0.75 0.25 0  -1 0 0  0.75 0.75 0  0.75 0 0  0.75 0.25 0  0.75 0.5 0  0.5 0.75 0  0.25 0.75 0  0 0.75 0  -0.25 0.5 0  -0.5 0.25 0  -0.75 0 0  -1 -0.2500000000000001 0  0.5 0.5 0  0.5 0 0  0.5 0.25 0  0.25 0.5 0  0 0.5 0  -0.25 0.25 0  -0.5 0 0  -0.75 -0.2500000000000001 0  -1 -0.5 0  0.25 0.25 0  0.25 0 0  0 0.25 0  -1 -0.75 0  -0.25 0 0  -0.5 -0.25 0  -0.75 -0.5 0  -0.9999999999999999 -1 0  0 0 0  -0.75 -0.75 0  -0.25 -0.25 0  -0.5 -0.5 0  -0.7499999999999999 -1 0  0 -0.25 0  -0.5 -0.75 0  -0.25 -0.5 0  -0.4999999999999999 -0.9999999999999999 0  0 -0.5 0  -0.25 -0.75 0  -0.2499999999999999 -0.9999999999999999 0  0 -0.75 0  0 -0.9999999999999999 0  0.375 0.125 0  0.125 0.375 0  -0.125 0.375 0  -0.375 0.125 0  -0.125 0.25 0  -0.25 0.125 0  0.25 0.125 0  0.125 0.25 0  0.125 0.125 0  0.125 0 0  -0.125 0.125 0  0 0.125 0  -0.375 -0.125 0  -0.125 0 0  -0.25 -0.125 0  -0.125 -0.125 0  -0.125 -0.375 0  -0.375 -0.625 0  -0.125 -0.5 0  -0.25 -0.625 0  -0.3749999999999999 -0.875 0  -0.125 -0.625 0  0 -0.625 0  -0.2499999999999999 -0.875 0  -0.125 -0.75 0  -0.1249999999999999 -0.875 0  -0.1249999999999999 -0.9999999999999999 0  0 -0.875 0  -0.375 0.625 0  -0.625 0.375 0  -0.375 0.5 0  -0.5 0.375 0  -0.375 0.375 0  -0.25 0.375 0  -0.375 0.25 0  0.1875 0.0625 0  0.1875 0 0  0.0625 0.1875 0  -0.0625 0.1875 0  0 0.1875 0  -0.1875 0.0625 0  -0.1875 0 0  -0.1875 -0.0625 0  0 -0.125 0  0.0625 0.0625 0  0.0625 0 0  -0.0625 0.0625 0  0 0.0625 0  -0.0625 0 0  -0.0625 -0.0625 0  -0.125 -0.25 0  -0.1875 -0.1875 0  -0.0625 -0.1875 0  0.125 0.0625 0  0.0625 0.125 0  -0.0625 0.125 0  -0.125 0.0625 0  -0.125 -0.0625 0  0.875 0.375 0  0.125 0.875 0  0.625 0.625 0  0.75 0.375 0  0.625 0.125 0  0.625 0.25 0  0.625 0.5 0  0.625 0.375 0  0.375 0.625 0  0.125 0.75 0  0.25 0.625 0  0.125 0.625 0  -0.125 0.625 0  0 0.625 0  -0.125 0.5 0  -0.625 0.125 0  -0.5 0.125 0  -0.625 0 0  0.5 0.375 0  0.375 0.5 0  0.375 0.375 0  0.5 0.125 0  0.125 0.5 0  0.25 0.375 0  -0.625 -0.125 0  -0.5 -0.125 0  -0.625 -0.25 0  -0.625 -0.375 0  -0.375 -0.25 0  -0.5 -0.375 0  0 -0.0625 0  0.03125 0.03125 0  0.03125 0 0  -0.03125 0.03125 0  0 0.03125 0  -0.03125 0 0  -0.03125 -0.03125 0  -0.375 -0.375 0  0.09375 0.03125 0  0.03125 0.09375 0  -0.03125 0.09375 0  0 0.09375 0  -0.09375 0.03125 0  -0.09375 0 0  -0.09375 -0.03125 0  -0.03125 -0.09375 0  0.0625 0.03125 0  0.03125 0.0625 0  -0.03125 0.0625 0  -0.0625 0.03125 0  -0.0625 -0.03125 0  -0.0625 -0.125 0  -0.875 0.875 0  -0.625 1 0  -0.75 0.875 0  -0.875 0.75 0  -1 0.625 0  -0.625 0.875 0  -0.375 1 0  -0.5 0.875 0  -0.875 0.625 0  -0.625 0.75 0  -0.75 0.625 0  -0.875 0.5 0  -1 0.375 0  -0.375 0.875 0  -0.125 1 0  -0.25 0.875 0  -0.625 0.625 0  -0.375 0.75 0  -0.5 0.625 0  -0.875 0.375 0  -0.625 0.5 0  -0.75 0.375 0  -0.875 0.25 0  -1 0.125 0  0.875 0.1250000000000001 0  0.875 0.2500000000000001 0  -0.125 0.875 0  -0.875 0.125 0  -0.75 0.125 0  -0.875 0 0  -1 -0.125 0  0.75 0.125 0  -0.875 -0.125 0  -0.75 -0.125 0  -0.875 -0.2500000000000001 0  0 0.375 0  -0.0625 0.4375 0  -0.375 0 0  -0.4375 0.0625 0  -0.875 -0.375 0  -0.0625 0.3125 0  -0.875 -0.625 0  -0.3125 0.0625 0  -0.75 -0.625 0  -0.625 -0.5 0  0 -0.03125 0  0.015625 0.015625 0  0.015625 0 0  -0.015625 0.015625 0  0 0.015625 0  -0.015625 0 0  -0.015625 -0.015625 0  -0.625 -0.625 0  0.046875 0.015625 0  0.015625 0.046875 0  -0.015625 0.046875 0  0 0.046875 0  -0.046875 0.015625 0  -0.046875 0 0  -0.046875 -0.015625 0  -0.015625 -0.046875 0  0.03125 0.015625 0  0.015625 0.03125 0  -0.015625 0.03125 0  -0.03125 0.015625 0  -0.03125 -0.015625 0  -0.03125 -0.0625 0  1 0.875 0  0.875 0.875 0  1 0.625 0  0.875 0.5 0  0.875 0.75 0  0.875 0.625 0  0.625 1 0  0.75 0.875 0  0.625 0.875 0  0.5 0.875 0  0.375 0.875 0  -0.125 0.75 0  -0.25 0.625 0  -0.1875 0.6875 0  0.75 0.625 0  0.625 0.75 0  0.6875 0.6875 0  0.375 0.75 0  0.5 0.625 0  0.5625 0.6875 0  0.4375 0.6875 0  0.3125 0.6875 0  -0.1875 0.5625 0  0.375 0 0  0.4375 0.0625 0  0.375 0.25 0  0.4375 0.1875 0  0.5625 0.1875 0  0.4375 0.3125 0  0.5 0.1875 0  -0.1875 0.3125 0  -0.3125 0.1875 0  -0.1875 0.25 0  -0.25 0.1875 0  -0.1875 0.1875 0  0.3125 0.1875 0  0.1875 0.3125 0  0.25 0.1875 0  0.1875 0.25 0  0.1875 0.1875 0  0.3125 0.3125 0  0.3125 0.0625 0  0.25 0.0625 0  0.0625 0.3125 0  -0.4375 -0.3125 0  -0.875 -0.875 0  -0.8749999999999999 -1 0  0 -0.015625 0  0.0078125 0.0078125 0  0.0078125 0 0  -0.0078125 0.0078125 0  0 0.0078125 0  -0.0078125 0 0  -0.0078125 -0.0078125 0  -0.75 -0.875 0  -0.625 -0.75 0  -0.25 -0.375 0  -0.3125 -0.1875 0  -0.1875 -0.3125 0  -0.3125 -0.25 0  -0.3125 -0.3125 0  -0.5 -0.625 0  -0.375 -0.5 0  -0.4375 -0.5625 0  -0.4375 -0.4375 0  -0.625 -0.875 0  -0.6249999999999999 -1 0  0 -0.375 0  -0.0625 -0.3125 0  -0.0625 -0.25 0  -0.4999999999999999 -0.875 0  -0.375 -0.75 0  -0.4375 -0.8125 0  -0.1875 -0.4375 0  -0.3125 -0.5625 0  -0.1875 -0.5 0  -0.1875 -0.5625 0  -0.3125 -0.4375 0  -0.3749999999999999 -0.9999999999999999 0  -0.4374999999999999 -0.9375 0  -0.0625 -0.4375 0  0.3125 0.125 0  0.4375 0.125 0  0.125 0.3125 0  -0.125 0.1875 0  -0.1875 0.125 0  0.1875 0.125 0  0.125 0.1875 0  -0.125 -0.4375 0  -0.125 -0.3125 0  -0.375 -0.3125 0  0 -0.046875 0  0.0234375 0.0078125 0  0.0078125 0.0234375 0  -0.0078125 0.0234375 0  0 0.0234375 0  -0.0234375 0.0078125 0  -0.0234375 0 0  -0.0234375 -0.0078125 0  -0.0078125 -0.0234375 0  -0.0078125 -0.0390625 0  0.015625 0.0078125 0  0.0078125 0.015625 0  -0.0078125 0.015625 0  -0.015625 0.0078125 0  -0.015625 -0.0078125 0  -0.015625 -0.03125 0  -0.6875 0.4375 0  1 0.1250000000000001 0  0.875 5.551115123125783e-17 0  0.9375 0.06250000000000008 0  0.9375 0.1875000000000001 0  0.375 1 0  0.125 1 0  0.25 0.875 0  0.1875 0.9375 0  0.3125 0.9375 0  0 0.875 0  0.0625 0.9375 0  -0.0625 0.9375 0  -0.4375 0.4375 0  -0.625 0.25 0  -0.6875 0.3125 0  -0.6875 0.1875 0  -0.8125 0.3125 0  -0.75 0.3125 0  0.625 0 0  0.6875 0.0625 0  0.8125 0.06250000000000003 0  0.75 0.0625 0  0.6875 0.1875 0  0.1875 0.8125 0  0.3125 0.8125 0  0.0625 0.8125 0  -0.0625 0.8125 0  -0.1875 0.4375 0  -0.3125 0.5625 0  -0.3125 0.5 0  -0.3125 0.4375 0  -0.25 0.4375 0  -0.1875 0.5 0  -0.4375 0.1875 0  -0.5625 0.3125 0  -0.5 0.3125 0  -0.4375 0.3125 0  -0.4375 0.25 0  -0.5625 0.1875 0  -0.5 0.1875 0  -1 -0.375 0  0.5625 0.0625 0  0.5 0.0625 0  0.1875 0.4375 0  0.1875 0.5625 0  0.3125 0.4375 0  0.1875 0.5 0  0.25 0.4375 0  0.0625 0.4375 0  0.0625 0.5625 0  0.0625 0.5 0  0 0.4375 0  -0.3125 0.3125 0  -0.25 0.3125 0  -0.3125 0.25 0  -0.4375 -0.0625 0  -0.5625 0.0625 0  -0.5625 -0.06250000000000001 0  -0.5 -0.0625 0  -0.4375 0 0  -0.75 -0.375 0  -0.6875 -0.3125 0  -0.8125 -0.3125 0  -1 -0.625 0  -0.875 -0.5 0  -0.9375 -0.4375 0  -0.9375 -0.5625 0  -0.875 -0.75 0  -0.9375 -0.6875 0  -0.25 0.0625 0  -0.3125 -0.0625 0  -0.25 -0.0625 0  -0.21875 -0.03125 0  -0.3125 0 0  -0.28125 0.03125 0  -0.4375 -0.1875 0  -0.5625 -0.1875 0  -0.5 -0.1875 0  -0.6875 -0.4375 0  -0.8125 -0.4375 0  -0.8125 -0.5625 0  0 -0.0078125 0  0.00390625 0.00390625 0  0.00390625 0 0  -0.00390625 0.00390625 0  0 0.00390625 0  -0.00390625 0 0  -0.00390625 -0.00390625 0  -0.8125 -0.6875 0  -0.25 -0.1875 0  -0.1875 -0.25 0  -0.21875 -0.21875 0  0 -0.1875 0  -0.03125 -0.21875 0  0.125 0.4375 0  0.1875 0.375 0  0.0625 0.375 0  -0.1875 0.375 0  -0.125 0.4375 0  -0.375 0.1875 0  -0.4375 0.125 0  -0.3125 -0.125 0  -0.4375 -0.125 0  -0.375 -0.1875 0  -0.375 -0.0625 0  -0.34375 -0.15625 0  -0.1875 -0.125 0  -0.21875 -0.09375 0  -0.21875 -0.15625 0  -0.28125 -0.15625 0  -0.15625 -0.09375 0  -0.15625 -0.15625 0  -0.09375 -0.15625 0  -0.6875 0.375 0  -0.375 0.4375 0  -0.4375 0.375 0  -0.3125 0.375 0  -0.375 0.3125 0  -0.03125 -0.15625 0  -0.15625 -0.21875 0  -0.09375 -0.21875 0  -0.125 -0.1875 0  0.5625 0.125 0  0.6875 0.125 0  0.125 0.5625 0  -0.5625 0.125 0  0.3125 0.375 0  -0.5625 -0.125 0  -0.34375 0.03125 0  -0.375 0.0625 0  0 -0.0234375 0  0.01171875 0.00390625 0  0.01171875 0 0  0.00390625 0.01171875 0  -0.00390625 0.01171875 0  0 0.01171875 0  -0.01171875 0.00390625 0  -0.01171875 0 0  -0.01171875 -0.00390625 0  -0.00390625 -0.01171875 0  -0.00390625 -0.01953125 0  0.0078125 0.00390625 0  0.00390625 0.0078125 0  -0.00390625 0.0078125 0  -0.0078125 0.00390625 0  -0.0078125 -0.00390625 0  -0.0078125 -0.015625 0  -0.875 1 0  -1 0.875 0  -0.9375 0.9375 0  -0.8125 0.9375 0  -0.9375 0.8125 0  -0.4375 0.6875 0  -0.4375 0.8125 0  -0.5625 0.6875 0  -0.4375 0.75 0  -0.5 0.6875 0  -0.6875 0.5625 0  1 0.3750000000000001 0  0.9375 0.3125000000000001 0  0.9375 0.2500000000000001 0  0.9375 0.4375 0  -0.3125 0.6875 0  -0.25 0.6875 0  -0.4375 0.5625 0  -0.5625 0.4375 0  -0.4375 0.5 0  -0.5 0.4375 0  -0.5625 0.5625 0  -0.5 0.5625 0  -0.5625 0.5 0  -0.8125 0.1875 0  0.8125 0.3125 0  0.75 0.3125 0  0.6875 0.25 0  0.6875 0.3125 0  0.8125 0.4375 0  0.6875 0.5625 0  0.6875 0.5 0  0.6875 0.4375 0  0.1875 0.6875 0  0.0625 0.75 0  0.0625 0.6875 0  -0.0625 0.6875 0  0 0.6875 0  -0.6875 0.0625 0  -0.6875 0 0  -0.6875 -0.06250000000000001 0  -0.8125 0.0625 0  -0.75 0.0625 0  -0.8125 -0.06250000000000001 0  -0.75 -0.06250000000000001 0  0.5625 0.5625 0  0.5625 0.5 0  0.5625 0.4375 0  0.4375 0.5625 0  0.5 0.4375 0  0.4375 0.5 0  0.4375 0.4375 0  0.5 0.5625 0  0.5625 0.25 0  0.5625 0.3125 0  0.5 0.3125 0  0.3125 0.5625 0  0.25 0.5625 0  0.3125 0.5 0  -0.0625 0.5625 0  0 0.5625 0  -0.0625 0.5 0  -0.6875 -0.1875000000000001 0  -0.8125 -0.1875000000000001 0  -0.75 -0.1875000000000001 0  0.3125 0.25 0  0.28125 0.21875 0  0.3125 0 0  0.28125 0.03125 0  -0.0625 0.25 0  0.0625 0.25 0  0.03125 0.21875 0  -0.03125 0.21875 
[...]
<CellData  Scalars="w"> 
<DataArray  type="Float64"  Name="w"  format="ascii">2.5983276824554020e-08   2.5915744854940631e-08   2.5331478896216667e-08   2.8512441473493107e-08   2.5985714048873265e-08   2.5918126812819577e-08   2.5339826747135858e-08   2.8517509799703334e-08   5.0009692928033588e-09   4.8489380634396007e-09   5.2244283298027486e-09   6.2640817994770848e-09   5.4615897947505790e-09   5.5623895358001467e-09   5.4592680681635790e-09   6.5067753396952407e-09   5.5787961958550313e-09   4.8472286260495954e-09   5.6207274761265082e-09   6.0723259754231854e-09   6.2359521883096062e-09   7.0534871748064742e-09   6.3483627803549310e-09   6.8835734685165004e-09   5.5829731645577724e-09   4.8513249254903498e-09   5.6243783434690024e-09   6.0795554200800536e-09   6.2387049566358884e-09   7.0531162631545137e-09   6.3506104870686665e-09   6.8905502949057173e-09   5.0073450986469449e-09   4.8532536124322759e-09   5.2305315592892625e-09   6.2718143258936725e-09   5.4693833432283800e-09   5.5704258945832844e-09   5.4668140952702835e-09   6.5177709801654685e-09   5.7035873364563420e-09   5.0613711084087118e-09   5.7052546078757203e-09   6.3510105564974468e-09   5.1183014728194854e-09   9.5811275840368113e-09   5.2134138714269124e-09   8.7302664004338463e-09   5.7047680905191314e-09   5.0612139467584613e-09   5.7063120577566357e-09   6.3507580014480945e-09   5.1203878978976718e-09   9.5836965287645962e-09   5.2154017873093046e-09   8.7353827459615195e-09   5.7487206031938264e-09   6.4126890136854611e-09   8.5763229536887405e-09   1.0085586672532937e-08   5.7994126870917344e-09   4.9713115741739476e-09   7.8998185533143031e-09   8.7521772459445061e-09   8.8542242991600905e-09   7.3244959261147810e-09   1.1089155605473620e-08   1.0249003019360462e-08   6.2880077057231653e-08   1.1522497629905542e-08   1.0746347217852123e-08   1.4268907185304626e-08   4.7484331656165706e-08   1.5975115874080624e-08   5.0551228266329969e-08   1.3720007057514694e-08   4.2433536749969654e-08   1.3178525685993269e-08   2.0739494505137763e-08   7.8578363513570182e-08   4.1916172016279700e-08   2.0466059680657431e-08   9.5188085341400874e-08   7.3727827759327468e-08   5.8796659913648033e-09   6.0372401370000595e-09   6.9813434149127645e-09   8.5365757193084612e-09   6.2454358675707437e-09   5.8196001548060741e-09   6.7912904874286846e-09   8.0439904834485388e-09   7.4386823989351846e-09   6.1865075957665099e-09   7.9158887492127487e-09   8.0900663758591024e-09   8.7468028175802901e-09   1.0618268388207486e-08   9.3146026887503090e-09   9.5889392114491900e-09   3.0213995686466831e-08   1.1534018988126008e-08   6.6232804061665678e-08   8.8252214965485599e-09   9.2854766437286845e-09   8.5641596365205181e-09   7.4555471885803319e-09   1.0522645652661988e-08   1.0352707280864445e-08   1.2489326387050622e-08   1.5680343281518000e-08   1.1551661404334173e-08   1.0104578784871824e-08   1.1128068917751914e-08   1.1252617061424851e-08   8.6156239833133617e-09   7.5401908964819112e-09   9.8223244362342044e-09   9.5899852186985687e-09   1.0692518699579139e-08   1.2480000849356340e-08   1.0850084001399015e-08   9.3274179598145226e-09   5.3991422875484882e-09   6.3568427473781458e-09   8.7500874280390921e-09   1.0602895995583040e-08   2.9412688977194171e-08   2.4132426777168979e-08   2.2425953167263666e-08   7.4159169873721252e-09   6.1989343022398896e-09   7.8739678971830906e-09   8.0541519807064251e-09   8.6856870781778789e-09   1.0285297121115426e-08   9.3518355109489584e-09   9.1899721670433486e-09   5.9369652920664390e-09   6.0513473704947320e-09   6.9857221409438153e-09   8.4664276856210600e-09   6.4020646981687106e-09   6.0398026117121427e-09   6.8921777816416099e-09   8.1427214925148057e-09   1.7688134360625848e-08   1.9712438702380143e-08   1.7062976209891639e-08   2.0474734335571515e-08   1.4724232391852113e-08   1.5878586531449839e-08   1.4450148937548686e-08   1.2012120253199586e-08   1.4233969109121475e-08   1.7601434525630728e-08   1.5313908437916372e-08   1.5065782514216981e-08   1.3960414716286464e-08   1.6940957359615864e-08   1.3278404079820839e-08   1.2661691183536482e-08   1.1747945084439513e-08   9.8713920350320820e-09   1.2787809462228080e-08   1.2472511969206200e-08   1.1724571101114837e-08   9.9503883882026222e-09   1.1001881009107472e-08   1.0669840091162797e-08   1.0176046114878810e-08   1.0500307814524231e-08   1.1376932397922087e-08   1.3269679238350104e-08   8.9327873008076770e-09   9.0349613103953413e-09   9.2532871031096837e-09   7.7843015668272043e-09   8.1358968113764873e-09   7.6895968923981972e-09   8.3321451746368488e-09   9.6206999018396654e-09   7.0639093688716836e-09   6.6879703842371442e-09   7.3946301580972203e-09   6.0905720538568006e-09   8.5316786451966954e-09   7.4099212140168778e-09   8.6455257945707913e-09   9.2371584805922247e-09   7.9455506658600901e-09   6.9430417981548436e-09   7.7802812155196548e-09   7.0618367134854816e-09   1.5493171515103774e-08   1.3082834180796754e-08   1.5439129316781116e-08   1.7565623721895594e-08   2.4368541101738246e-08   1.1078524315346301e-08   5.5656379310746905e-08   1.5038657705593820e-08   1.3059190546867366e-08   1.5070500754524035e-08   1.7569449356907964e-08   1.2762842399667822e-08   1.1393402715405449e-08   1.3144668817112251e-08   1.1169865806286383e-08   8.6190962998284115e-09   7.4347391117144628e-09   8.7137922112243655e-09   9.3531180633605682e-09   7.9342670931286397e-09   6.9470904925973159e-09   7.7729717138633027e-09   7.0614471371446370e-09   8.1558057862794854e-09   7.7214129447575032e-09   8.3816240551034483e-09   9.7736732972811306e-09   7.0685103106066579e-09   6.7015478699914202e-09   7.3941568452315936e-09   6.0963859980677179e-09   9.0138735970296059e-09   7.9702273671721075e-09   9.0232926486229219e-09   1.0138831978578168e-08   1.0291381027388436e-08   2.7941435172904989e-08   1.1009131783351410e-08   1.0027336631262675e-08   8.8862965395910987e-09   7.9699715675427832e-09   8.9008212857227938e-09   1.0153157582946005e-08   1.0082167929439121e-08   1.1012998156131782e-08   1.1375403689303778e-08   9.8401332818537189e-09   3.2089810159356388e-08   7.5297641168594230e-08   4.0163348357744384e-08   2.8988168537799458e-08   2.8444433111536176e-08   4.8781963090859389e-08   2.6616407786746081e-08   1.9325841926848114e-08   9.7493078856671616e-08   9.4427710039433497e-08   9.7080849594443887e-08   6.6574589921809747e-08   3.8830685878711233e-08   5.1336165164113514e-08   1.3268813626954337e-07   9.6739813910974854e-09   2.4869573586038197e-08   9.4938696405507861e-09   7.1061293534712435e-09   3.7702288585034136e-09   5.1401296945935045e-09   1.2618748542796041e-08   9.5718252419619755e-10   2.4429699128895645e-09   9.4782786659029601e-10   7.0301004140006027e-10   3.7394096390982084e-10   5.1082582843681902e-10   1.2466167537948947e-09   9.5312442421011828e-11   2.4290940376899222e-10   9.4376294025647246e-11   6.9870200032464305e-11   3.7326550292433473e-11   5.1001142639517809e-11   1.2419581994262961e-10   9.5435694148358922e-12   2.4240643956553232e-11   9.5152776251706255e-12   7.0107455147198931e-12   3.6605271612221759e-12   5.1219815647885628e-12   1.2339699250122079e-11   8.5502451802840004e-13   2.3446233535997467e-12   1.1461765320003591e-12   7.6991742024524078e-13   3.1590697512229809e-12   1.9234798044255068e-12   5.5965679496175868e-07   1.1545243878100029e-05   1.7909074762248819e-08   1.1014782831268552e-08   2.4992425209622423e-08   2.1795857880951931e-08   1.8229343991391519e-08   1.2434319283012941e-08   1.5639560099252523e-08   1.3077788302189054e-08   1.1404814847021630e-08   1.3403937451972480e-08   1.9319294149050303e-08   2.5806735465389268e-08   7.8742613438405729e-09   2.2245396873892612e-08   5.3366637483615881e-08   3.2584737974707563e-08   7.5688281437673699e-08   4.1416891808522940e-08   3.2052821144301560e-08   2.8491448210576021e-08   4.8718166738445481e-08   2.6715185193784678e-08   1.9321791192065752e-08   9.6801354060066555e-08   9.4250036878647326e-08   9.2758211335768771e-08   6.3159327983075370e-08   3.8844421815544304e-08   5.0865904266903969e-08   1.3258395259061916e-07   9.6447017357078093e-09   2.4784980805105760e-08   9.4689962941279167e-09   7.0925389874508889e-09   3.7745592706692566e-09   5.1278910728748747e-09   1.2612674647789714e-08   9.5630258575298162e-10   2.4401027635450308e-09   9.4755229862581106e-10   7.0316693947124442e-10   3.7438987052116786e-10   5.1026804991819436e-10   1.2462095479098600e-09   9.5242142801288691e-11   2.4271132256706918e-10   9.4393052387308026e-11   6.9915752238193061e-11   3.7324467756328451e-11   5.0927481288460600e-11   1.2416057906590729e-10   9.5124745955761815e-12   2.4197031294573353e-11   9.4950897805315534e-12   7.0044910192783323e-12   3.6318625411174936e-12   5.0827837052591816e-12   1.2337351885803568e-11   8.4449373295735511e-13   2.3356473401341867e-12   1.1166995268635880e-12   7.5537921124667174e-13   3.0869066465608224e-12   1.9301551201801546e-12   5.9450900817500309e-07   1.1623699869167372e-05   1.7429147548815418e-08   1.0380351498182375e-08   2.5321551415849326e-08   2.1271726029915843e-08   1.8171074214646171e-08   1.2335136929008786e-08   1.5628023566591783e-08   1.3068018275892987e-08   1.0608873032389063e-08   1.2729346644816458e-08   1.6825942346114043e-08   2.1545945650810233e-08   8.6758865063898110e-09   1.0961803966281726e-08   8.4945666524014750e-09   6.6777068428202711e-09   4.3724693482577673e-08   2.0837853771558639e-08   1.1797352350445878e-07   1.7727060919307701e-08   2.7272970798443729e-08   4.5259361599471813e-08   3.6861811371485634e-08   1.3108022491456791e-07   1.2660761860099164e-07   1.5042234691541406e-07   1.2090492096534488e-07   8.7516575310156369e-08   9.2349015493476581e-08   1.1995237530209272e-08   2.7244384894709820e-08   4.5534996996209984e-08   3.6217895737028742e-08   5.1229569887413404e-08   2.5788767641083807e-08   3.4852565087853349e-08   2.0202248466391833e-08   3.9400831899178445e-08   2.2224192945825281e-08   1.7550332159513977e-08   1.4180577637700716e-08   1.3877844780159312e-08   6.3876488268751993e-08   7.2256409061704004e-08   2.2572418528770101e-08   1.1028057478884807e-08   2.4968682027756348e-08   9.4619191970264171e-08   2.0538452244533300e-08   3.0978032797014584e-08   4.0563623084308929e-08   2.4892969678254519e-08   8.3162274156458104e-08   1.3285494692269908e-08   2.2856854479431094e-08   1.5497020763629063e-08   2.1827976301232647e-08   4.5495576254518187e-09   8.0987819222857018e-09   3.8862559993984831e-09   1.0718257328167743e-08   3.2065172817104454e-09   3.0444064179021699e-09   3.0313998653806000e-08   1.1726530221633025e-08   1.0025038058896114e-08   2.2104091360533344e-08   1.7582153534100391e-08   2.6316079396906177e-08   8.2735852868214597e-09   4.7007543890279319e-09   9.7720369788901770e-08   3.3583047638386950e-09   4.3719885694360427e-09   2.9708417198942539e-09   4.3622606517024196e-09   2.1800387404495215e-08   6.9271879829473335e-09   7.4224067588237350e-09   5.1037828277632477e-09   4.4190485220762787e-09   5.4345625819135254e-09   4.3379143298596465e-09   7.0265186459205134e-09   5.7314398651930221e-09   7.1395226158612070e-09   9.7384305736050612e-09   3.3812536305268422e-08   1.4068058106176739e-08   5.2416237881964618e-09   4.5672179814846411e-08   4.7050735562979966e-08   9.6415162070829549e-09   1.0946688784755826e-08   8.4147800863479355e-09   1.2737720778096287e-08   6.4715985317585501e-09   8.1959729833295701e-09   5.3932065277026124e-09   4.4785949075698886e-09   4.8347241899876398e-08   2.5890579681557932e-08   2.9938442955861635e-08   1.9498080274238033e-08   4.8824998520290360e-09   1.0923635505694300e-08   5.3385957326261061e-09   7.7149927991510754e-09   6.9879243676164210e-09   5.7266275062532267e-09   7.1046478066591373e-09   9.7347849067152839e-09   4.0630512984248213e-08   5.5419733660494270e-08   2.5372117207742157e-08   5.2417479021508763e-08   9.5880349402670157e-09   1.0676075076236535e-08   8.4542387061860164e-09   1.2728630125998324e-08   6.6793537123830783e-09   1.9621584846951832e-08   5.8887190626952500e-09   1.4017798615163411e-08   1.2035206416721874e-08   1.1756288979524298e-08   9.9705807456227372e-08   1.5930326561566048e-08   1.3204634820950618e-08   1.4169515249733212e-08   1.4640574771672342e-08   6.6694836224132796e-08   7.1189767270733110e-08   1.6567829556063837e-07   1.2121113774507290e-07   2.4624288058087407e-08   2.2026988224814110e-08   2.6948285305028925e-08   4.1802149266738600e-08   2.4119159981328976e-08   2.0120690921981155e-08   2.3233145766208720e-08   2.0546711823795428e-08   6.3924201417610905e-08   2.3981158032610840e-08   1.4219107182450150e-07   1.9136148422507549e-08   1.8902194670867219e-08   2.0750236736010724e-08   1.6853091120947224e-08   3.5810529318554752e-08   2.9929641056064812e-08   4.7487888284148901e-08   4.1653593194781258e-08   4.0336024822290088e-08   8.3364166468666332e-08   3.6930471404894899e-08   1.0479298779382621e-07   2.5904197515826149e-08   3.0535394726550916e-08   3.4698093906823842e-08   3.8824056454854187e-08   2.2913766571185194e-08   6.2199589172755512e-08   2.2906779286728964e-08   1.7139715000128023e-08   1.4393211949160715e-07   6.2331527340185316e-08   1.6550546753089494e-08   1.5339130182071511e-07   1.4520544274315060e-07   1.5663256531907674e-07   1.1265441914689998e-07   1.3145466112960877e-07   5.3658118784244427e-08   1.7888466692879288e-08   2.9359350057645887e-08   1.3606169610189810e-08   7.7342754374181504e-08   1.0723013370839540e-08   1.1609096856394666e-08   8.5172629979753850e-09   8.0404568240698966e-09   1.1816482712639516e-08   1.2331280660277086e-08   1.5980419009682992e-08   1.3881592587901740e-08   4.0475268901582269e-08   1.3064433240316351e-08   1.0950119078939863e-07   6.6438557749403451e-09   9.6312495222353350e-09   2.2994462445784529e-08   6.6166564745378359e-09   1.7425320171907098e-08   4.4148493675295140e-09   6.5443264542329988e-09   2.3166263603222972e-08   2.4936523857670735e-08   1.9637434425278420e-08   1.9737210629518123e-08   3.2038998462827464e-08   3.0497610855594201e-08   3.0886638783592364e-08   1.2965632448236173e-08   6.6359143124752632e-09   3.9936284976675190e-08   7.3419568707416572e-08   3.6404242772728468e-08   1.0395436199510788e-07   1.0240114153824852e-07   1.0547559878630253e-07   2.2439388425296982e-07   1.8674095121831401e-07   2.6861537981659716e-08   3.4378072870874862e-08   2.8133144240599197e-08   4.1087323779249900e-08   2.3865648324074945e-08   3.4852407409356585e-08   2.2298546510884704e-08   2.0555118897014124e-08   2.1286208287633949e-08   2.2515167676773145e-08   1.9607770649594503e-08   1.8359249727418037e-08   2.1871402995478009e-08   2.5009949154713454e-08   9.0477778328830221e-08   1.2783395674744893e-07   2.1480626660583397e-07   1.5342849647268638e-07   2.1442486561187972e-07   9.4392380817410238e-08   1.0430047870217135e-07   8.4999011238660816e-08   1.1437784289204664e-07   6.7489126506196190e-08   6.7401148516796642e-08   6.0759539671983429e-08   4.3001485062654122e-08   5.3453899444687772e-08   6.4640226401575396e-08   5.8571251303921952e-08   4.6372936589379991e-08   5.7792240566715959e-08   7.6667847782646171e-08   4.7548510141294003e-08   4.8897593528923991e-08   2.9263741596384715e-08   2.4834716077425031e-08   2.9442208113619881e-08   3.6471519030624615e-08   3.7066120297129339e-08   4.3615537217535253e-08   3.4396704125264148e-08   4.4703893649729741e-08   2.9087389368986795e-08   2.4830653873086610e-08   2.9283873336728431e-08   3.6516209874289910e-08   3.6537753880365298e-08   4.3145368555808884e-08   3.3746514451837088e-08   4.4184998442271498e-08   1.3791295497176764e-08   1.7253281851648370e-08   5.2645212281269612e-08   1.1594790391990607e-08   1.0932522644010898e-08   5.8222358429845843e-09   8.8774062098928596e-09   3.8776301896437397e-08   1.0894733458919065e-08   2.0192189287099671e-08   3.6816416685900649e-08   4.9456127417763962e-08   2.8466989027683007e-09   5.4091728145159944e-09   9.0736512989119915e-09   1.2456812851741770e-09   4.1608635734024271e-09   1.4445188773479440e-09   4.5767261077315420e-09   1.3511748309792359e-08   2.1313209417201781e-08   8.4462507680113741e-08   5.3799812372622001e-08   1.9550577797224497e-08   3.9345889218819413e-09   1.9916193631530109e-09   4.8384885668098871e-08   4.3069873493015074e-08   6.1289578896771098e-08   5.6166645446962391e-08   7.1565229617909942e-08   1.0751775653502508e-07   5.3958179294386122e-08   4.4897165931377899e-08   5.8323975967991868e-08   4.4932429772167910e-08   7.2668784740007870e-08   5.6331224682518048e-08   7.4001833709309592e-08   1.0667267535573885e-07   5.2658003412983015e-08   4.4494426964499805e-08   5.6718875150349370e-08   4.4180791199658265e-08   4.0502536727275240e-09   5.0003391158435361e-09   8.8218184389542193e-09   9.2737630348828034e-09   8.7706263798870716e-09   1.6238345966187941e-08   9.0492193371485681e-09   8.4435231078362934e-09   7.6852258754319217e-09   1.2738380370642818e-08   1.1115502077065015e-08   7.4044097786111312e-08   1.1382880325858788e-08   1.0979303388505802e-08   7.4809308188379053e-08   3.7881624192734302e-10   5.6585640211904938e-08   7.1622869874498193e-09   7.7304297401679568e-09   1.4949157411021690e-08   1.1295250612231275e-08   1.3879272368875429e-08   7.1010899801751801e-08   1.5904509728423584e-08   1.4112760255880118e-08   2.0309716264020901e-08   2.4514814117689701e-08   1.6685800238239217e-08   3.1552471445565547e-08   2.1402105818159995e-08   2.3580685054765203e-08   1.6804888498872179e-08   1.8129112848940385e-08   1.8925325603270907e-08   1.6908027594589759e-08   2.5112566277054609e-08   2.3205122415116091e-08   2.2323346399086983e-08   3.3356027279600166e-08   2.2688711994544763e-08   2.6075809646274886e-08   1.8241450869167466e-08   1.1635310367202435e-08   7.6874267052771628e-08   1.0330699834633866e-08   1.0827902460188429e-08   7.8613102314312284e-09   8.6680746799883942e-09   1.0483276978386149e-08   1.0876043250151509e-08   1.6217465588630470e-08   1.7645882690462596e-08   1.2246953695388184e-08   1.0894505289391007e-08   1.6762605065887999e-08   3.3830910937086133e-08   4.3341976817394772e-08   3.7037258688493128e-08   3.6092982962934231e-08   3.7319827255123095e-08   2.7758756291238242e-08   1.0090622566366146e-08   3.1032012213264043e-08   6.0099026217628176e-09   9.2470278927442033e-08   9.6551145030818081e-09   1.1044767314153195e-08   1.9262957879416421e-08   4.2020348532732637e-08   1.2759843402496048e-08   1.1365991172136720e-08   8.8534456661443718e-08   9.3082419126922203e-09   2.2031964790140719e-08   8.5244487910262169e-09   8.1697698613540945e-09   9.0038564525407254e-09   9.3818661235785447e-09   6.2654377797130641e-08   6.2507859079180399e-08   1.0674148014960810e-07   9.6724679867481118e-08   4.4963315639999673e-08   2.4983771055885557e-08   1.0009552701206257e-08   7.2594194102886747e-08   7.7878797708825728e-08   7.1092697342313717e-09   1.6397432747685899e-08   5.8936455529153706e-08   7.3360686556054885e-08   7.4728154175695421e-08   6.2083168828420075e-08   4.3769477696907709e-08   7.2676782868178555e-08   8.1656923946004763e-08   6.5165567452642820e-08   1.0007749224146732e-07   6.9729494493203509e-08   9.8536927202730074e-08   6.7820480957622405e-08   7.3554514573499601e-08   1.0295199608956589e-07   2.9550350813621037e-08   3.2830231146354456e-08   4.3910936154382906e-08   3.8417001065033545e-08   3.9764029744548350e-08   4.8568405444409470e-08   9.0978314925313016e-08   7.5307615366120814e-08   2.9314268818226693e-08   1.6973535247017251e-08   8.4350636198705408e-08   5.1523828872742882e-08   1.0124698500181487e-07   1.1717434994395981e-07   1.6505594904387762e-07   1.4005998083677906e-07   1.7687924422933098e-08   2.6934870098052369e-08   6.4552798284641284e-08   9.0778191212626285e-08   1.0175548271797718e-07   1.2061445204718547e-07   6.1632381177988821e-09   1.0451190683112476e-08   1.0884286730442692e-08   1.8078834211613599e-08   6.2283260870544751e-10