<?xml version="1.0"?>
<VTKFile type="UnstructuredGrid"  version="0.1"  >
<UnstructuredGrid>
<Piece  NumberOfPoints="8225" NumberOfCells="16132">
<Points>
<DataArray  type="Float64"  NumberOfComponents="3"  format="ascii">-1 1 0  -0.75 1 0  -1 0.75 0  -0.5 1 0  -0.75 0.75 0  -1 0.5 0  -0.25 1 0  -0.5 0.75 0  -0.75 0.5 0  -1 0.25 0  1 1 0  1 1.110223024625157e-16 0  1 0.2500000000000001 0  1 0.5 0  1 0.75 0  0.75 1 0  0.5 1 0  0.25 1 0  0 1 0  -0.25 0.75 0  -0.5 0.5 0  -0.75 0.25 0  -1 0 0  0.75 0.75 0  0.75 0 0  0.75 0.25 0  0.75 0.5 0  0.5 0.75 0  0.25 0.75 0  0 0.75 0  -0.25 0.5 0  -0.5 0.25 0  -0.75 0 0  -1 -0.2500000000000001 0  0.5 0.5 0  0.5 0 0  0.5 0.25 0  0.25 0.5 0  0 0.5 0  -0.25 0.25 0  -0.5 0 0  -0.75 -0.2500000000000001 0  -1 -0.5 0  0.25 0.25 0  0.25 0 0  0 0.25 0  -1 -0.75 0  -0.25 0 0  -0.5 -0.25 0  -0.75 -0.5 0  -0.9999999999999999 -1 0  0 0 0  -0.75 -0.75 0  -0.25 -0.25 0  -0.5 -0.5 0  -0.7499999999999999 -1 0  0 -0.25 0  -0.5 -0.75 0  -0.25 -0.5 0  -0.4999999999999999 -0.9999999999999999 0  0 -0.5 0  -0.25 -0.75 0  -0.2499999999999999 -0.9999999999999999 0  0 -0.75 0  0 -0.9999999999999999 0  0.375 0.125 0  0.125 0.375 0  -0.125 0.375 0  -0.375 0.125 0  -0.125 0.25 0  -0.25 0.125 0  0.25 0.125 0  0.125 0.25 0  0.125 0.125 0  0.125 0 0  -0.125 0.125 0  0 0.125 0  -0.375 -0.125 0  -0.125 0 0  -0.25 -0.125 0  -0.125 -0.125 0  -0.125 -0.375 0  -0.375 -0.625 0  -0.125 -0.5 0  -0.25 -0.625 0  -0.3749999999999999 -0.875 0  -0.125 -0.625 0  0 -0.625 0  -0.2499999999999999 -0.875 0  -0.125 -0.75 0  -0.1249999999999999 -0.875 0  -0.1249999999999999 -0.9999999999999999 0  0 -0.875 0  -0.375 0.625 0  -0.625 0.375 0  -0.375 0.5 0  -0.5 0.375 0  -0.375 0.375 0  -0.25 0.375 0  -0.375 0.25 0  0.1875 0.0625 0  0.1875 0 0  0.0625 0.1875 0  -0.0625 0.1875 0  0 0.1875 0  -0.1875 0.0625 0  -0.1875 0 0  -0.1875 -0.0625 0  0 -0.125 0  0.0625 0.0625 0  0.0625 0 0  -0.0625 0.0625 0  0 0.0625 0  -0.0625 0 0  -0.0625 -0.0625 0  -0.125 -0.25 0  -0.1875 -0.1875 0  -0.0625 -0.1875 0  0.125 0.0625 0  0.0625 0.125 0  -0.0625 0.125 0  -0.125 0.0625 0  -0.125 -0.0625 0  0.875 0.375 0  0.125 0.875 0  0.625 0.625 0  0.75 0.375 0  0.625 0.125 0  0.625 0.25 0  0.625 0.5 0  0.625 0.375 0  0.375 0.625 0  0.125 0.75 0  0.25 0.625 0  0.125 0.625 0  -0.125 0.625 0  0 0.625 0  -0.125 0.5 0  -0.625 0.125 0  -0.5 0.125 0  -0.625 0 0  0.5 0.375 0  0.375 0.5 0  0.375 0.375 0  0.5 0.125 0  0.125 0.5 0  0.25 0.375 0  -0.625 -0.125 0  -0.5 -0.125 0  -0.625 -0.25 0  -0.625 -0.375 0  -0.375 -0.25 0  -0.5 -0.375 0  0 -0.0625 0  0.03125 0.03125 0  0.03125 0 0  -0.03125 0.03125 0  0 0.03125 0  -0.03125 0 0  -0.03125 -0.03125 0  -0.375 -0.375 0  0.09375 0.03125 0  0.03125 0.09375 0  -0.03125 0.09375 0  0 0.09375 0  -0.09375 0.03125 0  -0.09375 0 0  -0.09375 -0.03125 0  -0.03125 -0.09375 0  0.0625 0.03125 0  0.03125 0.0625 0  -0.03125 0.0625 0  -0.0625 0.03125 0  -0.0625 -0.03125 0  -0.0625 -0.125 0  -0.875 0.875 0  -0.625 1 0  -0.75 0.875 0  -0.875 0.75 0  -1 0.625 0  -0.625 0.875 0  -0.375 1 0  -0.5 0.875 0  -0.875 0.625 0  -0.625 0.75 0  -0.75 0.625 0  -0.875 0.5 0  -1 0.375 0  -0.375 0.875 0  -0.125 1 0  -0.25 0.875 0  -0.625 0.625 0  -0.375 0.75 0  -0.5 0.625 0  -0.875 0.375 0  -0.625 0.5 0  -0.75 0.375 0  -0.875 0.25 0  -1 0.125 0  0.875 0.1250000000000001 0  0.875 0.2500000000000001 0  -0.125 0.875 0  -0.875 0.125 0  -0.75 0.125 0  -0.875 0 0  -1 -0.125 0  0.75 0.125 0  -0.875 -0.125 0  -0.75 -0.125 0  -0.875 -0.2500000000000001 0  0 0.375 0  -0.0625 0.4375 0  -0.375 0 0  -0.4375 0.0625 0  -0.875 -0.375 0  -0.0625 0.3125 0  -0.875 -0.625 0  -0.3125 0.0625 0  -0.75 -0.625 0  -0.625 -0.5 0  0 -0.03125 0  0.015625 0.015625 0  0.015625 0 0  -0.015625 0.015625 0  0 0.015625 0  -0.015625 0 0  -0.015625 -0.015625 0  -0.625 -0.625 0  0.046875 0.015625 0  0.015625 0.046875 0  -0.015625 0.046875 0  0 0.046875 0  -0.046875 0.015625 0  -0.046875 0 0  -0.046875 -0.015625 0  -0.015625 -0.046875 0  0.03125 0.015625 0  0.015625 0.03125 0  -0.015625 0.03125 0  -0.03125 0.015625 0  -0.03125 -0.015625 0  -0.03125 -0.0625 0  1 0.875 0  0.875 0.875 0  1 0.625 0  0.875 0.5 0  0.875 0.75 0  0.875 0.625 0  0.625 1 0  0.75 0.875 0  0.625 0.875 0  0.5 0.875 0  0.375 0.875 0  -0.125 0.75 0  -0.25 0.625 0  -0.1875 0.6875 0  0.75 0.625 0  0.625 0.75 0  0.6875 0.6875 0  0.375 0.75 0  0.5 0.625 0  0.5625 0.6875 0  0.4375 0.6875 0  0.3125 0.6875 0  -0.1875 0.5625 0  0.375 0 0  0.4375 0.0625 0  0.375 0.25 0  0.4375 0.1875 0  0.5625 0.1875 0  0.4375 0.3125 0  0.5 0.1875 0  -0.1875 0.3125 0  -0.3125 0.1875 0  -0.1875 0.25 0  -0.25 0.1875 0  -0.1875 0.1875 0  0.3125 0.1875 0  0.1875 0.3125 0  0.25 0.1875 0  0.1875 0.25 0  0.1875 0.1875 0  0.3125 0.3125 0  0.3125 0.0625 0  0.25 0.0625 0  0.0625 0.3125 0  -0.4375 -0.3125 0  -0.875 -0.875 0  -0.8749999999999999 -1 0  0 -0.015625 0  0.0078125 0.0078125 0  0.0078125 0 0  -0.0078125 0.0078125 0  0 0.0078125 0  -0.0078125 0 0  -0.0078125 -0.0078125 0  -0.75 -0.875 0  -0.625 -0.75 0  -0.25 -0.375 0  -0.3125 -0.1875 0  -0.1875 -0.3125 0  -0.3125 -0.25 0  -0.3125 -0.3125 0  -0.5 -0.625 0  -0.375 -0.5 0  -0.4375 -0.5625 0  -0.4375 -0.4375 0  -0.625 -0.875 0  -0.6249999999999999 -1 0  0 -0.375 0  -0.0625 -0.3125 0  -0.0625 -0.25 0  -0.4999999999999999 -0.875 0  -0.375 -0.75 0  -0.4375 -0.8125 0  -0.1875 -0.4375 0  -0.3125 -0.5625 0  -0.1875 -0.5 0  -0.1875 -0.5625 0  -0.3125 -0.4375 0  -0.3749999999999999 -0.9999999999999999 0  -0.4374999999999999 -0.9375 0  -0.0625 -0.4375 0  0.3125 0.125 0  0.4375 0.125 0  0.125 0.3125 0  -0.125 0.1875 0  -0.1875 0.125 0  0.1875 0.125 0  0.125 0.1875 0  -0.125 -0.4375 0  -0.125 -0.3125 0  -0.375 -0.3125 0  0 -0.046875 0  0.0234375 0.0078125 0  0.0078125 0.0234375 0  -0.0078125 0.0234375 0  0 0.0234375 0  -0.0234375 0.0078125 0  -0.0234375 0 0  -0.0234375 -0.0078125 0  -0.0078125 -0.0234375 0  -0.0078125 -0.0390625 0  0.015625 0.0078125 0  0.0078125 0.015625 0  -0.0078125 0.015625 0  -0.015625 0.0078125 0  -0.015625 -0.0078125 0  -0.015625 -0.03125 0  -0.6875 0.4375 0  1 0.1250000000000001 0  0.875 5.551115123125783e-17 0  0.9375 0.06250000000000008 0  0.9375 0.1875000000000001 0  0.375 1 0  0.125 1 0  0.25 0.875 0  0.1875 0.9375 0  0.3125 0.9375 0  0 0.875 0  0.0625 0.9375 0  -0.0625 0.9375 0  -0.4375 0.4375 0  -0.625 0.25 0  -0.6875 0.3125 0  -0.6875 0.1875 0  -0.8125 0.3125 0  -0.75 0.3125 0  0.625 0 0  0.6875 0.0625 0  0.8125 0.06250000000000003 0  0.75 0.0625 0  0.6875 0.1875 0  0.1875 0.8125 0  0.3125 0.8125 0  0.0625 0.8125 0  -0.0625 0.8125 0  -0.1875 0.4375 0  -0.3125 0.5625 0  -0.3125 0.5 0  -0.3125 0.4375 0  -0.25 0.4375 0  -0.1875 0.5 0  -0.4375 0.1875 0  -0.5625 0.3125 0  -0.5 0.3125 0  -0.4375 0.3125 0  -0.4375 0.25 0  -0.5625 0.1875 0  -0.5 0.1875 0  -1 -0.375 0  0.5625 0.0625 0  0.5 0.0625 0  0.1875 0.4375 0  0.1875 0.5625 0  0.3125 0.4375 0  0.1875 0.5 0  0.25 0.4375 0  0.0625 0.4375 0  0.0625 0.5625 0  0.0625 0.5 0  0 0.4375 0  -0.3125 0.3125 0  -0.25 0.3125 0  -0.3125 0.25 0  -0.4375 -0.0625 0  -0.5625 0.0625 0  -0.5625 -0.06250000000000001 0  -0.5 -0.0625 0  -0.4375 0 0  -0.75 -0.375 0  -0.6875 -0.3125 0  -0.8125 -0.3125 0  -1 -0.625 0  -0.875 -0.5 0  -0.9375 -0.4375 0  -0.9375 -0.5625 0  -0.875 -0.75 0  -0.9375 -0.6875 0  -0.25 0.0625 0  -0.3125 -0.0625 0  -0.25 -0.0625 0  -0.21875 -0.03125 0  -0.3125 0 0  -0.28125 0.03125 0  -0.4375 -0.1875 0  -0.5625 -0.1875 0  -0.5 -0.1875 0  -0.6875 -0.4375 0  -0.8125 -0.4375 0  -0.8125 -0.5625 0  0 -0.0078125 0  0.00390625 0.00390625 0  0.00390625 0 0  -0.00390625 0.00390625 0  0 0.00390625 0  -0.00390625 0 0  -0.00390625 -0.00390625 0  -0.8125 -0.6875 0  -0.25 -0.1875 0  -0.1875 -0.25 0  -0.21875 -0.21875 0  0 -0.1875 0  -0.03125 -0.21875 0  0.125 0.4375 0  0.1875 0.375 0  0.0625 0.375 0  -0.1875 0.375 0  -0.125 0.4375 0  -0.375 0.1875 0  -0.4375 0.125 0  -0.3125 -0.125 0  -0.4375 -0.125 0  -0.375 -0.1875 0  -0.375 -0.0625 0  -0.34375 -0.15625 0  -0.1875 -0.125 0  -0.21875 -0.09375 0  -0.21875 -0.15625 0  -0.28125 -0.15625 0  -0.15625 -0.09375 0  -0.15625 -0.15625 0  -0.09375 -0.15625 0  -0.6875 0.375 0  -0.375 0.4375 0  -0.4375 0.375 0  -0.3125 0.375 0  -0.375 0.3125 0  -0.03125 -0.15625 0  -0.15625 -0.21875 0  -0.09375 -0.21875 0  -0.125 -0.1875 0  0.5625 0.125 0  0.6875 0.125 0  0.125 0.5625 0  -0.5625 0.125 0  0.3125 0.375 0  -0.5625 -0.125 0  -0.34375 0.03125 0  -0.375 0.0625 0  0 -0.0234375 0  0.01171875 0.00390625 0  0.01171875 0 0  0.00390625 0.01171875 0  -0.00390625 0.01171875 0  0 0.01171875 0  -0.01171875 0.00390625 0  -0.01171875 0 0  -0.01171875 -0.00390625 0  -0.00390625 -0.01171875 0  -0.00390625 -0.01953125 0  0.0078125 0.00390625 0  0.00390625 0.0078125 0  -0.00390625 0.0078125 0  -0.0078125 0.00390625 0  -0.0078125 -0.00390625 0  -0.0078125 -0.015625 0  -0.875 1 0  -1 0.875 0  -0.9375 0.9375 0  -0.8125 0.9375 0  -0.9375 0.8125 0  -0.4375 0.6875 0  -0.4375 0.8125 0  -0.5625 0.6875 0  -0.4375 0.75 0  -0.5 0.6875 0  -0.6875 0.5625 0  1 0.3750000000000001 0  0.9375 0.3125000000000001 0  0.9375 0.2500000000000001 0  0.9375 0.4375 0  -0.3125 0.6875 0  -0.25 0.6875 0  -0.4375 0.5625 0  -0.5625 0.4375 0  -0.4375 0.5 0  -0.5 0.4375 0  -0.5625 0.5625 0  -0.5 0.5625 0  -0.5625 0.5 0  -0.8125 0.1875 0  0.8125 0.3125 0  0.75 0.3125 0  0.6875 0.25 0  0.6875 0.3125 0  0.8125 0.4375 0  0.6875 0.5625 0  0.6875 0.5 0  0.6875 0.4375 0  0.1875 0.6875 0  0.0625 0.75 0  0.0625 0.6875 0  -0.0625 0.6875 0  0 0.6875 0  -0.6875 0.0625 0  -0.6875 0 0  -0.6875 -0.06250000000000001 0  -0.8125 0.0625 0  -0.75 0.0625 0  -0.8125 -0.06250000000000001 0  -0.75 -0.06250000000000001 0  0.5625 0.5625 0  0.5625 0.5 0  0.5625 0.4375 0  0.4375 0.5625 0  0.5 0.4375 0  0.4375 0.5 0  0.4375 0.4375 0  0.5 0.5625 0  0.5625 0.25 0  0.5625 0.3125 0  0.5 0.3125 0  0.3125 0.5625 0  0.25 0.5625 0  0.3125 0.5 0  -0.0625 0.5625 0  0 0.5625 0  -0.0625 0.5 0  -0.6875 -0.1875000000000001 0  -0.8125 -0.1875000000000001 0  -0.75 -0.1875000000000001 0  0.3125 0.25 0  0.28125 0.21875 0  0.3125 0 0  0.28125 0.03125 0  -0.0625 0.25 0  0.0625 0.25 0  0.03125 0.21875 0  -0.03125 0.21875
[...]
<CellData  Scalars="w"> 
<DataArray  type="Float64"  Name="w"  format="ascii">6.8971454299968346e-11   7.1721938924625429e-11   6.8707927011215677e-11   7.2257870702235617e-11   6.5773483783340864e-11   6.4821349131308252e-11   6.5802825552533130e-11   6.8932910259438764e-11   4.9481308715771183e-11   6.3708493933322873e-11   5.1477383363184616e-11   1.0150536169372581e-11   6.6513849304267126e-12   5.1941764863885079e-11   5.9697870717285852e-11   5.1825037302660786e-11   4.6469221396022850e-11   1.2825332213208327e-11   1.0315070860010403e-11   6.7760366191565451e-11   8.6045625850039475e-12   7.0577497502061434e-12   8.5864878200007680e-12   7.1045582207747093e-12   5.8057464420143348e-11   7.6277355974738672e-11   5.7527390510612401e-11   6.5805262034890150e-11   7.2914354294484679e-12   1.3083877355173477e-11   1.0559861820348318e-11   7.5349286485728845e-12   6.3670931660739465e-11   5.8207812901447514e-11   6.2109014359347775e-11   6.2452639304418330e-11   6.4655419726736767e-11   6.2892578274811543e-11   6.8968276515907529e-11   7.1716136881223764e-11   6.8704578567611064e-11   7.2255928058633721e-11   6.5772044638065514e-11   6.4821370843137241e-11   6.5801480212066410e-11   6.8933020673379767e-11   4.9480269679749621e-11   6.3707512094524750e-11   5.1476194659248188e-11   1.0150061751221617e-11   6.6510308240931732e-12   5.1941401822884138e-11   5.9697898538032714e-11   5.1824647010862325e-11   4.6469222065563336e-11   1.2824281291195170e-11   1.0313637556217628e-11   6.7754335219905824e-11   8.6038064858705336e-12   7.0572221202510811e-12   8.5856254421656426e-12   7.1039272198050049e-12   5.8048415940253803e-11   7.6267028999592817e-11   5.7518788745420417e-11   6.5792524194003460e-11   7.2910124575482439e-12   1.3083608649727559e-11   1.0558902644970653e-11   7.5345014700843939e-12   6.3669948265978822e-11   5.8205604343370163e-11   6.2103091825078790e-11   6.2448850693938395e-11   6.4651023571145511e-11   6.2890467407504047e-11   7.4934082932786074e-11   7.6232640510883953e-11   7.5476512925762677e-11   8.4088869659082730e-11   7.1400155892159074e-11   6.9462112535009773e-11   7.3349180557432946e-11   8.2764216081499415e-11   8.8303738735291801e-11   8.5090941937640277e-11   8.9881403399789941e-11   7.9463297477247088e-11   9.3648668611029854e-11   9.0801102988500441e-11   9.4329673971845271e-11   1.0071757300191361e-10   8.0562948301618149e-11   7.9948997797729779e-11   8.5630363978315275e-11   9.7260758206414876e-11   8.4294313760086018e-11   8.4050239180599492e-11   8.6756018149452687e-11   9.6648280808757878e-11   9.2226605922092259e-11   9.5279309498444434e-11   9.0556601476957089e-11   8.1220617994539057e-11   9.8940721740470803e-11   1.0182740632222750e-10   9.6886824196518768e-11   1.0377966176205205e-10   8.2480020009268644e-11   8.7585171376736465e-11   8.3406070766749659e-11   8.6283734270917427e-11   7.7810105219668620e-11   6.9518122811643987e-11   7.8435542909151537e-11   8.1567741595202337e-11   9.2216295093038141e-11   8.6661591970359588e-11   9.1104614444598556e-11   8.7793991562863861e-11   9.5430052234094289e-11   8.9365257985528268e-11   9.5908051056657104e-11   9.9059720758435362e-11   9.8032000333873800e-11   9.2368961388062919e-11   9.8131607817272984e-11   1.0257913635398573e-10   1.0364050961146706e-10   1.0990720270340716e-10   1.0412620998581406e-10   1.0924500005916728e-10   9.7239309879119994e-11   1.0351847722500917e-10   9.6978218231038747e-11   9.3146218048995714e-11   1.0098091726188177e-10   1.0787162579526467e-10   1.0230871247844024e-10   1.0583774432553216e-10   8.2463264948954578e-11   8.7568631645638527e-11   8.3389218348090484e-11   8.6261806881593965e-11   7.7792773620798082e-11   6.9502169345695914e-11   7.8418884094299043e-11   8.1546582076151433e-11   9.2194444450883654e-11   8.6640475878296336e-11   9.1082837513198736e-11   8.7778240355188057e-11   9.5401348046923763e-11   8.9338716983512870e-11   9.5880393331578641e-11   9.9024582786100606e-11   9.8018849526579057e-11   9.2353646114664921e-11   9.8119267262939639e-11   1.0255901682064603e-10   1.0363045255624997e-10   1.0990237462850362e-10   1.0411763666567890e-10   1.0922874038963586e-10   9.7218668807783339e-11   1.0349926011714248e-10   9.6956404192307084e-11   9.3131437013280373e-11   1.0095154299632476e-10   1.0784194564035026e-10   1.0227913386930294e-10   1.0579765923379394e-10   7.4910099295137928e-11   7.6205421262376857e-11   7.5453146846801959e-11   8.4062889784703207e-11   7.1379913497144542e-11   6.9445727561172768e-11   7.3329533192966066e-11   8.2742551037832032e-11   8.8274153863322624e-11   8.5065643406293522e-11   8.9850928976261925e-11   7.9436486872811372e-11   9.3616153958142566e-11   9.0773941299250210e-11   9.4297653542799869e-11   1.0068125113602715e-10   8.0532588424653330e-11   7.9919341421998398e-11   8.5599482703350284e-11   9.7224520962945081e-11   8.4264926446732915e-11   8.4025426193655908e-11   8.6726292924713736e-11   9.6612865303526723e-11   9.2193181456532614e-11   9.5244015846458635e-11   9.0523245923301669e-11   8.1191454977993480e-11   9.8902728341030721e-11   1.0178657910242015e-10   9.6850210747500487e-11   1.0373633381770170e-10   8.4058517928294920e-11   8.8696133158176577e-11   8.4405187982142305e-11   8.8391416005367686e-11   8.0021454346516968e-11   8.4300185640351059e-11   8.0009919321823356e-11   7.6098649855123242e-11   9.3169240007875574e-11   8.8709885931772420e-11   9.3573207349661772e-11   8.8462999492304080e-11   9.8539158422642578e-11   9.3556224116127798e-11   9.8557039783422833e-11   1.0415136944244807e-10   8.0024340892497143e-11   7.6413781784563055e-11   8.0051525158385486e-11   8.3624639315044041e-11   7.6130535804913342e-11   7.1846942141237311e-11   7.5804859530717976e-11   7.2270112520551545e-11   7.9746232562107928e-11   7.6920523430313691e-11   7.9907458544746298e-11   8.4264840872463831e-11   7.5875722994309521e-11   7.5888845414786870e-11   7.6601996911252976e-11   6.6697114580272564e-11   8.4052385127594804e-11   8.8692729619501369e-11   8.4399641510870320e-11   8.8381258541756719e-11   8.0018986022369725e-11   8.4300531728486668e-11   8.0007317650834739e-11   7.6098862304685765e-11   9.3161221893924697e-11   8.8706670841681722e-11   9.3566128605230277e-11   8.8453382583270889e-11   9.8534846153395863e-11   9.3556759103663510e-11   9.8552996791355235e-11   1.0415217358549823e-10   8.0016583532681396e-11   7.6404834431211051e-11   8.0044123982387611e-11   8.3612935217251715e-11   7.6126304548995403e-11   7.1841448418358605e-11   7.5800268692078779e-11   7.2268267233100338e-11   7.9733428043674432e-11   7.6911657186201047e-11   7.9895211226444956e-11   8.4253421565907988e-11   7.5862545719791940e-11   7.5879001791982099e-11   7.6588624816835851e-11   6.6684823564979966e-11   2.9394434424452859e-10   1.3269652019107102e-10   3.2378196754646162e-10   8.2731847514042598e-11   8.6727247538947138e-11   1.1716291859179898e-10   1.3205418343520166e-10   1.2486309983779994e-10   1.3804406475672785e-10   1.3665365997761089e-10   1.1388635508494091e-10   1.3682632020773171e-10   1.4365211579908638e-10   1.5326185902022572e-10   1.0268789402204193e-10   7.6274672651761306e-11   8.9063709172436852e-11   1.1517687715333575e-10   1.1825184919443566e-10   8.3216264596910603e-11   7.7061224079710160e-11   1.1389916801357468e-10   1.2092534017609480e-10   1.4258124051461804e-10   1.3653157620704411e-10   1.3084022989774236e-10   1.2949014313824336e-10   9.3835602433853701e-11   3.2870200058992651e-11   5.2934706209173479e-11   1.4300557762664156e-10   5.0133982772542280e-11   2.1089400161188616e-11   1.4407987218377912e-10   1.5380341265597819e-10   1.3852803787193507e-10   1.4550988829071274e-10   1.2738926599556783e-10   8.1978857212043126e-11   1.3696804654994063e-10   1.2972062695840871e-10   1.5425990990607494e-10   1.4838150194777074e-10   1.4822357612035501e-10   1.3941161306299436e-10   1.5146013946059500e-10   1.4389563927080935e-10   1.6517512511219804e-10   1.5516369832659770e-10   2.0733999019338111e-10   1.8654970519869964e-10   1.8179374646482389e-10   1.6198036372825041e-10   1.4596624999019903e-10   2.4750415151685937e-11   6.1355750520921990e-11   1.4973917094072120e-10   1.9342347442922145e-10   1.6810081631782140e-10   5.6566677659981800e-11   2.2826387476171472e-11   1.1029784177633268e-10   3.5768379247232153e-11   5.9990428953363570e-11   1.7980423328041596e-10   1.2173301144653876e-10   1.6250126162980392e-10   1.6771542826916135e-10   1.9322954027721475e-10   2.4155185221539015e-10   2.1126057189069066e-10   2.0975786057758061e-10   6.3495549812655951e-11   3.0601997993437498e-11   2.5646588887893249e-10   4.2659006714469983e-11   2.8903795597575410e-11   4.3392166075973381e-11   3.5070267678807915e-11   2.4672020037903185e-10   2.1391010131151921e-10   2.3272073749335404e-10   2.1717572085469779e-10   2.4361628463498890e-10   7.2775145835560096e-11   4.3672599986942416e-11   2.1891020767913945e-10   1.4307620501146019e-10   2.3644242775023162e-10   1.9919820882219447e-10   2.1632849846557286e-10   2.0682833964535238e-10   3.7308718901024158e-11   6.5375154267603739e-11   2.8886009583833631e-11   3.4560934358880720e-11   3.1972304110764524e-11   4.1410341160824796e-11   2.4396873450794831e-11   3.1112525021345415e-11   1.9439086768039972e-10   2.0417211020381466e-10   2.0002090667711396e-10   2.0169310639431237e-10   1.8813209153817710e-10   1.8544074693218208e-10   1.8701255098734428e-10   1.8249367988137451e-10   2.5596659792722823e-10   2.1669311030846374e-10   2.4750054240657467e-10   2.7218261330950980e-10   2.6253730895371508e-10   5.6752086760293677e-11   4.0638139672878115e-11   2.7251196794132955e-10   2.4682769540986736e-10   2.8262157345017614e-10   2.4086826364498581e-10   2.7851516436443325e-10   2.6463506996665365e-10   2.3157512161413589e-10   4.5573670422213809e-11   6.7067080875300308e-11   2.4401144830783545e-10   5.4125075794944148e-11   5.0122608868766184e-11   3.0403318630475508e-11   2.2426036928132183e-11   3.4528638805584127e-11   2.7018188378088162e-11   3.1046506219791218e-11   5.9808501794441636e-11   2.5549128390069392e-11   3.2622529016726864e-11   5.3443024981912752e-11   4.1548379846439842e-11   2.2792519925503129e-10   3.4059248687368376e-11   3.5647569056877333e-11   2.5434870935097267e-11   2.8887635465926581e-11   1.8344140065674837e-10   2.9325073042062492e-11   4.4942008899675895e-11   1.8706872695579997e-10   2.0272250969659624e-10   2.0873700901240509e-10   2.0327655646607442e-10   2.0387754560999633e-10   1.7547054506528561e-10   9.4589333680412705e-11   7.7972161703970603e-11   9.9768855494569996e-11   8.8220952381351640e-11   8.9091796616009495e-11   8.8593212707753200e-11   9.8855444643677316e-11   1.1164255332361807e-10   3.2835471719372369e-11   5.8906281593413976e-12   3.1952335107234797e-12   8.9721721726593272e-11   1.4647815560673783e-11   2.9787748072088093e-11   7.4273321498530954e-11   1.6624595758205756e-12   4.7682173722155010e-12   1.8185371305588587e-12   5.5845898086360661e-12   3.3734959105543551e-12   7.0241639707679438e-12   1.1268259374284619e-11   1.0501207208390980e-11   2.5660796353835592e-11   1.0900036901160862e-11   1.7793918159898210e-11   6.9690072955561561e-11   9.9224910340937015e-11   7.8009117451064624e-11   1.8137062128131697e-11   3.1460798715560785e-11   2.0148433726287781e-11   1.6784036265661393e-11   5.9580093995074600e-12   1.7677380972515985e-11   8.6268078635661151e-11   2.3829245250240631e-11   3.1987265367008427e-11   8.6447121697705813e-11   3.7791338703528145e-11   6.3813026111396782e-12   3.1752168075631491e-12   9.9624816385709927e-11   1.0816297681899016e-10   3.0051854518233240e-12   2.7761765515356838e-12   1.0577074747049675e-11   1.8084536740597256e-12   4.8175929295621619e-12   1.9811845085827319e-12   6.0113402605365962e-12   9.7286897087450613e-12   1.1547416699195382e-11   2.4290585434179972e-11   1.8333614201664260e-11   1.0748347803178295e-10   1.1034875693075075e-10   1.0829192628064284e-10   9.8972829647840314e-11   1.0155295641295379e-10   9.2464434392581415e-11   1.0401430740343917e-10   1.0824376830687381e-10   1.3640680413404497e-10   1.2059272586064850e-10   1.3576126876360339e-10   1.0106031998269152e-10   8.8572689448785645e-11   1.4829605833572800e-11   3.7694485548318175e-11   1.2794951395335862e-10   3.6236667193676809e-11   1.6431124566679670e-11   1.0834468488787689e-11   2.1946265969586807e-11   1.0818804668271921e-11   1.6356528656595024e-11   1.9304303670798936e-12   4.9895310535979677e-12   2.0037369747132745e-12   5.9006592570118529e-12   4.7148963133198728e-12   8.0475623271372988e-12   1.5076761362909444e-11   3.3216122481439085e-11   2.2537504100343168e-11   1.3603151450045340e-10   3.8911364810749268e-11   7.6617723060702533e-12   5.4526812665279132e-12   1.3231233235315818e-10   9.5647954021670641e-11   1.8200314381998430e-11   4.5792664029945235e-11   1.2693880083521115e-10   3.4262462858589868e-11   1.6682023086072717e-11   1.4816111095617022e-10   1.5382655896174609e-10   1.5380070353314657e-10   1.0343155626405119e-10   1.9620710934453707e-11   4.1204223237989535e-11   1.3377544679779851e-10   5.0777126239254192e-11   7.9041701317551599e-12   3.9911091563622729e-12   1.2051790593352222e-10   1.4063514441288687e-10   1.8079358350622545e-10   1.1150723753444160e-10   4.5010205086331267e-11   7.5682812252532013e-12   4.2304525981346955e-12   1.8825681130363022e-10   1.7892042726734760e-10   1.5834732016646372e-10   1.3792525131115783e-10   3.6456840275029315e-11   6.4165726756301158e-11   1.5121441395010458e-10   3.4682794336164696e-11   9.2715491574533137e-11   1.5444626294291419e-11   3.2546811434222738e-11   1.1249163066224464e-11   2.5937441312729731e-11   1.2958704998852554e-11   1.9831594570435363e-11   2.1486492899162823e-12   5.4791698054580065e-12   2.2857438456630627e-12   6.8331425148157228e-12   3.3280331231336916e-12   8.0811597987253617e-12   1.3835694489443292e-11   1.0288022627793210e-11   1.1772354557849489e-11   2.8092210437121058e-11   1.9815523834564850e-11   3.3052000759465504e-12   2.7943572924878137e-12   1.1759884689748377e-11   1.9868896163988843e-12   4.8637333577394110e-12   2.1152237199483879e-12   6.3887298688970787e-12   1.2801777823404386e-10   4.0904278072366558e-11   1.6374505963860444e-11   8.5864805625313817e-11   1.8081366835293168e-11   5.4781956970657315e-11   1.2016069465668910e-10   7.9409372229767561e-11   1.3274740718784617e-10   3.6779681218185965e-11   1.3703063992608010e-11   1.7966023190334948e-10   1.8093228261366379e-10   1.7116209592568302e-10   1.9019105032703898e-10   1.5314565861942611e-10   1.7796366899026862e-10   1.2513341169187312e-10   1.9198653490909689e-11   3.8576068221237684e-11   2.0593273598433882e-10   1.8899393471518560e-10   1.9842489594024120e-10   1.9788637590423831e-10   1.8374462764102389e-10   1.7436509749436113e-10   2.1848012870052804e-10   5.7516835756925295e-11   2.5878179125013946e-11   1.6706195909296183e-10   1.6896474248177996e-10   1.7376947622866477e-10   1.8992215369006291e-10   1.5421235887259175e-10   1.3436780319512886e-10   1.6410159691836287e-10   1.4407533045909303e-10   1.8005039958189389e-10   1.6586119973542729e-10   1.8459125646479998e-10   1.8436310410763520e-10   1.7904460985060471e-10   1.3238169786729882e-10   1.7655355746299510e-10   1.4961961391193692e-10   1.2346793127208033e-11   1.4582543322826334e-11   2.8043046574490156e-11   2.1976867842518750e-11   1.3531740265373551e-10   4.4926499174990325e-11   1.7770705204031931e-11   1.1745323611652165e-10   1.1564366551548355e-10   8.8125078110578395e-11   1.3477433687052678e-10   1.9580001524630314e-11   5.8894537510538322e-11   8.8403315995627602e-11   3.1322993310016448e-12   8.2822086714558176e-12   1.5382899986048759e-11   2.3210293398093032e-12   5.7720279053576149e-12   2.4776538011170854e-12   7.2604181301904453e-12   1.5730866259965152e-10   1.4821639207195969e-10   1.4572814831518281e-10   1.5195928402090604e-10   1.2994838910611023e-10   4.4991409129154382e-11   2.0631603363418786e-11   1.7913850146144585e-10   1.9024128681588938e-10   1.9539572314311180e-10   2.1390994270014428e-10   2.0438992416513023e-10   2.0139263466676067e-10   1.5296274232674218e-10   1.8986530836607635e-10   1.2272944182490512e-10   5.5228195118094067e-11   8.0624004313031804e-12   3.6953228284485043e-12   1.6878629249434893e-10   1.8139546063766139e-10   1.6997092107415678e-10   1.6245607347822287e-10   2.9590870618516513e-10   1.3418900726246095e-10   3.2678041998745487e-10   8.3795892053272271e-11   9.4335992253933999e-11   1.1938429528952390e-10   1.3316990668849843e-10   1.2665731454325319e-10   1.3944170016876959e-10   1.3954698597026971e-10   1.1585775237145514e-10   1.3741441448638186e-10   1.4739600120535921e-10   1.5116304045013217e-10   1.5679223718572136e-10   1.3333927846932810e-10   8.7742302159271064e-11   2.6491756855369858e-11   1.3443221576190816e-11   1.2960785889751983e-11   2.2970178620631001e-11   1.5259522592822030e-11   3.2859231021393378e-12   5.9625715786009759e-11   2.2424200734793650e-11   2.5448614499611295e-11   5.8566708333622334e-11   2.2476270794434938e-11   1.4234033172238535e-10   1.2803065808155021e-10   1.4523321816729605e-10   1.5542058332340353e-10   1.3926617155018980e-10   1.2669083518170677e-10   1.3493738047225761e-10   1.2891219557510195e-10   1.0743722429211202e-10   1.1031130129340948e-10   1.0824084887160389e-10   9.8903276597088673e-11   1.0151587231749678e-10   9.2445803906595886e-11   1.0397284224703314e-10   1.0819092567627058e-10   1.3635950550724039e-10   1.2052210101809189e-10   1.3571140371148007e-10   1.0102855381459862e-10   8.8485140732198586e-11   1.4805987520399087e-11   3.7655462694277303e-11   1.2795712098418607e-10   3.6235923686078251e-11   1.6404429331397557e-11   1.9307434022261876e-12   4.9903845289983150e-12   2.0034939761953804e-12   5.8974965006633103e-12   4.7234279461590594e-12   8.0556194336767123e-12   1.5104823070227276e-11   1.0836131335172328e-11   2.1940987705153486e-11   1.0814815964982587e-11   1.6353328041882276e-11   3.8872989129376726e-11   7.6605523587602367e-12   5.4550803290024935e-12   1.3266725098560666e-10   2.2552609582173773e-11   3.3150995216919866e-11   1.3576558802072480e-10   1.4825502882433016e-10   1.5417952160490331e-10   1.5396351953580125e-10   1.0348761513999689e-10   9.5690673988943396e-11   1.8222986099083120e-11   4.5874775337751670e-11   1.2697775796804759e-10   3.4270372996395138e-11   1.6682177833169614e-11   9.4684457500875604e-11   7.8374763350475727e-11   9.9834988832369726e-11   8.8128101877040390e-11   8.9106769835870900e-11   8.8577580980942701e-11   9.8834771073243164e-11   1.1156015041794832e-10   3.2731404224170970e-11   5.8708397226071045e-12   3.1857357402451952e-12   8.9599825399942862e-11   1.4572475577575743e-11   2.9456185667767770e-11   7.4457013496828272e-11   1.6571705264839517e-12   4.7575363104137970e-12   1.8110438227597103e-12   5.5583427670021953e-12   3.3667937108960501e-12   7.0136310571132105e-12   1.1244877472454224e-11   1.0481147120819753e-11   2.5652972770251891e-11   1.0859537574321343e-11   1.7768796244129879e-11   8.1270133723150605e-11   1.0108635730704278e-10   7.8009271137804887e-11   1.5066701696488397e-11   3.2269836609431789e-11   1.0176245347788943e-10   8.0659272166313285e-11   1.1347127064516338e-10   1.0381453918211578e-10   8.4886396062074752e-11   3.6164359057278228e-11   6.0961360680110234e-12   3.0127852023016157e-12   9.8195367748306526e-11   1.0891752592471544e-10   2.9569459071336645e-12   2.7558131263120861e-12   1.0411154029782220e-11   1.7807242157494562e-12   4.8214660647862394e-12   1.9694502409822304e-12   5.9993352844051343e-12   9.7137052534238761e-12   1.1544741326350029e-11   2.4136944568886943e-11   1.8283594048359997e-11   2.7721744150291342e-10   2.1738109332927592e-10   2.7362282518910523e-10   2.5396148146728140e-10   2.7172932789406518e-10   5.6590503100170973e-11   4.0332759742531060e-11   2.5050088500470498e-10