<?xml version="1.0"?>
<VTKFile type="UnstructuredGrid"  version="0.1"  >
<UnstructuredGrid>
<Piece  NumberOfPoints="236" NumberOfCells="390">
<Points>
<DataArray  type="Float64"  NumberOfComponents="3"  format="ascii">-0.1110887929189388 0.1110887929189388 0  -0.1110887929189388 -0.1110887929189388 0  0.1110887929189388 -0.1110887929189388 0  0.1082327427977964 -0.0001082327788754279 0  0 0 0  0.1082327375255565 0 0  0.1110887929189388 0.1110887929189388 0  0 -0.1082327375255565 0  0.04775251333110848 -4.775252924863524e-05 0  -0.1082327375255565 0 0  0 0.1082327375255565 0  0.04775253720737509 0 0  -0.1093168991865965 -0.05465844959329826 0  -0.05465844959329826 -0.1093168991865965 0  -0.05465844959329826 0.1093168991865965 0  -0.1093168991865965 0.05465844959329826 0  -0.04157265303215729 -0.04157265303215729 0  0.1093168991865965 0.05465844959329826 0  -0.02462856728399942 0.04925713456799884 0  0.05465844959329826 0.1093168991865965 0  0.1093186862593895 -0.05471400249104425 0  0.05465844959329826 -0.1093168991865965 0  0.02457684390520635 -0.049252167552258 0  0.05172823755080819 0.05172823755080819 0  -0.046166215404292 0.006595173629184573 0  0.06671378696821514 -0.06672708788766119 0  -0.06675277033153879 0.06675277033153879 0  0.01268513468969555 0.06342567344847776 0  -0.01074641119133731 -0.0645704073963716 0  -0.07753774144558744 -0.02626278339286026 0  0.07544976416059698 -0.02951433817696796 0  -0.07296262715729182 -0.07296262715729182 0  0.07833739537412843 0 0  0.1085452792198167 0.02713631980495419 0  0.07833738635436799 -7.833741246686672e-05 0  0.110235398883129 0.08267654916234676 0  0.08267654916234676 0.110235398883129 0  0.01553768517524691 0 0  0.01553767740640498 -1.553768258563804e-05 0  -0.07643764648904036 0.03203636654320074 0  -0.001647124917292843 -0.02517948479404995 0  0.009781831268691686 0.02347639504486004 0  -0.02009243607193383 -0.01080751756881153 0  -0.04087560647468905 -0.07701868083224711 0  0.02713631980495419 -0.1085452792198167 0  -0.0103964390621068 0.01662636628634637 0  0.07958296472211678 0.03979148236105839 0  -0.01308360361701599 0.07850162170209596 0  0.06748441103111556 0.08098129323733867 0  0.03456367155636997 -0.02308088125422037 0  0.1102363070381297 -0.0827047893645432 0  0.08267654916234676 -0.110235398883129 0  0.02713631980495419 0.1085452792198167 0  -0.110235398883129 0.08267654916234676 0  -0.08267654916234676 0.110235398883129 0  0.03979231566382941 -0.07960078103198108 0  -0.07710472119990089 0.001087160854862919 0  -0.04168059258781043 0.08034085237940272 0  0.03866988875494661 0.07639660949147989 0  -0.04967612060375644 0.04116690488929712 0  0.05296092210959408 0.0249227868751031 0  -0.02713631980495419 -0.1085452792198167 0  -0.1085452792198167 0.02713631980495419 0  -0.08267654916234676 -0.110235398883129 0  -0.110235398883129 -0.08267654916234676 0  -0.1085452792198167 -0.02713631980495419 0  -0.02713631980495419 0.1085452792198167 0  0.1085470602358389 -0.02721817538127341 0  0.01338949597121307 -0.07456075544669662 0  -0.04964384764394548 -0.01671843416229596 0  0.08596119677349079 0.06471236161599868 0  0.04824030863681232 -0.04650514353315601 0  -0.08306747020627221 -0.05070145014509514 0  -0.004330060195272033 0.03874428391870915 0  0.03201495666946908 0.03344303852784549 0  0.01033585111779385 -0.01287893713674972 0  -0.01999964058815842 -0.03065815752960394 0  -0.008994557844335352 0.00196443318802096 0  0.08529771415209686 -0.08530109562833395 0  0.08442543784129017 -0.05201765950371379 0  0.06082153339571916 -0.08783549190432287 0  -0.06283856299116353 0.08861375427192468 0  -0.08651633332735885 0.08651633332735885 0  0.01327220651097982 0.08848137673986549 0  -0.08517863268308808 0.05393475418169611 0  -0.02167117750704018 -0.08555057806374175 0  0.005885994955894581 -0.05242756717926848 0  -0.02891507705404473 -0.05675563421715864 0  -0.02947911435418023 0.02986163043638205 0  0.03133407043394934 0.01395365194025675 0  0.08615247670492288 0.01988134077805912 0  0.08891216037069337 0.08632583379236033 0  0.03185118713341678 0.05467714163978313 0  -0.06152472500646812 -0.05329090420575258 0  -0.06802433821878436 -0.09344203448870647 0  -0.08938080166375163 -0.08931820715455183 0  -0.0466676193374659 0.06068316802445586 0  -0.0927441659929012 -0.01333991428665017 0  -0.09489516792319053 -0.06808169404891251 0  0.05519568112212039 -0.01832416706692641 0  -0.08940206365546262 0.01726656740674763 0  0.09021253221231083 -0.01633463706073088 0  -0.003101246084568193 -0.08353644813888229 0  -0.05965212525709887 -0.03398537550209548 0  0.09504067033727874 -0.06914604379546252 0  -0.05596949087152201 0.02378319959740765 0  0.06317058062148541 0 0  0.06317056430949487 -6.317058536637915e-05 0  -0.004440498414244729 0.0600090553544438 0  -0.1088936321874863 0.04083511207030735 0  0.01221638954104191 0.009552710450062387 0  0.0009774217313840323 0.005148942196465398 0  0.01048025185952342 0.04347506863243153 0  -0.09498748897018429 0.07052024954936041 0  -0.01024227862657063 -0.04396605780500389 0  0.01239733595344719 -0.03224960809498698 0  0.0001012042305210273 -0.004868418884976797 0  -0.06777770544573292 0.04636618100838021 0  -0.1088936321874863 -0.04083511207030735 0  0.0933065328065744 -0.03705375174239877 0  0.06637360875844693 -0.04421584360367067 0  0.01353925134408435 -0.1083140107526748 0  0.06753518804554635 0.06277918888740928 0  0.03961297337535168 -0.06092277816725986 0  -0.03345033898342906 -0.02491630325743407 0  0.1106779155830436 -0.09685701087922258 0  0.02001422174411452 -0.09173141188894758 0  0.04083511207030735 0.1088936321874863 0  0.05233983143921215 0.09021713328617138 0  -0.02790789256719329 0.01259301932271262 0  -0.04615617509625707 -0.06022875931533739 0  -0.03529581161612265 -0.005329209469194208 0  -0.0368826137861511 -0.09424206738408744 0  0.0297082832642695 0.09078201668342713 0  0.05333979255811395 0.07024086751315639 0  -0.05758387647089336 -0.07878937397102526 0  -0.110677487511617 0.09684280157266484 0  -0.06703947659965104 -0.012204342355859 0  -0.07102994981104077 0.01598178806998589 0  -0.02697149986343983 0.0684970811686899 0  -0.008874072466548203 -0.01428325835622059 0  -0.09156225144990553 -0.03707449952672193 0  0.002313950251056324 0.07582841844802837 0  0.06749513692407091 0.01588978385469488 0  0.02583485478172239 -0.06622328683109498 0  0.05005005337307249 -0.03157432549399718 0  -0.02739329659043228 0.08969821183003719 0  -0.01353925134408435 0.1083140107526748 0  -0.04083511207030735 0.1088936321874863 0  -0.09188911620869217 0.03987774035160253 0  0.110677487511617 0.09684280157266484 0  0.07174323541882753 -0.01412341663165554 0  -0.01353925134408435 -0.1083140107526748 0  -0.01612246642604333 0.03369001848433898 0  0.06619686758605012 0.04712092495508522 0  0.07628189808266238 0.09506121261808309 0  0.09278960703910714 0.05068069760911972 0  0.09398705874383154 0.03356680669422555 0  -0.09684280157266484 0.110677487511617 0  -0.003643148333495427 0.09165897001527695 0  0.09684280157266484 0.110677487511617 0  0.09684280157266484 -0.110677487511617 0  0.03192630221247344 -3.19263128545891e-05 0  0.0319263181756312 0 0  0.02645562532158737 -0.03357983799914142 0  0.02229864415886561 -0.01061056432695623 0  0.05314068601843612 -0.07309571738248369 0  0.04726865755466349 -0.09449683482242062 0  -0.0009388686442861216 0.02137615534114572 0  0.02373773172684595 0.0752159039117275 0  -0.00265686554096631 -0.001735899892591124 0  -0.05274797113381005 -0.09335167742416385 0  -0.04946468105893904 0.09431686399695735 0  -0.05475064217173697 0.07456281494718049 0  0.1083140107526748 0.01353925134408435 0  0.09334111198251506 0 0  0.09334111013554386 -9.334114124929085e-05 0  0.07470808691789257 -0.09604941637463109 0  -0.09684280157266484 -0.110677487511617 0  -0.110677487511617 -0.09684280157266484 0  -0.09273000198193769 0.0005559541340947235 0  -0.06191491681728127 0.004665976370281519 0  -0.02374029707317132 -0.0703521997120518 0  -0.03791405368424915 0.04746938887109525 0  0.00193053585183256 -1.930536495345412e-06 0  0.001930536817100888 0 0  -0.001351029058750309 0.001666172952642284 0  0.04042568607788424 -0.01098488450164161 0  0.09719944776294703 0.07496679896891567 0  -0.04038422553614658 0.02320761571869483 0  0.06576155925859305 0.03340925022102805 0  0.04640278158366283 0.01231606949457239 0  0.04711232714549671 0.0369803763159201 0  0.0198062257513146 0.03574711305620942 0  0.03357014164338994 -0.09215058419583073 0  0.06860921654993259 -0.1097747464798921 0  0.06860921654993259 0.1097747464798921 0  -0.1097747464798921 0.06860921654993259 0  -0.1083140107526748 0.01353925134408435 0  -0.1097747464798921 -0.06860921654993259 0  -0.1083140107526748 -0.01353925134408435 0  -0.06860921654993259 -0.1097747464798921 0  0.04083511207030735 -0.1088936321874863 0  0.01353925134408435 0.1083140107526748 0  -0.04083511207030735 -0.1088936321874863 0  -0.06860921654993259 0.1097747464798921 0  0.1088936321874863 0.04083511207030735 0  0.1097747464798921 0.06860921654993259 0  0.1097761375064485 -0.06865125200681725 0  0.1088955981155047 -0.04090390906482307 0  0.1083151370352078 -0.01363416790589874 0  -0.07606806740692729 0.09631693948206861 0  0.00119166677385669 -0.0693710449930193 0  0.08084285129518415 -0.07124868174688664 0  -0.08089740110334313 0.06678668125015252 0  0.02322089876534196 0.02097498215763794 0  -0.05819122007919835 0.05493701431393612 0  -0.05168968858012248 -0.004651306300901195 0  0.07124116108001681 -0.08004104563088038 0  -0.07022397548931937 -0.04395567494868905 0  0.09600847232267384 -0.09600810987999944 0  -0.07494776305309551 0.07837535544635447 0  0.006680897868351998 -0.09492433457316182 0  0.05428424920287001 -0.05953866369721701 0  -0.05863319494011493 -0.06566512130441789 0  0.0393242554510404 0.04556934333247926 0  0.00347833753910525 -0.03808240639903265 0  -0.04625886712634256 -0.0310052753868557 0  -0.02449630805255971 0.002254771607779227 0  -0.01658875729259714 0.05896846436747494 0  -0.0118084945382451 -0.09416771008843065 0  0.07954656227407322 0.05263453358586405 0  0.07666383333435675 0.07280653354394885 0  0.03535524038975278 -0.04499666703866696 0  -0.08169295309052521 -0.06364291816104307 0  -0.0964750634205663 -0.04939964760763808 0  </DataArray>
</Points>
<Cells>
<DataArray  type="UInt32"  Name="connectivity"  format="ascii">20 79 119  88 129 189  116 140 170  43 130 135  72 98 234  59 117 216  24 105 189  16 124 227  16 93 103  23 192 225  23 122 154  36 91 155  55 166 167  25 166 223  75 115 164  4 116 184  22 164 233  45 77 129  27 108 112  31 98 234  56 138 181  46 90 157  32 90 143  32 106 143  30 79 120  70 122 231  46 154 231  70 188 232  35 91 188  74 193 215  41 112 193  40 75 115  69 137 217  49 75 164  75 116 184  73 112 168  45 111 186  93 103 219  69 124 131  44 121 126  41 111 168  45 111 168  48 91 155  70 122 232  59 96 183  81 172 173  83 133 169  52 83 133  71 120 145  49 75 165  125 161 220  51 177 195  80 166 218  19 127 128  81 211 221  54 82 211  82 214 221  25 79 213  22 115 164  39 84 117  26 117 216  74 192 225  48 122 232  18 139 183  84 113 214  60 74 89  37 89 110  61 85 132  62 100 149  62 109 149  31 94 95  64 95 98  63 94 95  31 95 98  29 103 219  9 180 198  66 146 147  30 79 119  28 87 114  28 86 212  56 137 181  29 103 137  122 154 231  70 188 207  25 166 218  71 123 223  118 141 235  96 139 183  18 139 229  41 112 168  23 92 225  40 75 116  28 87 182  40 76 114  24 129 189  42 77 170  79 104 213  25 79 120  20 79 104  80 166 167  21 80 167  57 172 173  14 81 172  53 82 136  83 142 169  73 108 112  15 84 113  28 85 102  43 87 182  68 86 212  22 123 144  76 87 114  16 76 87  45 88 129  18 73 153  60 89 191  23 122 134  27 142 169  16 87 130  16 93 130  43 85 132  31 94 135  57 96 139  26 214 221  65 118 141  12 118 235  34 107 151  56 100 180  39 105 138  30 99 151  7 152 230  68 126 222  69 124 227  69 103 137  78 104 213  50 78 104  24 105 181  105 138 181  11 163 191  11 106 191  8 99 107  99 107 151  27 108 142  47 108 142  15 84 149  15 109 149  4 111 186  37 110 185  41 110 111  92 112 193  27 92 112  82 113 214  53 82 113  28 86 114  40 115 226  86 115 226  22 86 115  40 76 140  40 116 140  39 105 117  59 105 117  29 97 141  65 97 141  67 101 119  30 101 119  30 99 145  30 120 145  7 121 222  121 126 222  58 92 134  23 92 134  68 126 144  55 167 194  16 76 124  42 76 124  2 125 161  44 126 194  55 123 144  58 133 169  58 128 133  48 122 134  42 124 131  42 131 228  43 135 171  43 87 130  24 129 228  24 131 228  94 135 171  43 132 171  127 128 133  52 127 133  48 128 134  58 128 134  31 93 224  31 135 224  0 136 158  56 97 137  29 97 137  39 100 138  56 100 138  47 108 229  47 139 229  42 140 170  42 76 140  72 141 235  29 141 219  83 142 159  47 142 159  60 143 190  60 74 192  22 86 144  68 86 144  49 99 145  71 145 233  57 139 146  47 139 146  10 147 159  10 83 159  57 146 172  66 146 148  39 100 149  39 84 149  36 91 160  35 91 150  30 101 151  34 101 151  61 85 230  61 152 230  18 88 153  45 88 153  60 190 192  46 154 190  19 128 196  48 128 155  33 90 157  17 156 206  46 156 157  82 136 158  54 82 158  146 147 159  47 146 159  91 150 160  6 150 160  78 177 220  51 177 220  8 99 187  8 162 187  89 163 191  37 89 163  49 145 233  49 164 233  162 165 187  38 162 165  123 166 223  55 123 166  21 167 202  73 153 168  45 153 168  27 92 169  58 92 169  4 116 170  45 77 186  13 94 171  61 132 204  146 148 172  14 148 172  59 96 216  57 96 173  33 90 174  5 174 175  90 174 175  32 90 175  34 101 176  3 176 210  51 161 220  63 95 178  1 178 179  95 178 179  64 95 179  9 97 180  56 97 180  137 181 217  24 181 217  43 85 182  28 85 182  59 88 183  18 88 183  75 165 184  38 165 184  110 111 185  4 111 185  77 170 186  4 170 186  49 165 187  49 99 187  35 188 207  59 88 189  59 105 189  90 143 190  46 90 190  106 143 191  60 143 191  154 190 192  23 154 192  41 110 215  41 193 215  55 144 194  126 144 194  80 177 195  21 80 195  128 155 196  36 155 196  15 113 197  53 113 197  100 180 198  62 100 198  64 98 199  12 98 199  65 97 200  9 97 200  13 94 201  63 94 201  167 194 202  44 194 202  10 83 203  52 83 203  132 171 204  13 171 204  82 211 221  14 81 205  156 157 206  33 157 206  70 156 207  17 156 207  20 104 208  50 104 208  67 119 209  20 119 209  101 176 210  67 101 210  81 205 211  54 205 211  28 102 212  68 102 212  25 213 218  78 213 218  84 117 214  26 117 214  89 110 215  74 89 215  96 173 216  26 173 216  69 131 217  24 131 217  80 177 218  78 177 218  72 141 219  72 93 219  50 125 220  50 78 220  26 173 221  81 173 221  68 102 222  7 222 230  25 120 223  71 120 223  130 135 224  93 130 224  92 193 225  74 193 225  40 114 226  86 114 226  69 103 227  16 103 227  42 77 228  77 129 228  18 73 229  73 108 229  102 222 230  85 102 230  46 156 231  70 156 231  91 188 232  48 91 232  22 123 233  71 123 233  31 93 234  72 93 234  12 98 235  72 98 235  </DataArray>
<DataArray  type="UInt32"  Name="offsets"  format="ascii">3 6 9 12 15 18 21 24 27 30 33 36 39 42 45 48 51 54 57 60 63 66 69 72 75 78 81 84 87 90 93 96 99 102 105 108 111 114 117 120 123 126 129 132 135 138 141 144 147 150 153 156 159 162 165 168 171 174 177 180 183 186 189 192 195 198 201 204 207 210 213 216 219 222 225 228 231 234 237 240 243 246 249 252 255 258 261 264 267 270 273 276 279 282 285 288 291 294 297 300 303 306 309 312 315 318 321 324 327 330 333 336 339 342 345 348 351 354 357 360 363 366 369 372 375 378 381 384 387 390 393 396 399 402 405 408 411 414 417 420 423 426 429 432 435 438 441 444 447 450 453 456 459 462 465 468 471 474 477 480 483 486 489 492 495 498 501 504 507 510 513 516 519 522 525 528 531 534 537 540 543 546 549 552 555 558 561 564 567 570 573 576 579 582 585 588 591 594 597 600 603 606 609 612 615 618 621 624 627 630 633 636 639 642 645 648 651 654 657 660 663 666 669 672 675 678 681 684 687 690 693 696 699 702 705 708 711 714 717 720 723 726 729 732 735 738 741 744 747 750 753 756 759 762 765 768 771 774 777 780 783 786 789 792 795 798 801 804 807 810 813 816 819 822 825 828 831 834 837 840 843 846 849 852 855 858 861 864 867 870 873 876 879 882 885 888 891 894 897 900 903 906 909 912 915 918 921 924 927 930 933 936 939 942 945 948 951 954 957 960 963 966 969 972 975 978 981 984 987 990 993 996 999 1002 1005 1008 1011 1014 1017 1020 1023 1026 1029 1032 1035 1038 1041 1044 1047 1050 1053 1056 1059 1062 1065 1068 1071 1074 1077 1080 1083 1086 1089 1092 1095 1098 1101 1104 1107 1110 1113 1116 1119 1122 1125 1128 1131 1134 1137 1140 1143 1146 1149 1152 1155 1158 1161 1164 1167 1170 </DataArray>
<DataArray  type="UInt8"  Name="types"  format="ascii">5 5 5 5 5 5 5 5 5 5 5 5 5 5 5 5 5 5 5 5 5 5 5 5 5 5 5 5 5 5 5 5 5 5 5 5 5 5 5 5 5 5 5 5 5 5 5 5 5 5 5 5 5 5 5 5 5 5 5 5 5 5 5 5 5 5 5 5 5 5 5 5 5 5 5 5 5 5 5 5 5 5 5 5 5 5 5 5 5 5 5 5 5 5 5 5 5 5 5 5 5 5 5 5 5 5 5 5 5 5 5 5 5 5 5 5 5 5 5 5 5 5 5 5 5 5 5 5 5 5 5 5 5 5 5 5 5 5 5 5 5 5 5 5 5 5 5 5 5 5 5 5 5 5 5 5 5 5 5 5 5 5 5 5 5 5 5 5 5 5 5 5 5 5 5 5 5 5 5 5 5 5 5 5 5 5 5 5 5 5 5 5 5 5 5 5 5 5 5 5 5 5 5 5 5 5 5 5 5 5 5 5 5 5 5 5 5 5 5 5 5 5 5 5 5 5 5 5 5 5 5 5 5 5 5 5 5 5 5 5 5 5 5 5 5 5 5 5 5 5 5 5 5 5 5 5 5 5 5 5 5 5 5 5 5 5 5 5 5 5 5 5 5 5 5 5 5 5 5 5 5 5 5 5 5 5 5 5 5 5 5 5 5 5 5 5 5 5 5 5 5 5 5 5 5 5 5 5 5 5 5 5 5 5 5 5 5 5 5 5 5 5 5 5 5 5 5 5 5 5 5 5 5 5 5 5 5 5 5 5 5 5 5 5 5 5 5 5 5 5 5 5 5 5 5 5 5 5 5 5 5 5 5 5 5 5 5 5 5 5 5 5 5 5 5 5 5 5 5 5 5 5 5 5 5 5 5 5 5 5 </DataArray>
</Cells>
<CellData  Scalars="f_984"> 
<DataArray  type="Float64"  Name="f_984"  format="ascii">2.3889072871272443e-01   2.4654376736633304e-01   1.2384774587084617e-01   2.3664793213294602e-01   1.7548594704844611e-01   2.2730986466286415e-01   2.5018214969768077e-01   1.9975550159848277e-01   2.5262189165739446e-01   2.4447275965256599e-01   2.4042674618980453e-01   1.7719000735449780e-01   2.0762908913668743e-01   2.7440284816801486e-01   1.7170856930244383e-01   1.5065955571855363e-01   2.4362387265067079e-01   2.2236171363988175e-01   2.5086015460701749e-01   1.4645171353617167e-01   2.7505280896878215e-01   2.2370703365783168e-01   2.6649172741252830e-01   2.4627365847863847e-01   2.2685626791540375e-01   2.3667400182220491e-01   2.6434847306972076e-01   1.8722806344395135e-01   1.9273063137800797e-01   2.6386333135708501e-01   1.9992739253980346e-01   2.5235490563170487e-01   2.3598368501297304e-01   1.9490218927669462e-01   1.2485820143415367e-01   1.8902436926068952e-01   1.0030526989094234e-01   2.0476064880057263e-01   2.7346435448794060e-01   2.5029629802741510e-01   1.8391957819505664e-01   2.3094115409072546e-01   2.1339019945944354e-01   2.0308940226554748e-01   2.1790540230356314e-01   2.2353478851508490e-01   2.8563340526566661e-01   2.0725349095295059e-01   2.3928870287646253e-01   1.2033059139358769e-01   2.2409860875809587e-01   2.6538649128552877e-01   2.2459692660916433e-01   2.1800628364727700e-01   2.5891367988941077e-01   1.6271663333712069e-01   1.8655669636796909e-01   2.1778833995698871e-01   2.0963973045217549e-01   2.2522413243454978e-01   1.9104574085804246e-01   2.4574220504840416e-01   2.0784806303919878e-01   1.9400991072958307e-01   2.1580400047570805e-01   2.5727267828734168e-01   1.8418897960729647e-01   2.1876266610553932e-01   2.7506071401731169e-01   2.1452350196389805e-01   2.7266936336381281e-01   2.8485510782378454e-01   2.8488716434603750e-01   2.8019649911566918e-01   2.5102788833348577e-01   2.0979113114426640e-01   1.9847908518426141e-01   2.2607124164306799e-01   2.6521662688208131e-01   2.1387294069399598e-01   2.7036588742524920e-01   2.4084926471265677e-01   2.7955093565912420e-01   1.5542191334450406e-01   2.2311641980972333e-01   2.5876880018510373e-01   2.3873938477781065e-01   2.2825012230544711e-01   1.9866284481622976e-01   1.5337998714377790e-01   1.7304659761740193e-01   2.1528682376399230e-01   2.1515728000682882e-01   2.5587691141375929e-01   2.6280263450966834e-01   1.4136562914560766e-01   2.4369981675552091e-01   2.6893230444713317e-01   2.4256158339393727e-01   2.0972530422356295e-01   2.0718965020946833e-01   2.1941143422519291e-01   1.9635032476271155e-01   1.9933823827361660e-01   2.3536339060065523e-01   2.3973738796394736e-01   2.5132124981829285e-01   2.4753103065173684e-01   2.0132661443662286e-01   1.8236697825273052e-01   2.4865696425779016e-01   2.0289293752645945e-01   2.3609754976277728e-01   2.2712312763073106e-01   1.8550517355352872e-01   1.5436547821489016e-01   2.6432836360622791e-01   2.2509485438696267e-01   2.7343140653228970e-01   2.3247988243126969e-01   2.5116176204693053e-01   2.4474686589366798e-01   2.7227811982732392e-01   2.7880520578725759e-01   2.3474758745946589e-01   2.7154135377064736e-01   2.7447773574328999e-01   2.4080059362078760e-01   2.2989290654128997e-01   2.0839559752608927e-01   2.2578945500973716e-01   2.1780974485123394e-01   2.3859825167756338e-01   2.4658105446496065e-01   2.3086017503508205e-01   2.3418867537294175e-01   2.5982189711535497e-01   2.3420362783158682e-01   2.1716628862407822e-01   1.8775217278493075e-01   2.5664481196553557e-01   2.5218271193101477e-01   2.7919892807901747e-01   2.4073831535814538e-01   2.2774697427377294e-01   1.9117545883708184e-01   1.4151239828579884e-01   2.4523894396570509e-01   1.7670791255114454e-01   1.9043503933570663e-01   2.5504481445661870e-01   2.3553874957868004e-01   2.3425223609558549e-01   2.7484422639518602e-01   2.2899485569908121e-01   1.4430987216263186e-01   2.7527147992449497e-01   2.3260628638975489e-01   1.7505952557348287e-01   2.2262554387496858e-01   2.1705122633469709e-01   2.3677917713374796e-01   2.5563977005792615e-01   2.6878759807971309e-01   2.7523062940910076e-01   2.0355554248287500e-01   2.1953008336941038e-01   2.7633083725372187e-01   2.4183147556339971e-01   2.0842376949441282e-01   2.1542457468665727e-01   1.7261083598473434e-01   2.5106333347239906e-01   1.9527450440405544e-01   2.4902542346267839e-01   2.1561189886852691e-01   2.4919465470877267e-01   2.5316093588254202e-01   2.7363321532515916e-01   2.3984863634474213e-01   2.7258987351939007e-01   2.6459636674880105e-01   2.5024513680407673e-01   2.3833261515009688e-01   2.2279546166490341e-01   1.8134008652171155e-01   1.8582194566846452e-01   2.5484671404205789e-01   2.4843894753576470e-01   2.7925619718239186e-01   2.1716383728554223e-01   2.6421352582455143e-01   2.5915031107969860e-01   1.6916956545326348e-01   2.6046176194163129e-01   2.1561218046292038e-01   2.1549652847285436e-01   2.1478908995723647e-01   2.6640472330832915e-01   2.5260884980048798e-01   2.1822686780236050e-01   2.3313655985703338e-01   1.8195860133690506e-01   2.1797077406981638e-01   2.4976736981994074e-01   2.4621883705188660e-01   2.8425920898598561e-01   2.7637730080339257e-01   2.7107079882168250e-01   1.7401419425231537e-01   2.1986914485218792e-01   2.2260577604254425e-01   2.2159183612574332e-01   2.0460414250627781e-01   2.5312016238277735e-01   2.4931653321423600e-01   2.3250921475218231e-01   2.1159630319777742e-01   2.1726136140931127e-01   1.9685828209768816e-01   2.4279516385681715e-01   2.0260363894840849e-01   2.0673615180446314e-01   2.0945350666222323e-01   2.5726861953771679e-01   2.5087227884919561e-01   2.0066469486575131e-01   1.8690902418655364e-01   2.3299469896149053e-01   1.9518537449758508e-01   2.2498484620728534e-01   2.7680734808566065e-01   1.7790757724833714e-01   2.0513958452387127e-01   1.9202923993959628e-01   2.4172160873412885e-01   2.7888923289212225e-01   2.5179739046746513e-01   1.9933823827361660e-01   2.6220370753261535e-01   2.1197977535129087e-01   2.5146460354304417e-01   2.1561218046292038e-01   2.0816988103084941e-01   2.4884715714567890e-01   2.2090712166408552e-01   2.5538599409351165e-01   2.2878700251068118e-01   2.1095819602241478e-01   2.5497538969394512e-01   1.7075761320832974e-01   2.3273167775493364e-01   2.4475369738677086e-01   2.3297301745240215e-01   2.5925342442852428e-01   2.6391038580219545e-01   2.2672845771294919e-01   2.0041661997757862e-01   2.4634638997753533e-01   2.3221953006570989e-01   2.2038185045492456e-01   1.6022309744015995e-01   2.2538040875075571e-01   2.4934985712053520e-01   2.4522159581309622e-01   2.5964697404483333e-01   2.1538230184509558e-01   2.2214779867777801e-01   2.1372436834741887e-01   2.0543707844060757e-01   2.6617821100559885e-01   2.4281655868084723e-01   2.3428207483343769e-01   2.0526276097726540e-01   2.1998529205755071e-01   2.2510177902342654e-01   2.1561218046293515e-01   2.7206138156553678e-01   2.2524302324478726e-01   2.1139941722925870e-01   2.0083897110571874e-01   2.5717988125052899e-01   2.4843788110465279e-01   2.3838963944043112e-01   1.6639433890933875e-01   2.0074624746273553e-01   2.3534329038926458e-01   1.4921148415850075e-01   1.2766680735041522e-01   1.4105737177777170e-01   1.5286022346972081e-01   1.8518411420583802e-01   2.0734137927359672e-01   2.4895105957370833e-01   2.0485830679581415e-01   2.7414976475145036e-01   1.9829859222739202e-01   2.5003124092251566e-01   2.2304838190012244e-01   2.1363599470499109e-01   2.5473316067302865e-01   2.1500167558873351e-01   2.1915833247393829e-01   2.0780500246794587e-01   2.6138858453187236e-01   2.6837802728747823e-01   1.5812580470612445e-01   1.9271849595749263e-01   1.8993468771679339e-01   2.1806704574824143e-01   2.3033265401853384e-01   2.6914516916601156e-01   1.9289098328639617e-01   2.2093827517089268e-01   2.6447810895646867e-01   2.2015857393172719e-01   1.9693990053519927e-01   2.1676535668471369e-01   2.0121403954595318e-01   2.0810131188846134e-01   2.1480850549220196e-01   1.9537110835951249e-01   2.4275911631144081e-01   2.5073614302404190e-01   1.9735971719200712e-01   1.9118829137027826e-01   2.3792082969539172e-01   2.2688195083588189e-01   2.3765844468815042e-01   2.2600794590558754e-01   2.6563942830600684e-01   2.6319777156400592e-01   2.2670962910280643e-01   1.6642514941718992e-01   2.0672240244763593e-01   2.0703006293271220e-01   2.4407885827472298e-01   1.6686441134440252e-01   2.5703088551170872e-01   2.1729982991322977e-01   2.0400804937439646e-01   2.7881351732033710e-01   1.9280976567779856e-01   2.2184416219958913e-01   2.6959496906545483e-01   2.7121833711618232e-01   1.8573813551574425e-01   2.0197375851824112e-01   1.8746587249472138e-01   1.8363832695821675e-01   2.1198342483640145e-01   2.1445685068048587e-01   2.2832190921900913e-01   2.5436640096950608e-01   2.5992586497137898e-01   2.7163592144431170e-01   1.9556443942278168e-01   1.6808489207831040e-01   2.2012459070669083e-01   1.9697210241828797e-01   2.0166805615167774e-01   2.3386559764964127e-01   2.3274867802890062e-01   2.6217571622234875e-01   2.1846946744825205e-01   2.4573507471235326e-01   1.6005837283645277e-01   2.3364217121844744e-01   1.9965347681101567e-01   1.5580827173809064e-01   2.0271981239198314e-01   2.4292365552908132e-01   2.0870258451765919e-01   1.7667874888247498e-01   2.5734837101658681e-01   1.5266894963244529e-01   2.0145526839390393e-01   1.9136276749299450e-01   2.3230148850227272e-01   2.1157483027819790e-01   2.2913636341556537e-01   2.5905113295684934e-01   2.2971034889857644e-01   1.9295915106176151e-01   2.1165425538160382e-01   2.5575479013530972e-01   2.1018610024229131e-01   2.1158311068976540e-01   2.4076591439482892e-01   2.2194322546513487e-01   </DataArray> 
</CellData> 
</Piece>
</UnstructuredGrid>
</VTKFile>