<?xml version="1.0"?>
<VTKFile type="UnstructuredGrid"  version="0.1"  >
<UnstructuredGrid>
<Piece  NumberOfPoints="4852" NumberOfCells="9430">
<Points>
<DataArray  type="Float64"  NumberOfComponents="3"  format="ascii">-1 0 0  -1 -1 0  0 -1 0  0 0 0  1 0 0  1 1 0  -1 1 0  0 1 0  -0.5 1 0  -1 0.5 0  -0.9999999999999999 -0.4999999999999999 0  -0.5 -1 0  0 -0.1608775713298009 0  1 0.5 0  0.5 1 0  0.1967448868031411 0 0  -0.3410704865020901 -0.1758677846944455 0  -0.337270676143063 0.2245947987753565 0  0.1738918483882741 0.3466555693744066 0  -0.1855741513186368 0.5553333137117389 0  -0.5044086212946883 -0.5379170831562289 0  0.4905369198894101 0.2577153731301668 0  -0.06469398612496675 0.2013520957220422 0  0 -0.5061325913258391 0  -0.25 -1 0  -0.5618219673828772 0.5780056193047028 0  0.6618550928408573 0.6348342637915447 0  -0.1749140788132305 -0.537957550148974 0  -0.5393374617567087 0.02558401412158834 0  -1 0.25 0  -0.2065443906558581 0.02385980030841989 0  -0.6547803869236509 0.3099873511770068 0  -1 -0.25 0  0.0390091201308535 0.5920975939521977 0  0.1951539849385087 0.1292242771624441 0  -0.1363560417544595 -0.2201651388956229 0  0.3712574762254663 0.6150921718553845 0  1 0.25 0  0.5355652144809806 0 0  -0.75 -1 0  -0.9999999999999999 -0.75 0  -0.6454281905878519 -0.3233925309623876 0  0.25 1 0  -1 0.75 0  0.02757118475249542 0 0  -0.25 1 0  -0.7499999999999999 1 0  1 0.75 0  0.75 1 0  0 -0.02898318711980711 0  0.05410299160375907 0.1425986288704245 0  -0.07788547124974986 -0.02785702677137154 0  -0.7013404886462861 -0.1325155100703671 0  -0.3219403326026706 -0.3474973670727281 0  -0.34085405505712 0.4377897958099203 0  -0.1003105481952444 0.7645105760427729 0  -0.3839799218051421 0.7027686932274716 0  -0.05518618839759733 0.3993338718669914 0  -0.07921596181987767 0.07209355749563043 0  0.3589591852877233 0.3700975863582622 0  -0.7166090343844205 -0.7305801139201267 0  0.411905939924099 0.09023229458276417 0  0.6899800083258991 0.1920409919992809 0  -0.7475647607607061 -0.5277648399614165 0  -0.3882333314709037 -0.7107916559143582 0  0.7216356180858781 0.4193658059197369 0  -0.7761024030631137 0.09719725790929809 0  0.196829185908483 0.6989958217602193 0  -0.1991750319918892 0.2888054616884809 0  -0.7991892514663439 0.5779362994471512 0  -0.7170546914274475 0.7666963225339524 0  -0.05027553313646142 -0.3744808782904646 0  0.5852366899239468 0.8168580712402365 0  0.8207546609147798 0.8066906837263382 0  -0.1041893035910407 -0.6964891679508852 0  -0.5150026345718243 0.1630581607967306 0  -0.2022448241240582 0.1258160396930501 0  -0.3596088549809257 0.07550793411828161 0  -0.3655396713515685 -0.05237766908281033 0  -0.4971489803370228 0.3956185325718844 0  0.375 0.9999999999999999 0  1 0.125 0  -0.01202082173775568 0.071407248846377 0  0.06199092596207714 0.3922684781933505 0  -0.1716433770471929 -0.1225011042725678 0  -0.2433496527441955 0.7738192791288951 0  -0.6250000000000001 0.9999999999999999 0  0.5335036341638635 0.4549810493002499 0  -0.5767948108163611 -0.8302895351309545 0  -0.2575752398128427 -0.7835729432514688 0  -0.3200380807543958 -0.5086686944507348 0  0.8339925822499643 0.5962112787979468 0  -0.5494601375846961 0.7908674369707818 0  0.125 1 0  -0.0675559497339898 -0.09352048396636978 0  -0.4948418359527504 -0.1433392709709883 0  -0.875 -1 0  0.02953700052888429 0.04173478825983293 0  1 0.3749999999999999 0  -0.875 1 0  0.05725820500860003 0.7941713119934504 0  -0.1956556840953871 -0.374072659947617 0  -0.07315821678440486 0.5714406233219681 0  0.2364744232417996 0.5184436393288835 0  -0.7924592773309567 0.2300198142152638 0  -0.4955713196209364 -0.3893846182286396 0  -0.0001424063367486482 0.2715630949711417 0  0.5102408653111601 0.6409695406295651 0  0.3992131665808771 0.807730195465971 0  -0.8063682061632801 0.4250153026408206 0  -0.06400363056931128 -0.2208979676056471 0  -0.7098469329394821 -0.01409396358660627 0  0.09054503698969404 0.05265676823672358 0  -0.4784895817478036 -0.2514413098507629 0  0.7238597118872515 0.08307740077429523 0  -0.8086374382599608 -0.4115277843422175 0  0.3375926834926631 0.1540128039103867 0  -0.7946185079255923 -0.2509955493053742 0  0.2363236866013357 0.2548716607372439 0  -1 -0.8750000000000001 0  -1 0.875 0  0.1843606284654463 0.04810523207524697 0  -0.2477674107008374 -0.229278291152629 0  -1 0.375 0  -0.171374825240393 -0.0418108124615515 0  -0.6492389585938831 0.4681694661705148 0  0 -0.07736776745332727 0  0.08028627067563562 0.2603496644019536 0  -0.375 1 0  -0.2173775839992906 0.4251899074963051 0  -0.1204362601180081 0.1503973885694732 0  0.1331659973279532 0.554741086638023 0  0.1319035142133015 0.1942373466644345 0  -0.475284482576571 0.2700508618366266 0  -0.04636712526848678 0.01392694105725453 0  0.8512878330304486 0.3708003059585916 0  -1 -0.125 0  0.2858783136617181 0.8370608958471184 0  -0.1111652659353968 0.3134487338622711 0  -0.125 -1 0  0 -0.757503739517526 0  0.07821397079968176 0 0  -1 -0.375 0  -0.375 -1 0  -0.625 -1 0  0.7474787146812756 0 0  0.625 0.9999999999999999 0  0 -0.2918843213980812 0  -0.9999999999999999 0.625 0  -0.9999999999999999 0.125 0  -1 -0.625 0  0.3284075310660084 0 0  0.004929205892015135 0 0  -0.125 1 0  0 -0.006571003003944568 0  1 0.625 0  1 0.875 0  0.8749999999999999 1 0  -0.5634463293194925 -0.6768806721768954 0  -0.004915026381329192 0.1605818738728976 0  0.3624022674686223 0.2637628708176817 0  0.653018387700566 0.2946190660528153 0  -0.8550128507970086 -0.6473135830476434 0  -0.8633729367753626 0.7871174181642033 0  0.4306040662983481 0.5021309020258279 0  -0.3992262128003399 0.855775256603557 0  -0.7791954922098274 -0.8751842931927734 0  -0.8709078301966598 -0.7848672946338948 0  0.1542310620926614 0.8424490486656471 0  -0.6588608946644244 0.1531148599528797 0  -0.578051998797804 -0.06410773884315972 0  -0.8546587089930344 -0.06264860394137992 0  -0.2966266496651743 0.5626308948330082 0  -0.4244600489687187 0.5704125115429598 0  -0.3765838016352738 0.3315063946413976 0  -0.6188014555961318 -0.2165749028185077 0  -0.2732615240073845 -0.09009907459631823 0  -0.6406329841640729 -0.5891923557704715 0  0.8596513281669116 0.2663876265615392 0  -0.03287372055634813 -0.03299670930406604 0  -0.05504774786469368 0.1148402106035805 0  -0.1341673456774163 0.4325189516688207 0  -0.120126602093243 0.03246807757911593 0  0.5378032067098868 0.06485087693215785 0  0.5793182036435223 0.3600921972834378 0  0.691991448087076 0.7755012056252223 0  -0.7934901829787245 0.8811010726438873 0  -0.6436189515196445 -0.4297690313163775 0  -0.1149023986300908 -0.3981398789691825 0  0.8720584649896532 0.4894111482653993 0  0.07593158256749044 0.09416317085936478 0  -0.6650622170636014 0.8679977490326475 0  0.4547024136460759 0.3513759631972463 0  -0.02646303178916768 0.0359172687793753 0  -0.4095785652999889 -0.4405650583063498 0  -0.3622369272864937 -0.2689788585559234 0  0.3235887342025083 0.4824635541849651 0  -0.196561642190764 0.2018810403429107 0  0.7058193920161047 0.5319414831215324 0  0.2617889635866282 0.3567609157615053 0  -0.3772657457335727 -0.8518233988190631 0  0.109238134634293 0.6825607918469495 0  -0.285044320913567 -0.6122072051181079 0  -0.4419184359067495 -0.6204791192137403 0  0.2963401573879773 0.6928983015473117 0  -0.8751311084687027 -0.1749485244256249 0  -0.180372104632131 0.8549168963957637 0  0.4547984630723034 0.1639562344734668 0  0.280327726796881 0.04688551062782096 0  -0.1428328678474595 0.6580228993113778 0  -0.01156947574075551 0.7091675297048563 0  -0.05351205685929254 0.8750226789535048 0  0.005132825753155053 0.4704759760405826 0  -0.388189113553932 0.1538780355213604 0  0.5492241484255457 0.1336881889226158 0  -0.4767491879287412 0.6828220369153871 0  -0.8516218456153248 0.3334740794284402 0  -0.08976752994400239 -0.5364031590568702 0  -0.02905453108497308 -0.5521765622069168 0  -0.2137650739466886 -0.287969892261621 0  0.868455499117726 0.1517461395046668 0  -0.1682649700791929 -0.6608460904061975 0  -0.8894650132197417 -0.5291014012063738 0  -0.2823407689796463 0.3387902551598679 0  -0.6768186925674854 0.5748273396942641 0  -0.897611449953311 0.5318663240708796 0  -0.8983896623274424 0.6611719639381275 0  -0.644853772927548 0.07261757235212971 0  -0.8592376939986283 0.02860897754780612 0  -0.888295408018917 0.1682645989856835 0  -0.1306047423458302 0.2294088952875568 0  0.1603167027888175 0.44682473160045 0  -0.04357956491053315 -0.1259142280554088 0  -0.753840593574573 0.6707670179435397 0  -0.6031331643295962 0.6986180330426479 0  -0.2549380567706769 0.07875239664843468 0  -0.2499790626664613 0.6492867562181527 0  -0.0275105485557876 -0.006412870543765707 0  -0.495070777848202 0.8769594825018633 0  -0.4775317163663289 0.491166855594847 0  -0.2910448528165466 0.1444136600368038 0  0.002233789180737223 0.02370126853976922 0  0.7798137074240259 0.6847870727614254 0  -0.4707207269175542 -0.8248424491640779 0  0.2719787151070533 0.1955832498018971 0  -0.1480046464937218 -0.8629233441753825 0  -0.06537675793082541 -0.8292986259457219 0  0.4438063348123306 0.7066955354773591 0  -0.1168134239016821 -0.2889137562524708 0  -0.2653999625461949 -0.02615624047899165 0  -0.8941028480597131 -0.8968183508624976 0  -0.5734831696951612 0.2378366170614966 0  -0.4767656231423151 0.08788722524266807 0  0.4916875153263592 0.8262467227261894 0  -0.02777214070295701 -0.26054654164838 0  -0.3104749823955048 0.8752789155915156 0  -0.1434597508210884 0.08073520028013409 0  -0.4698243421715324 -0.03487591287795608 0  -0.3885012963855388 0.01221316705612419 0  -0.2922550592991953 0.02769107076995901 0  -0.385402919671654 -0.1205296017299663 0  0.8882217369704903 0.6989577329001746 0  0.793190211037098 0.9110956689531808 0  0.5766887312904871 0.208550485420174 0  -0.5607259221946891 -0.4698898170794338 0  0.5993950181872257 0.7069101011314728 0  0.678825393858044 0.8886345820859005 0  -0.05139953897841786 0.3036987622313936 0  -0.9022036390403728 0.9047072356147021 0  -0.1277917841857496 -0.06722120772176698 0  -0.1
[...]
<PointData  Scalars="w"> 
<DataArray  type="Float64"  Name="w"  format="ascii">1.7470708891745477e-10  1.0305888681730843e-11  4.4662563841997181e-10  2.6557070711721361e-09  6.2469587043581058e-10  1.5692485280034144e-12  8.6695915549938761e-12  7.5200208824209612e-11  4.0652190529645182e-11  2.1214808406979515e-11  1.0520186194969589e-10  9.5224834636834173e-11  4.0628925629233280e-10  2.7461909225912420e-10  9.1147209851604262e-12  5.3053426593648654e-10  9.0778584787202294e-11  7.2087083178382723e-11  1.3056564812224568e-10  3.5431499856033509e-10  6.7557665326500725e-11  1.0547187493169965e-10  5.7584489464516055e-10  9.3025289321399416e-09  5.8373541977305448e-10  1.0757883054073873e-10  8.8368133546651668e-11  1.7570120498705647e-10  7.6469227142588110e-11  1.9044053321116645e-11  4.6895066033920791e-10  9.7546684946551655e-11  2.3976328890731724e-10  1.7929752948399703e-10  4.5562934476889549e-10  2.2800900660824380e-10  7.7326755510727057e-11  4.7460486724221228e-10  5.8900680862756692e-10  3.1136216630361466e-11  5.1468633527253902e-11  1.0701408725700621e-10  9.1790418849613566e-11  1.9759534330025562e-11  1.0585886472455871e-09  8.9190210780597739e-11  3.2316935045112310e-11  9.4327735404524707e-11  1.2753935331440389e-12  5.9348260450257703e-10  2.2255751164203352e-10  2.1507149416809784e-10  8.1780367714949871e-11  2.5351866588632156e-10  2.6271923725823957e-10  1.9974981218321591e-10  3.5137153379431933e-10  8.9272918607300028e-11  5.8372885409414249e-10  2.5218969987423540e-10  3.0584577178069941e-11  3.1605153572315094e-10  3.7837420288657455e-10  1.4408215898432826e-10  5.4096854660796224e-11  1.7819585264627613e-10  7.0657658389150851e-11  1.7512122961464306e-10  2.3234959493930930e-10  4.5590281290029125e-11  6.2843093093004965e-11  4.2211288718085489e-10  5.6119667498970536e-11  8.6390072432857800e-11  1.7450108558160968e-10  1.6992028476971646e-10  2.5822553085821466e-10  2.9022801251247608e-10  1.8204317172517412e-10  1.9236650642398447e-10  6.4898529922337041e-11  2.5214048241063683e-10  2.6556854585771555e-10  2.0067545087254774e-10  2.3466403819876867e-10  1.2313940563246642e-10  4.6544104703710858e-11  1.1043263415599933e-10  9.3215063811273427e-11  2.5823296718789533e-10  7.0226303013034807e-11  9.8777012491043894e-11  7.7178814217366921e-11  9.4139348747306472e-11  3.9226063469270197e-10  2.0840636173960423e-10  2.5110129135487843e-11  6.5928812929539644e-10  2.5720423594705707e-10  3.1492362347340350e-11  2.7380115252538901e-10  4.1883470873927705e-10  7.1557984877914529e-11  9.7617130404787985e-11  1.5715610908369460e-10  6.4257636278504809e-11  2.7375257617254310e-10  8.3264378547547540e-11  1.4447752748866178e-10  6.5189908032550160e-11  3.1373290895844803e-10  2.4321082350772645e-10  2.3373493779352287e-10  6.3933208648552072e-10  1.2103662926681197e-09  1.5091829765081428e-10  1.6579168837793318e-10  1.0344479720921885e-10  4.5879343509673420e-10  2.5371311951039564e-11  2.5674348038837826e-11  2.7922705821308511e-10  9.1993576572721432e-11  6.0772461396936220e-11  5.0365362697827629e-10  5.7244505614262291e-11  6.0368748704075040e-10  1.1924710577054816e-10  7.7179860277568114e-11  8.2950386472669961e-11  3.4338050945432302e-10  1.7332083091416119e-10  4.6478903477797485e-10  1.3531894905479618e-10  6.2672410372928770e-10  4.3917268020364700e-10  1.0860207853889750e-10  5.1922500760816076e-11  1.3042556833959596e-10  2.6099859869268033e-10  4.3668995893021496e-10  6.1073339256202478e-10  9.0854690684339091e-11  1.1862687016785790e-10  6.7637802753165819e-11  6.5763777298336730e-10  8.4556562700700867e-11  3.2077468718190559e-10  1.4652368015165166e-10  1.2434241974665684e-10  1.9706813947676492e-11  2.8428527090048167e-10  1.5959597229226011e-09  5.7670326640505226e-11  9.7603664993105330e-10  7.7947949474130271e-11  2.3770446068339421e-11  2.3785385912816254e-11  1.2152865604063568e-10  5.6237315424299934e-10  4.4934279023582096e-10  1.6112848133916110e-10  1.1253177465609681e-10  1.6582042301789028e-10  1.8775800777593419e-10  5.8631361774600656e-11  7.6204802064671900e-11  2.0271509055529956e-11  5.9892577360245591e-11  2.9089879193174656e-10  9.2644231948965402e-11  1.0562239715467029e-10  8.3880768550165660e-11  9.5969016765853164e-11  5.3427394994971083e-11  9.5432477186927724e-11  4.5568368780430052e-10  5.6262812619537434e-11  1.6425149915120830e-10  1.7200596247693982e-10  4.6722271409028058e-10  1.9750492610886281e-10  2.8448435564105892e-10  1.4365296076988005e-10  1.4499019113751386e-10  1.4786002806248709e-10  2.0861591843301878e-11  2.8133927156149814e-10  6.4799060377801741e-10  2.5419576661625352e-11  2.5339040430978854e-10  8.7814338676631119e-11  1.5801359093602765e-10  1.1240536954748181e-09  1.3809273390144306e-10  1.6401421111280437e-10  2.3255268961109732e-10  2.8810613723674358e-10  1.0503731632657354e-10  2.0448164983547487e-10  4.1614719261029431e-10  2.1603274515826181e-10  2.4002675969715454e-10  1.1029422318317351e-10  1.1166761052826911e-10  1.1270252244908698e-10  7.0460853962421750e-11  2.0840019466666158e-10  8.8856625407161863e-10  7.8204471467303849e-11  1.0879899094074257e-10  7.7745942505184830e-11  9.6762777303375745e-11  1.6276542457335051e-10  3.7803801555283646e-10  7.8072301909870626e-11  8.3649276320665197e-11  7.5146190817956886e-10  9.1383683085807742e-10  2.9487568714331133e-10  2.0032305727003245e-10  8.1306145581812986e-11  7.9923300623181949e-11  3.3444855595730051e-10  5.8170233354626032e-11  8.1848980929988939e-11  4.9854679846161643e-11  9.2818343783387489e-11  4.1147508195100454e-10  9.0471380492010318e-11  1.9812891707239348e-10  1.6499663101916327e-10  9.0900387392408831e-10  6.1039175284079619e-11  1.9679863971668314e-10  1.1565871261388959e-10  1.1174022783161053e-10  7.5423632616647887e-10  7.3860922562472793e-11  8.4388199606434625e-11  1.1789734432387703e-10  1.1290830659812396e-09  4.0537204390180738e-11  7.7694446854650117e-11  2.7986966834723261e-10  2.5738576830928698e-10  3.4555939729590564e-10  1.8021504658615111e-10  2.0447782010239228e-10  4.0347640711530354e-10  2.9004423565901067e-11  1.0482818779001488e-10  1.2795724659097864e-10  3.7442932315056243e-11  2.7432292214872543e-10  4.4256590487918036e-11  3.3290219559970022e-10  1.3651291528346000e-10  1.1036141036873050e-10  1.9192213454211354e-10  5.0060481733686728e-10  7.2366150392255475e-11  2.6465942808139312e-11  1.4537749286577892e-10  8.1896043608725347e-11  5.8880095889204080e-11  7.4990829620304252e-11  1.7977295943289510e-10  4.9463720103244269e-11  2.6358236859209444e-10  2.5480399564357991e-10  1.2945694243564712e-10  1.2913407095599668e-10  1.3256184259297960e-11  7.1665649085109995e-11  1.4710190755766186e-10  1.6731240911530381e-10  5.0131349530811894e-10  3.7234822779636018e-11  8.2618507940133927e-11  3.3433072783262121e-11  2.4020673735643989e-10  1.2569870337752334e-10  1.8298959425692588e-10  7.5369329855916067e-11  8.6582886221975415e-11  1.2104237625064783e-10  2.0270883851608714e-10  2.2372282228932686e-10  2.6193958135929692e-10  4.3864673564599178e-10  2.1391548915885626e-10  2.1050863349563381e-10  1.4576494340440859e-10  8.0789165910966864e-11  1.7153868084400179e-10  1.6946325572317061e-10  6.3118057365876465e-10  1.2783839219464449e-10  6.2929540108615667e-11  4.0888707282006979e-10  1.9150083525982576e-10  2.0518747013992527e-10  1.1569950498373034e-10  3.2033042824003796e-11  4.4762072143624012e-11  9.8137591541248594e-11  6.8818036113859214e-10  2.9456760788078736e-10  1.8148316422358265e-10  1.3585373562305047e-10  3.3914315544476858e-10  6.7765033597893809e-11  1.1097101671749127e-10  3.5370964022792968e-10  1.3606890925362444e-09  9.8792425102806414e-11  2.8304883491872914e-10  6.1787868828225161e-10  1.2385227955412354e-09  1.9908811344740160e-10  1.5391553945779374e-09  4.1972124689077987e-10  2.2593806534818163e-10  1.2145970704327644e-10  4.1624662259894834e-11  6.5946809498254377e-11  1.2601695827195177e-10  1.5665826923601242e-10  6.3872054943974358e-11  9.9279118362465284e-11  1.0741206571486885e-10  1.2855654059698520e-10  1.9344276386109598e-10  5.0155213457113538e-10  3.2053242079806675e-10  1.6566253928990276e-10  9.6499539024081349e-11  6.1909081366109482e-11  5.9614293039569637e-11  6.9924672001196735e-11  1.8203619513640731e-10  2.2176299796629402e-10  1.0531786221921226e-10  1.0462547730504712e-10  2.3861041994560344e-10  1.3660468945560734e-10  6.8889285328622070e-11  5.9904442730856451e-11  1.0559929767644022e-10  3.4073935445039004e-11  1.8386353261973072e-10  3.2446077583468200e-11  1.6087985100604857e-10  1.7910267004171341e-10  1.5324330343388741e-10  3.9196818706724426e-10  7.9875392294340397e-11  8.3637188262123442e-11  1.4264519294921171e-10  3.0266585082812553e-10  1.4593550945511320e-10  2.6350177177790158e-10  1.1112238809778136e-10  1.3449069138691914e-10  1.5430565487141109e-10  2.9554158395216795e-10  1.2803869142732650e-10  3.3397591261009192e-11  1.1559270314416378e-10  1.1197554775076539e-10  1.4826301416204707e-10  2.4841896554707673e-10  1.6863973975720293e-10  3.5025700536392028e-11  1.2995382504351376e-10  2.3755804037975041e-10  2.9222076595503938e-11  3.2941783339388756e-10  1.6454277743406305e-10  3.9289430843460168e-10  1.1356036832021451e-10  2.3279782510915842e-10  3.2501563046194041e-10  7.5450667133444562e-11  1.0587820306524362e-10  2.1758845520307399e-10  7.2098761820580064e-11  4.8659054283663196e-10  1.6062334755534651e-10  9.7886264007967597e-11  1.0792799720290374e-10  2.0900147076033313e-10  5.4169439860709038e-10  4.8124468327532291e-10  1.7739027837705665e-10  1.7012684926150583e-10  2.0553141443261584e-10  4.0060955648388944e-10  4.5786580181132942e-11  2.2334674515450683e-10  8.2344763445775167e-11  1.2449891275140566e-09  1.1855100010340288e-10  4.6079741051542293e-11  5.5478304172188886e-10  3.3515561431106786e-10  2.4702922531939836e-10  2.0729667667055408e-10  6.4078613158392312e-11  1.5342192788197234e-10  3.3151106236385932e-11  4.3723220841843405e-10  8.1660441920764617e-11  1.3842219355584541e-10  1.2753139439224007e-10  6.5716820448488520e-11  3.4860319443984195e-10  4.3402567882952912e-11  1.1695950312021380e-10  2.4585485864042203e-10  1.7908465788590326e-10  7.1527925293568271e-10  9.2172430930528633e-11  5.7533895074580018e-10  1.4545231951705809e-10  3.5647641766546777e-10  5.5620840140484839e-10  2.4412209488813386e-10  1.5571086829903374e-10  2.7358305134613118e-10  4.8257707145794055e-10  3.4975026970536935e-10  7.5608374271914704e-11  4.8646065216526666e-11  1.6425045811744349e-10  3.5915452797060047e-10  1.8377955126073084e-10  1.2493966287452213e-10  1.7022880194310094e-10  7.9835908342328098e-11  7.0319309006559663e-11  1.9900808108292746e-10  5.7656368755821171e-11  2.0693572454044683e-10  9.0824766279361706e-11  4.8048368724344457e-10  4.8604338065270348e-10  8.1796741799552280e-11  4.2058184085054917e-11  4.0249790533475563e-10  6.5171756586831569e-10  2.5869425343148492e-10  9.9473510562450278e-10  2.8904187106885753e-10  3.1750577839607791e-10  2.7497609523470251e-10  2.6774617331450323e-10  9.7393954747397550e-11  3.1109707029074185e-11  1.9380039224465592e-10  1.0674784759299506e-10  2.1517270003515998e-10  7.5285117150850781e-11  1.1954543208078842e-10  2.0743499333208401e-09  1.7751793968140681e-10  8.0829215164269991e-11  8.1532325622798856e-11  4.0137148708911704e-10  2.4368839842264579e-10  1.8967248294336413e-10  2.0902336231807685e-10  4.3970948666010689e-11  7.6094571021968310e-10  2.4122477419454476e-10  5.3650492694825951e-10  2.5073953265689614e-10  2.4193610362274921e-10  3.1089602593838776e-10  9.4801024761558948e-11  3.2763261023126206e-11  3.5636987238859289e-11  3.7173901486644529e-10  3.6419112467673830e-11  1.1685577718652492e-10  1.0215496763025228e-09  7.4949747665694975e-11  3.4776192651408291e-10  2.6224914637479632e-10  6.1796620899501281e-11  5.9808586179550301e-11  1.8179563772870266e-10  2.4525246462835936e-10  4.7489793885489155e-11  1.1377891945372101e-10  1.5968584310442706e-10  7.6174839885595592e-11  1.6757313532483484e-10  2.1444033465928319e-09  3.3907240380426318e-10  3.2026246922644021e-10  1.0756305333374518e-10  1.0613575807250530e-10  1.8618853081138089e-10  7.9419032946730861e-11  1.3365537370553429e-10  4.9922473180507905e-10  8.7252591825816009e-11  2.4006088764387728e-10  2.1124127084137129e-10  1.3883759183177686e-10  5.0216988173115747e-11  7.6937243821867644e-11  5.4248483823008420e-11  3.7294350319722836e-10  1.0669165023513611e-10  2.2016440982964211e-11  5.7215888849151211e-10  3.0289314428359562e-11  6.2198213542442684e-10  1.1764652499073240e-11  7.2879287532315011e-10  1.7670096372004572e-10  2.5525546866022449e-10  1.0359336083943840e-10  2.8745813227554166e-11  8.3261544716740399e-11  2.7894196925798393e-11  2.0179750974034272e-10  3.7311980022825350e-10  2.7149845228624694e-10  3.3109150845691276e-10  1.3548199534251432e-10  9.4874352098874963e-11  6.3683216818542264e-11  3.6520810879146165e-10  5.0138442506090618e-10  1.0417819876319734e-10  9.9961654773984260e-11  1.4675661661460531e-10  7.4946487468196717e-11  4.6161018327581402e-11  5.4872744148564146e-11  3.2261912898451766e-11  8.7838705003888776e-12  1.7657180778066135e-11  9.6446421647886173e-11  2.2346443635977603e-12  1.0941207703560984e-11  1.8614795375804362e-10  3.4997881097479846e-09  2.2338157366567459e-10  4.1568193648051797e-11  2.2208328774125207e-10  9.2028304476381801e-11  1.1171776712480748e-10  4.3163336612462138e-11  1.7107383161759286e-11  8.8209307787219639e-11  7.4112604377602288e-10  7.9068679899303380e-11  1.8323417158819258e-10  3.2428473849498878e-10  4.8039980272451441e-10  9.6609567726334919e-11  1.0220612772632421e-10  5.8537072305486849e-11  7.7436213888181743e-11  1.1111613298129298e-10  5.6012338438441579e-11  5.8989968324858665e-10  5.8910845197844629e-11  2.7842508633980291e-10  8.8382160885266052e-11  1.2785212576548595e-10  3.0751188768917475e-10  4.1650719422387490e-11  6.3176899408551117e-11  2.8284760667122955e-10  1.1718980723758486e-11  1.1223897671982908e-10  8.8956189978698981e-11  7.7017108889039034e-11  5.6370576091337970e-10  1.6178521413806293e-09  2.8357752110379351e-10  2.8981531674389428e-10  9.0958071884675475e-11  6.8937302208229707e-11  2.5354275475833495e-10  1.1599776445189905e-10  9.7890609764860728e-11  1.0456038720497084e-10  1.9599965725839610e-10  7.3459612847776615e-11  5.1489087267919662e-11  6.9570292188334278e-11  3.9098777045359810e-11  8.5078253331873700e-11  1.9195180730595641e-10  1.6175489891344385e-10  1.1172448652660906e-10  2.7485944977482179e-10  4.6286192015088015e-11  1.3700992447271196e-10  5.2511829217074710e-10  6.6483423898110566e-11  1.1891162311215232e-10  1.2464569044904731e-09  5.7573682298945084e-11  3.3891351344919762e-10  5.1538119977172824e-10  1.5854122988663226e-10  1.2810460954261168e-10  1.2593283062894540e-10  8.9109919414787833e-11  2.5023583357761234e-10  2.8718477820937191e-10  1.7646103995404033e-10  4.7136532913705879e-10  4.2412777367197836e-10  1.2075014785516394e-10  2.0839205120109600e-10  6.5945405493200901e-11  8.4126874963273578e-11  6.2465288592553649e-11  2.3902293234398940e-10  4.0168014115172602e-10  3.0822146038066090e-10  3.2602284638957584e-10  8.5762421368870381e-11  2.2895009364175295e-10  4.8208738311683273e-10  1.6875659916867896e-10  4.7819884449867498e-10  1.8389208795548276e-10  1.3732073691182818e-10  1.1191501789065298e-10  5.0834203769846918e-11  5.3760471050774683e-11  3.3873157140665257e-10  6.2603095240229682e-11  6.3894100944802490e-11  1.2814398762094643e-10  3.2181861346782639e-10  3.1837588829768327e-10  1.5737609479364496e-10  1.1767642370304976e-10  5.9685988332178811e-10  6.2891099764881414e-10  1.6192775131304666e-09  2.7015838333859235e-10  1.9944503693377232e-10  4.4513527850699503e-10  4.5682220131313719e-10  1.1833947353190124e-09  2.9732561996192790e-10  2.4441937097464857e-10  3.3206632869421988e-11  1.2821732996710592e-10  3.2593196234038297e-10  4.6417343288687961e-10  2.1181354230092723e-10  6.6850187147488637e-10  3.0217806996934538e-10  2.1531758572550447e-11  4.8706969515424410e-10  3.3480365810613069e-10  3.8847157418463499e-11  3.3497983035134598e-10  4.1390747158932309e-10  5.4608584072914234e-10  1.4573098592539217e-10  6.7114845568300101e-10  1.9582330339471650e-10  4.7488006557008446e-11  1.2775681876986929e-10  1.3261585492460103e-10  3.1846815167189080e-10  7.8358822163942848e-11  2.6042757331885420e-10  1.9605950520288942e-10  8.1438573895910202e-12  2.1586931979889375e-10  5.7469083904397403e-11  9.0532714206370085e-11  1.2325739169263459e-10  6.3747124520382871e-10  4.1372835592756031e-10  3.0649136801861193e-10  1.1773403457916344e-10  1.3077587099576635e-10  9.0747300486193623e-10  5.4550121116911489e-10  1.3409907306295988e-10  1.4264573862764133e-10  9.4937030848683006e-11  4.9052932279511487e-10  1.3721691739162689e-10  1.7346528840009146e-10  9.4240727861218851e-11  7.0846643720232700e-11  6.3256133704210709e-11  1.4948309229159162e-10  9.8367477930152013e-11  1.2747494378915418e-10  4.2164183488294030e-10  7.7052673657084975e-11  6.0208712519410574e-10  1.2343000546844572e-10  2.2461244715039238e-10  2.7546088697826004e-10  5.5485771026458821e-10  1.1662767365803524e-10  4.0102587496275206e-11  6.2635405099889872e-11  1.4257050273304267e-10  1.5956472467391059e-10  5.1119414225211193e-10  8.3762865339706246e-11  1.6246030258075659e-10  2.5178977647631230e-10  1.4019276147946040e-10  2.3686021846537156e-10  3.4290178784349960e-10  3.1224647515509589e-10  1.0351601642741425e-10  1.7459618634028200e-10  1.4935677653124004e-10  2.2768462953530085e-10  4.4107636150268909e-10  3.7379966798307328e-10  2.0163652455457729e-10  2.0049277096931509e-10  1.2501575048101138e-10  1.7184710919455483e-10  3.0095220397714721e-10  3.8150538401598452e-10  3.6274990392351708e-10  1.6656693982271249e-10  2.2021179898229665e-10  1.9650469540121447e-10  1.5193144792427771e-10  3.9805232137631675e-10  3.1846780770095593e-11  1.0536373424090089e-10  1.2720435832289991e-10  6.8227095361658286e-08  4.0663262914784624e-10  1.7498169521918187e-10  6.1116974925407576e-11  2.5689180015703361e-10  1.3679987380550988e-10  6.4204019584716806e-11  1.0493798908755271e-10  2.0256844948907721e-10  2.0602798002070374e-10  1.9583353063635097e-10  1.8778596949175156e-10  3.1007642115051244e-10  6.5229287589165956e-11  8.0189530441739195e-11  1.8995464893140146e-10  1.2277252352231784e-10  3.4664448478503391e-11  4.0193639730716268e-10  6.4456611618324634e-11  6.1343562239249500e-11  1.9476319785655701e-10  9.9173911701768368e-11  2.3717610368643287e-10  2.9014771794877112e-10  1.6476097358017853e-10  8.3633066782514732e-11  1.8678852212016576e-10  9.6391396845247446e-11  3.1904933727412393e-11  8.8810105091989067e-11  5.8635302412321857e-11  7.9030284489338111e-11  2.2698424208000435e-10  4.6636065018793133e-11  6.5311962531589508e-11  9.4541857221298366e-11  9.2863506363022530e-11  9.3894469241940403e-11  2.5236371206384766e-10  8.8133713017090535e-11  1.8498631061589069e-10  2.0614159063118179e-10  1.0196719612350327e-10  1.6090976599943764e-10  3.1549382430972222e-10  1.2385962436437370e-10  6.1814901157212119e-10  1.6958780371448352e-10  1.4927729219813637e-10  1.3864067515455346e-10  2.2381993792614338e-10  4.3777217192763138e-11  3.9377938687749326e-11  7.6299390920485921e-11  4.3017651539276303e-10  2.0040948312080154e-10  6.6022000564589255e-10  4.4381185885614446e-10  1.2095649838673074e-10  5.4933464285342166e-10  3.6366920962973627e-10  1.8760563736841138e-10  7.1134332527788119e-11  9.3062911327729133e-11  1.7509200190883220e-10  1.8782083433126684e-10  4.1373623890438874e-11  4.9101882036360527e-10  2.8291367391398805e-10  3.1237456072013245e-10  5.2103305294132968e-11  3.4964440184591888e-10  2.6819199457380085e-10  5.8710834103867146e-10  7.2496288428964335e-11  6.1724045191211442e-11  2.3945026829134615e-10  7.2152370442558742e-11  4.2451619185817940e-11  1.4599980017632782e-10  2.4359816319416644e-11  6