<?xml version="1.0"?>
<VTKFile type="UnstructuredGrid"  version="0.1"  >
<UnstructuredGrid>
<Piece  NumberOfPoints="4852" NumberOfCells="9430">
<Points>
<DataArray  type="Float64"  NumberOfComponents="3"  format="ascii">-1 0 0  -1 -1 0  0 -1 0  0 0 0  1 0 0  1 1 0  -1 1 0  0 0.9999999999999999 0  -0.5 1 0  -1 0.5 0  -1 -0.5 0  -0.5 -1 0  0 -0.1608775713298009 0  1 0.5 0  0.4999999999999999 0.9999999999999999 0  0.1967448868031411 0 0  -0.3401794341445962 -0.1757214643006497 0  -0.3362357092684519 0.2236530909665886 0  0.1738298302373008 0.345594625061985 0  -0.1846073729613285 0.5544155569828129 0  -0.5034746141190672 -0.5370886600675201 0  0.4904111053698723 0.256481127802572 0  -0.06417459331279191 0.2006810635985078 0  0 -0.5061325913258391 0  -0.25 -1 0  -0.5606583459508637 0.5767983803475978 0  0.6612673107321978 0.6332142884056435 0  -0.1765511212863239 -0.5374251102210502 0  -0.538326399204502 0.02507364173469363 0  -1 0.25 0  -0.205740991240428 0.02359990676169505 0  -0.6540104945393878 0.308669292677332 0  -1 -0.25 0  0.0392075508454877 0.5911681303105616 0  0.1950436738261151 0.128550116958725 0  -0.1360884225687668 -0.2197738650001615 0  0.3708152718412504 0.6138454166771447 0  1 0.25 0  0.5355652144809806 0 0  -0.7500000000000001 -0.9999999999999999 0  -1 -0.75 0  -0.6446423295553938 -0.3228284067426158 0  0.25 1 0  -1 0.75 0  0.02757118475249542 0 0  -0.25 1 0  -0.75 1 0  1 0.75 0  0.75 1 0  0 -0.02898318711980711 0  0.05423861217910519 0.1420266549690994 0  -0.07755746200181633 -0.02777908075935425 0  -0.7006838411943056 -0.1324662350057097 0  -0.321318751804177 -0.3470047048966782 0  -0.3395798676846996 0.4366709738227011 0  -0.09974841684871971 0.7638872235961703 0  -0.3826067439659153 0.7021430657903394 0  -0.0546410086143159 0.3983542595470612 0  -0.07874167141691799 0.07183880425291883 0  0.3587531995258574 0.36887594028342 0  -0.7156518189972975 -0.7296163898282327 0  0.4117837696526908 0.08964150072770857 0  0.6899602771629013 0.191202103349947 0  -0.7471068799697546 -0.5266133105421685 0  -0.3874909143386001 -0.7103463362943409 0  0.7215721475529429 0.4179079797205953 0  -0.7756547423754064 0.09661935932237521 0  0.1965608830756918 0.6981733823536606 0  -0.1982527543675958 0.287912908988615 0  -0.798544777894405 0.5769200641066646 0  -0.716237815898526 0.765967072169111 0  -0.0508408784076854 -0.3734169973430781 0  0.5844426119032016 0.8160932313803148 0  0.8201425026045926 0.8055378404183205 0  -0.1064363513068447 -0.6970475486972476 0  -0.5139204997833517 0.1620690819571935 0  -0.2014169258617501 0.1252653584917423 0  -0.3585983534973131 0.07491453427474498 0  -0.3645497625965313 -0.05255187161177225 0  -0.4959986873898515 0.3943220984439905 0  0.375 1 0  1 0.125 0  -0.01180788749817641 0.07115327837253624 0  0.06213910856286602 0.3912949209762454 0  -0.1710379418774848 -0.1223499484350216 0  -0.2424664600285006 0.7733323129530087 0  -0.6250000000000001 1 0  0.5332086175313697 0.453493311468032 0  -0.5757210168490878 -0.8298858657666635 0  -0.257722076879405 -0.7834683399265954 0  -0.3196730480765083 -0.5080619220041975 0  0.8339071404868198 0.5947852792464188 0  -0.5481705242170665 0.7904354979013084 0  0.125 0.9999999999999999 0  -0.06731728770648725 -0.09337829067914441 0  -0.4939652689554577 -0.1433146552496888 0  -0.875 -1 0  0.02956516576397603 0.04156805481447484 0  1 0.375 0  -0.8749999999999999 1 0  0.05730815501208525 0.7936323843145006 0  -0.1959217214424912 -0.3733831215872529 0  -0.07258744105548293 0.5705480741209197 0  0.2362687601743972 0.5173262226011197 0  -0.7919647615137663 0.2289360171237382 0  -0.4947361529893944 -0.3887679200517408 0  0.0002028751878991884 0.2707143987590506 0  0.5096127783620884 0.6395689871426185 0  0.3986281548833723 0.8069651906312538 0  -0.805847273923928 0.4238895288647979 0  -0.06394405731065758 -0.2205390404687483 0  -0.709173807432841 -0.01440665244678729 0  0.09050621273449312 0.05238140544804624 0  -0.4776428707440936 -0.2511444296909448 0  0.7238594933190035 0.08268185394999278 0  -0.8083340654432922 -0.4107930471557382 0  0.3374455746315084 0.153183116774959 0  -0.7941965969791289 -0.2506820019338962 0  0.2362142076452579 0.2538685068571676 0  -1 -0.875 0  -1 0.875 0  0.1842865462361041 0.04776219376427861 0  -0.247112191839582 -0.2289666704277245 0  -0.9999999999999999 0.375 0  -0.1707151255446971 -0.04181037112211446 0  -0.648271862094828 0.4668181231447975 0  0 -0.07736776745332727 0  0.08040616439013902 0.2594931714765756 0  -0.375 1 0  -0.2163730145074552 0.4241834932933138 0  -0.1197871084401841 0.1498627003020763 0  0.1331186435668272 0.5536586786442603 0  0.1318962646047078 0.1934542617434766 0  -0.4741475536328374 0.2688467253788067 0  -0.04609714223342157 0.0139278816160778 0  0.8514850990206181 0.3697564572084683 0  -1 -0.125 0  0.2854418428236244 0.8365845459685464 0  -0.1104603205192315 0.3125600146052371 0  -0.125 -1 0  0 -0.7575037395175259 0  0.07821397079968176 0 0  -1 -0.375 0  -0.3750000000000001 -1 0  -0.625 -1 0  0.7474787146812756 0 0  0.625 1 0  0 -0.2918843213980812 0  -1 0.625 0  -1 0.125 0  -1 -0.625 0  0.3284075310660084 0 0  0.004929205892015135 0 0  -0.125 1 0  0 -0.006571003003944568 0  0.9999999999999999 0.625 0  1 0.8749999999999999 0  0.875 1 0  -0.5622963062462651 -0.676064016445576 0  -0.004616358902744057 0.1600097119147531 0  0.3622539182917844 0.2625771976778764 0  0.6529494746158088 0.2933523048055359 0  -0.8545129448152213 -0.6462671941890489 0  -0.8631470733082298 0.7867592696255951 0  0.4302534863444746 0.5007475046202421 0  -0.3982024464124553 0.8556012710397288 0  -0.7784891854547007 -0.8746556818128542 0  -0.8703205826667312 -0.7841052404839317 0  0.1540489913180375 0.8419877876340514 0  -0.6580775273588743 0.1521678940741287 0  -0.5771031994660704 -0.06433040203611121 0  -0.8543356254867676 -0.06267894267496427 0  -0.2953799111519654 0.5616899454161991 0  -0.4230796201629751 0.5694052238347085 0  -0.3754546992865923 0.3304191964356881 0  -0.6179016212202088 -0.2163208838541624 0  -0.2723776048274915 -0.09010796197218236 0  -0.639674051727453 -0.5881554907799871 0  0.8597504693597734 0.2657510820215574 0  -0.0327709638785921 -0.03291012009980963 0  -0.05461655139758497 0.114425731911749 0  -0.1333760425675326 0.4315389829892886 0  -0.1195593550369815 0.0323084449727883 0  0.5377449597568461 0.06444962036077088 0  0.5791367074560462 0.3586774871188437 0  0.6911106349036918 0.7743814410207666 0  -0.7930935553920163 0.880954401707656 0  -0.6428968023756422 -0.4288872377276908 0  -0.1164910143121057 -0.3970257419429676 0  0.8722419889409813 0.4882855723016286 0  0.0759537228796672 0.09374537354575294 0  -0.6642925447081763 0.8678920833455411 0  0.4544984202094581 0.3500598283501141 0  -0.02624095706973889 0.0358214426625041 0  -0.4088316193215119 -0.4399364960166352 0  -0.3614328259417458 -0.2686411875744019 0  0.3233291123962694 0.4812644251076014 0  -0.1956872951631121 0.2011228660895377 0  0.7055441350122035 0.5302792305064176 0  0.261649045845416 0.355632622185108 0  -0.376600207765387 -0.8517219657352059 0  0.1091292235358823 0.681696964970367 0  -0.2850110016545744 -0.6116932653154585 0  -0.4410581153807758 -0.6197861023006849 0  0.2959844828369279 0.6919553409012348 0  -0.8747475655042235 -0.1747718121292832 0  -0.1798356728910012 0.8547681132090323 0  0.4546759909819126 0.1630345122650414 0  0.2802501504848736 0.04658686795128705 0  -0.1420194924441438 0.6571627454511032 0  -0.01125619745168359 0.7083762556229433 0  -0.05327827473093039 0.8748623463103016 0  0.005491213041287793 0.4694530147583013 0  -0.3871692331320939 0.1530158501605912 0  0.5491242245882925 0.1329359921040603 0  -0.475347951132864 0.6820424236409983 0  -0.8513119931928158 0.332438468204488 0  -0.09258199769699375 -0.5360205712672366 0  -0.03175843342511535 -0.5519208199923645 0  -0.2134142394666632 -0.2874844120883192 0  0.8685361842293572 0.1513727550026372 0  -0.1700321816119105 -0.6607706886673157 0  -0.8891312755129698 -0.5282363108907235 0  -0.2812435483767855 0.3378165733983047 0  -0.6758302844059829 0.5736566524893335 0  -0.8973349550135468 0.5311493985820909 0  -0.8981973787463831 0.6606532953289862 0  -0.6439815319720587 0.07197559028007733 0  -0.8589242767388289 0.0283584948703393 0  -0.8879895344192164 0.1676955727627618 0  -0.1298813406089388 0.2286500870329184 0  0.160239232281131 0.4458044667529877 0  -0.04346294817007527 -0.1257737030962669 0  -0.7530636621676875 0.6697208900023403 0  -0.6019556078788862 0.6976391941058592 0  -0.2540172271284326 0.07826524832838845 0  -0.2488834221652705 0.6484820506407416 0  -0.02738921504574306 -0.006332722996501815 0  -0.4940805965913183 0.8768620619054731 0  -0.4763285785249188 0.4900196044586859 0  -0.2900308319488698 0.1436800544110489 0  0.002286034763540583 0.02361837305030064 0  0.779366970696601 0.6832182915086906 0  -0.469741656508517 -0.8245981872896008 0  0.2718524173171795 0.1947048856714948 0  -0.1488606022660214 -0.8631658815468873 0  -0.06599247216498465 -0.8296609204553714 0  0.4431278354176462 0.7056122154416046 0  -0.1170724325065384 -0.288186338168843 0  -0.2644998830805269 -0.0263277421519995 0  -0.893698655767285 -0.8964097535415643 0  -0.5724857528400369 0.2366257343901616 0  -0.4756837146086443 0.08715763924655659 0  0.4909869930639803 0.8255384030405477 0  -0.0271142226638002 -0.2605151196446502 0  -0.3097903919644573 0.8752316215198583 0  -0.1427860497901114 0.08037997099164929 0  -0.4688239710529559 -0.03515518312480309 0  -0.3874995356113174 0.01183260913927941 0  -0.2913076340741799 0.02732466593606234 0  -0.3844477253008608 -0.1205408124019305 0  0.8880916353860158 0.6978054451945298 0  0.7924974328363253 0.9105495173326582 0  0.5765943969046397 0.2075491066693157 0  -0.55974780554125 -0.4690544660003041 0  0.5986234535987289 0.7055752268579152 0  0.6780696807806962 0.8881089242892933 0  -0.05089651008366647 0.3028296722342947 0  -0.9020483227107292 0.904552238757773 0  -0.1272845513939816 -0.06711794967065325 0  -0.1687669590578647 -0.1
[...]
<PointData  Scalars="w"> 
<DataArray  type="Float64"  Name="w"  format="ascii">1.7571330137657267e-10  1.0400341788481136e-11  4.4105844398662023e-10  2.6423428433852264e-09  6.2385736791028578e-10  1.5718624044480142e-12  8.6925049837007562e-12  7.5217582842683179e-11  4.0815894166001916e-11  2.1147330112205056e-11  1.0823631536102244e-10  9.6441262457700627e-11  4.0348078079497557e-10  2.7894832946205204e-10  9.1879359753328394e-12  5.2343987015511347e-10  9.0868962655896724e-11  7.2385295659083902e-11  1.3060955714408049e-10  3.5676080979777254e-10  6.7152714859407374e-11  1.0438357744609365e-10  5.7231446552345323e-10  7.8980512997545496e-04  5.7946805358583981e-10  1.0895717373778619e-10  8.9406248131585524e-11  1.7301989857605030e-10  7.6645597199858028e-11  1.8834432330062652e-11  4.6702200032396686e-10  9.8306000287077412e-11  2.4399351727587495e-10  1.8129205901853632e-10  4.5252892853906558e-10  2.2717258223149865e-10  7.8361908302290251e-11  4.7903672918247253e-10  5.8572705474902411e-10  3.1431938299541664e-11  5.2994340433129121e-11  1.0806917997176288e-10  9.3018345120291629e-11  1.9969361569121196e-11  1.0486536463022634e-09  8.8246832984409642e-11  3.2248777648365784e-11  9.6989674705537602e-11  1.2378371216074870e-12  5.8783674069133301e-10  2.2025492825665061e-10  2.1324112902529384e-10  8.2597607244655429e-11  2.5080163653289724e-10  2.6148366192152157e-10  2.0528081709810617e-10  3.5828256351012295e-10  8.9310727785163805e-11  5.7684488822506232e-10  2.5166942537185335e-10  3.1364770284549158e-11  3.1380833124364876e-10  3.7902370402042942e-10  1.4447123631782930e-10  5.4529600025825554e-11  1.7857030344444715e-10  7.1100474295568494e-11  1.7839515962764855e-10  2.3307867605579036e-10  4.6352094844909414e-11  6.4871596612307700e-11  7.6116883477452189e-10  5.7165857393556846e-11  8.8596846227899657e-11  1.6794881826000293e-10  1.7079619460120840e-10  2.5614575237107407e-10  2.9091426924293492e-10  1.8258886829580225e-10  1.9578907244202194e-10  6.5532094615705620e-11  2.5230485850849222e-10  2.6162718180056065e-10  2.0109294589007324e-10  2.3406800734439726e-10  1.2528383981753352e-10  4.7141581829230392e-11  1.1040774468190814e-10  9.4870140057855100e-11  2.5497203178025428e-10  6.8700760427700410e-11  1.0004737626510591e-10  7.8760344418009195e-11  9.4949523114160057e-11  3.8880746594117980e-10  2.0961499701365825e-10  2.5662688586167207e-11  6.5191083325460504e-10  2.5730665555990543e-10  3.1861549499447463e-11  2.7802435821601231e-10  4.0735011593630082e-10  7.1144590463015304e-11  9.7422962613613954e-11  1.5785157135628624e-10  6.3700356869490574e-11  2.7313767823797641e-10  8.3798714396478607e-11  1.4733605161184364e-10  6.6494211466359094e-11  3.0913100844096684e-10  2.4774125209078130e-10  2.3134123530241968e-10  6.4296526549840362e-10  1.2078906618611947e-09  1.5028439359553167e-10  1.6457698443612804e-10  1.0293121556686334e-10  4.5762482169333610e-10  2.6069254246068964e-11  2.5853367025740418e-11  2.7753651081208107e-10  9.1348265004281383e-11  6.1629342464322592e-11  5.0069713777718404e-10  5.7922637490095268e-11  5.9550548840407145e-10  1.1849764914772782e-10  7.7394797949992144e-11  8.2836997863606829e-11  3.4096491300337745e-10  1.7370798435196562e-10  4.6338720353786123e-10  1.3594600397445824e-10  6.1868317603754252e-10  4.4759993419821404e-10  1.0964320173138191e-10  5.2419033241662492e-11  1.2984232883984106e-10  2.5622883361070455e-10  1.8878795293431243e-10  6.0256762683537097e-10  9.3546651294442527e-11  1.1971790560390606e-10  6.9336176630479511e-11  6.5523762087031338e-10  8.7076115582638789e-11  1.9586528980897783e-09  1.4884721546165863e-10  1.2473961406587907e-10  2.0178695156523240e-11  2.8269811513183237e-10  1.5795209829775669e-09  5.7241391206455443e-11  9.5970899436869054e-10  7.9746103620319855e-11  2.4807501344366910e-11  2.4528611585753053e-11  1.2224953037747968e-10  5.5806031441385909e-10  4.4421840039876418e-10  1.6102994497246830e-10  1.1575831452706441e-10  1.6846026176534066e-10  1.8820395848081947e-10  5.9071277623042741e-11  7.8295917155628131e-11  2.0567996456171780e-11  6.0459919757636309e-11  2.9607581168175944e-10  9.2437732175005945e-11  1.0629443599357908e-10  8.3223629461252989e-11  9.6973792009566183e-11  5.3586939635040408e-11  9.6065105753630991e-11  4.5524834211032272e-10  5.7175458901443064e-11  1.6407519088637308e-10  1.7148878450877485e-10  4.6190335568328188e-10  1.9836623748938637e-10  2.8145124392507963e-10  1.4258191323255935e-10  1.4510753671451495e-10  1.5127215782704029e-10  2.1182146968922540e-11  2.8732832848570541e-10  6.3404404111373295e-10  2.5789501435867154e-11  2.5063354504880238e-10  8.9763297829521500e-11  1.5802176394073160e-10  1.1058998229743232e-09  1.3646963364048691e-10  1.6256128829759650e-10  2.3404437954626695e-10  2.8700613124239369e-10  1.0656279170460672e-10  2.0444244790464263e-10  4.2189263045187379e-10  2.1905590573858716e-10  2.4237782223025321e-10  1.1021864676746625e-10  1.1307464927038639e-10  1.1345176977659287e-10  7.1655927558729209e-11  2.0804384974614349e-10  8.8155499343348529e-10  7.8353025917436487e-11  1.0899093297502435e-10  7.7884216827242713e-11  9.7021287562829603e-11  1.6263711298741522e-10  3.7708015582342880e-10  7.9525120569551872e-11  8.5891467630544142e-11  8.4437009246844451e-10  6.8299456157591404e-09  2.9592903292947581e-10  1.9962560401416480e-10  7.9429830826142381e-11  8.1385623695957846e-11  3.3654872782714901e-10  5.9197347546385300e-11  8.4062641457207034e-11  5.0538490024248142e-11  9.3687658570456767e-11  4.1681936370737114e-10  9.1125448463271700e-11  1.9729273214938326e-10  1.6626302261346509e-10  8.9995548643222529e-10  6.2277789592506591e-11  2.0016884530287706e-10  1.1523768273490696e-10  1.1286810787831270e-10  7.4664578205335430e-10  7.5753316260433536e-11  8.5677965489006912e-11  1.1817305103324674e-10  1.1111082116521700e-09  4.1408569100916445e-11  7.8338721835890866e-11  2.7827657195835420e-10  2.5324256191166762e-10  3.4091962882138344e-10  1.8355742273083073e-10  2.0968633782209443e-10  4.0366828997507958e-10  2.9664665201244825e-11  1.0592523124169857e-10  1.2844257637718998e-10  3.7876121603368124e-11  2.7132065892783971e-10  4.4346024515784050e-11  3.3187624488366461e-10  1.3616927256762674e-10  1.1045730805204784e-10  1.9144301198422005e-10  5.0238736316152482e-10  7.3558186035723904e-11  2.7166069876042644e-11  1.4491645696535925e-10  8.2132040477031925e-11  5.9916998518334298e-11  7.6997365363302032e-11  1.7885769857078987e-10  4.9898376637295774e-11  2.6291554508437146e-10  2.5484902885789195e-10  1.2877114345741739e-10  1.2833567298019680e-10  1.3811797922432419e-11  7.1417993810370230e-11  1.4615970002251518e-10  1.6955936667559252e-10  4.9566549264491019e-10  3.7065476056700750e-11  8.2643873328448766e-11  3.3729997458762524e-11  2.3779467913342308e-10  1.2640015920478215e-10  1.8592291388089820e-10  7.5221202688037688e-11  8.8543876014877994e-11  1.2106736134334140e-10  2.0333912834965385e-10  2.2367623693394153e-10  2.6149055183286361e-10  4.3676134502577241e-10  2.1397867423161441e-10  2.0950026564823153e-10  1.4581198958128186e-10  8.0620981329332170e-11  1.7151365860344825e-10  1.6716684558363593e-10  6.2381089743400014e-10  1.2979631918209511e-10  6.2796562501133491e-11  4.0599105331859882e-10  1.8948917870532022e-10  2.0992454131645724e-10  3.0773138595790560e-10  3.2989293678884350e-11  4.5061891315035481e-11  9.9574621984835754e-11  6.8066476144534810e-10  2.9254710211026367e-10  1.8126203730384283e-10  1.3710099417581979e-10  3.2815077083107246e-10  6.7238627712013982e-11  1.0839668073304172e-10  3.5141516350413809e-10  1.7686677791889390e-06  9.9489739809291263e-11  2.8189545909025779e-10  6.1291565812537246e-10  1.2261335726506192e-09  1.9774164936582657e-10  1.5232385364405381e-09  4.1698580470403685e-10  2.2588757377598692e-10  1.2213598049757546e-10  4.2236629121116548e-11  6.6469463121495188e-11  1.2622598800222199e-10  1.5730960268264237e-10  6.4313667299359235e-11  9.8807584348848063e-11  1.0657349655753132e-10  1.2799188638767342e-10  1.9229073727935587e-10  4.9540780175489414e-10  3.1818743566929599e-10  1.6630025062652561e-10  9.6578535265597489e-11  6.2048267999852184e-11  5.9469351589680589e-11  7.0765270318033214e-11  1.8252861605705625e-10  2.2781829160076538e-10  1.0660733829704433e-10  1.0629623633896921e-10  2.3991227090981542e-10  1.3728185741186274e-10  7.0330107687600807e-11  5.9825396394857477e-11  1.0564357874237544e-10  3.4513579148365981e-11  1.8758404786309980e-10  3.3151784552276654e-11  1.6077116971570014e-10  1.7936807755498822e-10  1.5046002362063859e-10  4.0051581239703958e-10  7.9798272833549744e-11  8.3813422380565499e-11  1.4528276769553258e-10  3.0824187565208203e-10  1.4391747737506847e-10  2.6344957617778657e-10  1.1140252094729327e-10  1.3604683203181574e-10  1.5813200882225878e-10  2.9145630901574177e-10  1.2744905109791726e-10  3.3959207307474478e-11  1.1803635243596717e-10  1.1242141209326731e-10  1.4875047447587851e-10  2.5473498384349489e-10  1.7181133031134668e-10  3.5279235799346913e-11  1.3000448559905698e-10  2.1476771096466693e-10  2.9517885069762499e-11  3.2965353450683050e-10  1.6318293070457205e-10  3.8843137280260235e-10  1.1311300656869316e-10  2.3766854502886798e-10  3.2588382247412334e-10  7.6203383777417712e-11  1.0622827890552535e-10  2.1910155652992457e-10  7.4390027389970588e-11  4.8297659448749383e-10  1.5980417108737094e-10  9.8807564487847029e-11  1.0898724961843749e-10  2.1084166987274381e-10  5.3856234325467316e-10  4.7596454632428696e-10  1.8073048205825865e-10  1.7234878358542556e-10  2.0907235054467743e-10  4.0322993616325291e-10  4.5788546108265094e-11  2.2622514442414592e-10  8.2486401494959831e-11  1.2383137650362148e-09  1.1832078889117394e-10  4.6159235565579758e-11  5.4653381847908455e-10  3.3812300779363978e-10  2.4640251553488997e-10  2.1107570196678097e-10  6.4626802758528773e-11  1.5433499205946023e-10  3.3706484395536022e-11  4.3727449716915920e-10  8.2893099442063359e-11  1.3895784921881522e-10  1.2764559260580455e-10  6.6315194578538626e-11  3.4892180680770867e-10  4.3667931554106880e-11  1.1883038316472357e-10  2.4406535193987407e-10  1.7899009139451090e-10  7.0918447297995795e-10  9.3237766634234294e-11  5.7370143307734727e-10  1.4899664596035292e-10  3.5317375245261098e-10  5.4927396362154889e-10  2.4393345017616214e-10  1.5537265885001506e-10  2.7172890070525513e-10  4.7984357067630757e-10  3.4788202100661025e-10  7.6191825944413493e-11  4.9501220648403369e-11  1.6317845543754230e-10  3.5566788634393002e-10  1.8701040966585755e-10  1.2774445044614538e-10  1.7269012089649793e-10  8.1770726025000589e-11  7.1810325447572872e-11  1.9952533345774686e-10  5.8362319466044214e-11  2.0776691765564780e-10  9.0843265249219797e-11  4.7784177807804310e-10  4.9647829000789395e-10  8.2372482047489648e-11  4.2105928153853060e-11  3.8960107819165624e-10  6.4678142595912983e-10  2.5876989611691243e-10  9.8244788483033806e-10  2.8714765376920729e-10  3.1616129191663929e-10  2.7230733607602625e-10  2.6528332380595146e-10  9.8010184733500414e-11  3.1603423229511961e-11  1.9424095817197575e-10  1.0671914856701072e-10  2.1593535363076542e-10  7.5231314044053239e-11  1.2383670297687616e-10  2.0470691681944635e-09  1.7672687602999520e-10  8.1450666217284834e-11  8.2708490218981345e-11  3.9808925604947290e-10  2.4242270492651232e-10  1.8964341690639850e-10  2.0794652978916305e-10  4.4865825179160034e-11  7.5282942655357950e-10  2.4163624840757123e-10  5.2527376138405492e-10  2.4687039654436347e-10  2.4352511058244338e-10  3.1321962268758099e-10  9.4641221281266905e-11  3.3229967651076275e-11  3.6340990899108468e-11  3.6701325954660246e-10  3.6512379565249408e-11  1.1801120766368066e-10  1.0172733584652452e-09  7.5282172261829118e-11  3.5340962278290895e-10  2.6375809289168849e-10  6.2193776900883804e-11  6.0357414355271196e-11  1.7960733643181886e-10  2.4484175349310752e-10  4.8816580742746516e-11  1.1350717404006279e-10  1.6172204001022481e-10  7.6084392958234003e-11  1.7044253587991798e-10  2.1174073561856831e-09  7.1417679628892128e-11  3.1916074621066172e-10  1.0688321740267513e-10  1.0835359251730653e-10  1.8950790103374853e-10  8.1295568745682003e-11  1.3443761047039154e-10  4.9943580834742976e-10  8.7260501866101208e-11  2.4320187653998761e-10  2.1570758423535535e-10  1.3883220344698109e-10  5.1769174761266474e-11  7.8743837586907550e-11  5.6248989559525398e-11  2.0389825593680302e-07  1.0687175080514093e-10  2.2142756151354864e-11  5.6981626905360388e-10  3.1022786979861603e-11  6.2012436662573460e-10  1.1782537954619852e-11  7.6144634640227449e-07  1.7804260052495615e-10  2.4943685289027421e-10  1.0561790758968096e-10  2.8954278959424195e-11  8.5785742121787113e-11  2.8152517094493840e-11  2.0766368060286251e-10  3.7215667349071096e-10  2.7171502243964629e-10  3.2952023920410729e-10  1.3514417823240423e-10  9.4792450935378676e-11  6.4127283898230443e-11  3.6069787993791402e-10  5.0398279425872715e-10  1.0609955392144204e-10  1.0124511249888967e-10  1.4751421465558743e-10  7.6799577366300071e-11  4.5923259835560536e-11  5.5518212532655286e-11  3.2517709581457755e-11  8.8948102296115916e-12  1.7929968713170813e-11  9.9582561043723997e-11  2.2689873201335120e-12  1.1162659198135931e-11  1.8567628514665999e-10  3.4859614414383315e-09  2.2602826827831180e-10  4.2902524950750964e-11  2.2003073867797094e-10  9.3454627115888030e-11  1.1235437698321023e-10  4.4083135722595778e-11  1.7274331987693593e-11  8.8966227070753014e-11  7.2792909550543691e-10  8.0129114548261518e-11  1.8346747161110039e-10  3.2421742990681342e-10  4.8311947189878193e-10  9.6485679181037332e-11  1.0209360768327779e-10  5.8733604640785607e-11  7.7201435681782330e-11  1.1330078299023653e-10  5.7769732457046367e-11  4.6255936864920371e-10  5.9278160465812750e-11  2.7659363486081769e-10  8.8476476152418777e-11  1.2814082050365158e-10  3.1271877421472415e-10  4.1790041196584626e-11  6.3781106547664228e-11  2.8872393286581184e-10  1.2019554253460026e-11  1.1362149552362467e-10  8.8773345062357417e-11  7.7303003867705175e-11  5.6024802344596058e-10  1.6125647565064204e-09  3.1062777240359085e-10  2.8856081933036996e-10  9.0915889251757040e-11  6.9812353365473181e-11  2.5532939938435460e-10  1.1793895346938722e-10  1.0052639671610967e-10  1.0511209828820898e-10  1.9924910062674708e-10  7.4424585280782598e-11  5.3008631886589801e-11  7.1077738923382650e-11  3.9994238273908439e-11  8.6993778385594273e-11  1.9086885430374497e-10  1.6167830673830708e-10  1.1153873798226262e-10  2.8411433009266999e-10  4.7437754814313051e-11  1.3658306716059027e-10  5.2025463290134146e-10  6.7242676989761138e-11  1.1820492904075753e-10  8.2092428333078546e-10  5.8374687898818227e-11  3.3669366736293612e-10  5.0870089368553894e-10  1.5768023245278538e-10  1.2878718672567833e-10  1.2565610837735358e-10  9.0689654760274981e-11  2.4819537894510647e-10  2.8504939506506428e-10  1.7742946592700099e-10  4.6590858473592063e-10  4.2203187080757612e-10  1.2226170484845446e-10  2.1151580582885352e-10  6.7063606346448288e-11  8.5277013606237637e-11  6.2980375896919165e-11  2.3997467028185726e-10  4.0051818526508570e-10  3.0742636910391411e-10  3.2509305367895112e-10  8.6214668522323067e-11  2.2681555907423207e-10  4.7808303201288655e-10  1.7186939493076236e-10  4.8232977281646048e-10  1.8397301938969523e-10  1.3852702412628931e-10  1.1244410794021428e-10  5.1449216948923375e-11  5.4808082637903252e-11  3.3525442125158051e-10  6.3158790243358440e-11  6.4791770442736601e-11  1.2980834252522376e-10  3.2071956943982569e-10  3.1887727546917198e-10  1.5720295039261285e-10  1.1771687273823539e-10  5.8792160942950522e-10  6.2418130945469551e-10  1.5959597014195150e-09  2.6731571229170257e-10  1.9887160260742213e-10  4.4222676844533629e-10  4.5323281539710452e-10  1.1644965329715404e-09  2.9611117552244716e-10  2.4817864799520583e-10  3.3319034728972088e-11  1.3004189432298711e-10  3.5130078369462100e-10  1.2268216735523200e-09  2.1074331382988772e-10  6.9998906348809732e-10  3.0644163633866679e-10  2.1733470257580810e-11  4.8548660336240388e-10  3.3102575813328076e-10  3.8815081093186625e-11  3.3315409388579942e-10  4.1391602692684385e-10  5.4260323515586865e-10  1.4555035374723582e-10  6.6968097637312717e-10  1.9550521609797286e-10  4.7599289597799169e-11  1.2763346546492530e-10  1.3287509359048165e-10  3.0984464495202818e-10  7.9516506737721313e-11  2.6499012790001537e-10  1.9642171187849501e-10  8.2476450624318540e-12  4.4680251626819008e-10  5.8402335187798211e-11  9.0599054998839213e-11  1.2458706945558762e-10  6.2928896464579262e-10  4.1075657800991124e-10  3.0306553928645286e-10  1.1723454506741088e-10  1.3256059348669708e-10  8.9519735015384303e-10  5.3801159123324889e-10  1.3469249590759252e-10  1.4194579580479604e-10  9.2815825820182842e-11  4.8479268826653542e-10  1.3918925160227649e-10  1.7538876148193624e-10  9.5551124704851584e-11  7.0993681173078888e-11  6.3652979315515807e-11  1.5052854695600244e-10  9.8510152354139829e-11  1.2953702907961718e-10  4.3582655897167689e-10  7.7287188787104026e-11  5.9356989893734652e-10  1.2758975014191187e-10  2.2384324709344142e-10  2.8149579262575222e-10  5.4772212996468634e-10  1.1661913837920062e-10  4.1206209358338979e-11  6.3424639160505759e-11  1.4198431211506865e-10  1.5915759943856934e-10  5.1712913033516635e-10  8.4928617349638021e-11  1.6340543153843576e-10  2.5283493913695380e-10  1.3689759987688985e-10  2.3807167867277519e-10  3.4061981549519019e-10  3.1063475050656872e-10  1.0523684016693580e-10  1.7511737690973406e-10  1.4893086288608320e-10  2.2788005998784531e-10  2.4883452680608404e-10  3.7309626413818564e-10  2.0174728598988358e-10  2.0674774013810390e-10  1.2574336115238460e-10  1.7318850205831724e-10  2.9919576510164195e-10  3.8075522737730655e-10  3.6139044308554594e-10  1.6572344551096331e-10  2.1982408324714043e-10  1.9575699299653403e-10  1.5505398260788917e-10  3.9937097313345339e-10  3.1987318452524244e-11  1.0581449647276296e-10  1.2706199566912751e-10  7.0277584540430851e-04  4.0566109622782667e-10  1.7745242835987875e-10  6.1165042412184915e-11  2.5594272798719692e-10  1.3835977252216283e-10  6.4731950375258065e-11  1.0604894322183336e-10  2.0235886790639374e-10  2.0654819124621186e-10  1.9544965656989628e-10  1.8963044704541878e-10  3.0986767155905239e-10  6.5727863052706064e-11  8.0450304282834931e-11  1.9157484981133420e-10  1.2175003017887690e-10  3.5573744286243857e-11  4.0256701254154490e-10  6.5022274780366939e-11  6.2333466177564300e-11  1.9391780328487479e-10  9.9522520438107103e-11  2.3792126547084836e-10  2.9213041363910358e-10  1.8867983340664083e-08  8.3820696565036816e-11  1.8837781663265467e-10  9.6911296037875182e-11  3.2897855540430240e-11  9.1115009105274293e-11  5.8537092397082224e-11  7.8555378876398717e-11  2.2507193675692908e-10  4.7608670101804432e-11  6.6648748099806099e-11  9.4982054723004789e-11  9.4207594511075865e-11  9.4134320040526695e-11  3.2064190945584965e-10  8.7779016399649114e-11  1.8493474595178958e-10  2.0501382742546279e-10  1.0024160916819341e-10  1.6073914426018579e-10  3.1508270029273347e-10  1.2472015092016192e-10  6.1336942199311353e-10  1.7122660567479480e-10  1.4960964670060867e-10  1.3824716370977014e-10  2.2964312071192740e-10  4.4398359154716352e-11  4.0230763911474344e-11  7.7317537884203243e-11  4.3227667719498813e-10  1.9969229868614245e-10  6.5481174344230864e-10  4.4067285716808623e-10  1.2148544288639571e-10  5.4543656910765922e-10  3.6514928220648683e-10  1.8905911429584648e-10  7.1174067820126869e-11  9.4020862583518816e-11  1.7464781741112395e-10  1.8752628395028070e-10  4.1957757230027342e-11  4.8134791807211738e-10  2.7942545686064963e-10  3.0433473355294339e-10  5.3896579231292506e-11  3.5064848768722903e-10  2.6632113015708856e-10  5.7944006937400524e-10  7.3535333456737804e-11  6.2114031465717018e-11  2.3859900899657596e-10  7.3110951834703814e-11  4.2945794363692238e-11  1.4871133341693450e-10  2.4509040026232595e-11  6