<?xml version="1.0"?>
<VTKFile type="UnstructuredGrid"  version="0.1"  >
<UnstructuredGrid>
<Piece  NumberOfPoints="4852" NumberOfCells="9430">
<Points>
<DataArray  type="Float64"  NumberOfComponents="3"  format="ascii">-1 0 0  -1 -1 0  0 -1 0  0 0 0  1 0 0  1 1 0  -1 1 0  0 0.9999999999999999 0  -0.5 1 0  -1 0.5 0  -1 -0.5 0  -0.4999999999999999 -0.9999999999999999 0  0 -0.1608775713298009 0  1 0.5 0  0.5 1 0  0.1967448868031411 0 0  -0.3403638319359317 -0.1755618460951269 0  -0.3362734204897824 0.2238961496122136 0  0.1739483320258916 0.3456285489994951 0  -0.1846645642743754 0.5545338813424707 0  -0.5038923466485339 -0.5372298331492582 0  0.490457800412441 0.256701287140537 0  -0.0640779317710044 0.2006454498538361 0  0 -0.5061325913258391 0  -0.25 -0.9999999999999999 0  -0.5609358521282037 0.5770656383703172 0  0.6614568842657359 0.6337016699054527 0  -0.178088440889444 -0.5374061498572987 0  -0.5384035879855072 0.02532720164466399 0  -1 0.25 0  -0.2057239224829876 0.02368336843546577 0  -0.6541139220114153 0.3091332899302067 0  -0.9999999999999999 -0.25 0  0.03930161060577717 0.5912406207418509 0  0.1950913602367098 0.1285627623339767 0  -0.1365560517838792 -0.2195655292720774 0  0.3710018358106857 0.6140315832685654 0  1 0.25 0  0.5355652144809806 0 0  -0.75 -1 0  -1 -0.75 0  -0.6448078801236389 -0.3228636990276957 0  0.25 1 0  -1 0.75 0  0.02757118475249542 0 0  -0.25 0.9999999999999999 0  -0.75 1 0  1 0.75 0  0.75 1 0  0 -0.02898318711980711 0  0.05430841805473813 0.1419522849001565 0  -0.07753174500823931 -0.02779697788243864 0  -0.7008396672451781 -0.1323282036400031 0  -0.3217826981813593 -0.3469082395127324 0  -0.3396549484676735 0.436873606338082 0  -0.09974745727048676 0.7638734390557127 0  -0.38286020113362 0.7022673596559692 0  -0.05453660109691514 0.3983828147842826 0  -0.07867350449263141 0.07179245633245089 0  0.3588516758898894 0.3690994146768217 0  -0.7161001923090702 -0.7299388330694513 0  0.4118146080019744 0.08973301233846237 0  0.6899615841534924 0.1914381403529995 0  -0.7474545223747932 -0.5269150655226335 0  -0.3880038703950699 -0.7104109412914613 0  0.7215610042088851 0.4184139716841955 0  -0.7757676779944159 0.09693254188063548 0  0.1967434906730371 0.6983076244059654 0  -0.1982175008684452 0.2880185180134608 0  -0.7986632675587918 0.5772398738410141 0  -0.7165734785844513 0.7661756205382361 0  -0.05560920347549211 -0.3728662086426569 0  0.5847210465723747 0.816417579652748 0  0.8203612575711807 0.8059620720517151 0  -0.1065759012735006 -0.6974147463322268 0  -0.5139526542707095 0.162443974077814 0  -0.2013680105158905 0.1253512909400422 0  -0.3586433311842298 0.07513720470427092 0  -0.3646475672053197 -0.05235094821700841 0  -0.4961586444790022 0.3946644380801492 0  0.375 0.9999999999999999 0  1 0.125 0  -0.0117483607644422 0.07107649879805823 0  0.06225225812246958 0.391331969049948 0  -0.1711528870733913 -0.1222504796896429 0  -0.24268619680453 0.7733797745479742 0  -0.625 1 0  0.5333321570254906 0.4539141759559577 0  -0.5761842248622367 -0.829959468530228 0  -0.2579614847350216 -0.7834994859682286 0  -0.3203123748262734 -0.5080730598070831 0  0.8339244323674105 0.5952515588634815 0  -0.5483923280869789 0.7905873932864922 0  0.125 1 0  -0.06733730656541094 -0.09336061559985039 0  -0.4941735605466226 -0.1431460938879058 0  -0.8749999999999999 -1 0  0.02959157482403593 0.04151562868175203 0  1 0.375 0  -0.875 1 0  0.0574168291598976 0.7937080190861538 0  -0.1970862190120688 -0.3731182433398157 0  -0.07258217711221357 0.5706471563395532 0  0.2364191077006041 0.5174737773498184 0  -0.7919716925359715 0.2292585561638766 0  -0.4950608445095754 -0.3887877423907224 0  0.0003213959159585094 0.270673644071215 0  0.5098722712358124 0.6398871133201642 0  0.3988535162741731 0.8071172639296782 0  -0.8058674757168122 0.4242662150204143 0  -0.06470532096603769 -0.2202529889715249 0  -0.709278523628712 -0.01418676026810924 0  0.09052694715768844 0.05234538732151754 0  -0.477908132513623 -0.2510528809985726 0  0.7238628645047906 0.08278067653964447 0  -0.8085263106166483 -0.4109826528359443 0  0.3374915458227633 0.1532916468119521 0  -0.7943518959115768 -0.2507414041203418 0  0.2362969560326467 0.2539125192529265 0  -1 -0.875 0  -1 0.875 0  0.1843131227967589 0.0477748407946554 0  -0.2474302759205485 -0.2287894006569021 0  -1 0.375 0  -0.1707334453827398 -0.04174924478787873 0  -0.648398042153853 0.4671840905718411 0  0 -0.07736776745332727 0  0.08051971453778584 0.2594670229085274 0  -0.375 1 0  -0.2164336974620739 0.424320905706686 0  -0.119704892441972 0.1498630317205356 0  0.1332858769421188 0.5537080114646634 0  0.1319787193991729 0.1934322439877911 0  -0.4741943930680682 0.2691888300292905 0  -0.04606245113091451 0.01387839111849812 0  0.8514049734144432 0.3701155039661832 0  -1 -0.125 0  0.2855674389896296 0.8367225345845228 0  -0.1103833133568308 0.3126003046059653 0  -0.125 -1 0  0 -0.7575037395175259 0  0.07821397079968176 0 0  -1 -0.375 0  -0.375 -0.9999999999999999 0  -0.625 -1 0  0.7474787146812756 0 0  0.625 1 0  0 -0.2918843213980812 0  -1 0.625 0  -1 0.125 0  -1 -0.625 0  0.3284075310660084 0 0  0.004929205892015135 0 0  -0.125 1 0  0 -0.006571003003944568 0  1 0.625 0  1 0.875 0  0.875 1 0  -0.5627636570832329 -0.6762720153714393 0  -0.004523828653876634 0.1599354727617863 0  0.3623160354011972 0.2626948083614253 0  0.652963350379123 0.2936722497512411 0  -0.8546411680334894 -0.6465863261954286 0  -0.8635066004966887 0.7870902719967523 0  0.4304008202180581 0.5010533763338689 0  -0.3983247123105944 0.8557561666040973 0  -0.778837114285073 -0.8748032772800804 0  -0.8704851776740378 -0.7843911423074746 0  0.1542068941017183 0.8420562125440254 0  -0.6581484758320867 0.152577416516987 0  -0.5771875113405822 -0.06414435445142248 0  -0.8544087667528539 -0.06254221713174893 0  -0.2955294537260217 0.5618438217488427 0  -0.4232996011980229 0.5696537169376275 0  -0.3755448657436413 0.3306994510733434 0  -0.6179789304759027 -0.2162363320604119 0  -0.2724651563952287 -0.08996821257855665 0  -0.6400512138249022 -0.5884860354565781 0  0.8597078134209276 0.2659480133721567 0  -0.0327490557129433 -0.03293564515038713 0  -0.05453145594206605 0.1143585949765885 0  -0.1333585336414832 0.4316182013345556 0  -0.1195067867990705 0.03231095186919025 0  0.5377642756763993 0.06453387575373094 0  0.5792023940365877 0.3590816021541625 0  0.6914061455826075 0.7747714924891039 0  -0.7934697548321019 0.8812131051092289 0  -0.643170618574197 -0.4290240371651232 0  -0.1191805671241434 -0.3964169563320143 0  0.8721488640633732 0.4887064952916276 0  0.07599862711931051 0.09369032280351075 0  -0.6645478644385127 0.8682270581929412 0  0.4545772592554705 0.350350496077473 0  -0.02619737456965559 0.035759220051896 0  -0.409281614811495 -0.4399660222130968 0  -0.3617376715493827 -0.2685181579395969 0  0.3234771444426413 0.4815017077065933 0  -0.1956262430046073 0.2011982866507229 0  0.7056106252214751 0.5307972579281838 0  0.2617623716921847 0.3557488945852353 0  -0.376982877892298 -0.8516738412394912 0  0.1092314535293628 0.6817592416252822 0  -0.2856231487495106 -0.6117528947635381 0  -0.441597810387848 -0.6198910966227466 0  0.2962135675702068 0.6921304365345056 0  -0.874741289151881 -0.1747412268463094 0  -0.1799573032051917 0.8549424371855935 0  0.4547145182099067 0.1632100737548019 0  0.2802700664071516 0.04661764022835467 0  -0.1420584480418729 0.6571558985327184 0  -0.01121665805859155 0.7083633561022804 0  -0.05326017046954849 0.8750149038537688 0  0.005609719226726528 0.4694767333989446 0  -0.3872244057409658 0.1532888274785325 0  0.5491553879366097 0.1330993996057263 0  -0.4756231530979376 0.682203677504188 0  -0.851354199802835 0.3327388918213666 0  -0.0947587629994599 -0.5360128995311723 0  -0.03167813272859647 -0.5519853202027131 0  -0.214019571659317 -0.2872621904492607 0  0.8685086903751447 0.1515003843578799 0  -0.1707845598533994 -0.660957588610753 0  -0.8891256185700056 -0.5284498052936876 0  -0.2812744802059878 0.3380230491287939 0  -0.6759889237385115 0.5739912297240675 0  -0.8974179074150875 0.5313713892199031 0  -0.898420216929658 0.6609217307499465 0  -0.6440288244640597 0.07229929362059286 0  -0.8589884734241323 0.0285539980362109 0  -0.8880164976528628 0.1678545950086537 0  -0.129797126647434 0.2286673801889778 0  0.1603797061462786 0.4459245679215906 0  -0.04352522808795953 -0.1257333734147781 0  -0.753296386037675 0.669932108904013 0  -0.6022297162149713 0.6977698117970208 0  -0.2539931784254219 0.07840137339412438 0  -0.249050939764612 0.6485337876894587 0  -0.02736843681942024 -0.006373812158435686 0  -0.4942861373995672 0.8770260320953417 0  -0.4765803964214741 0.4903637627314079 0  -0.2900048764626161 0.1438550531884533 0  0.002317170467139868 0.02357878608535101 0  0.7795067286201884 0.6837333681243218 0  -0.4701918490561541 -0.8246104418065185 0  0.2719139847404372 0.194787958144657 0  -0.1488550776011143 -0.8632439841962015 0  -0.06561833043148886 -0.8297690794640099 0  0.4433626425834283 0.7058773931792522 0  -0.1183880258476907 -0.2877614541550302 0  -0.2645370042472718 -0.02618925916796108 0  -0.8938701098500499 -0.8965362513601237 0  -0.5725449901348589 0.2370523402299873 0  -0.4757278840964182 0.08745070947233799 0  0.491247993757367 0.8257644249127642 0  -0.02897999362933396 -0.2599029429252218 0  -0.3099978959547107 0.8754124818574004 0  -0.1427161171767424 0.08039247550716967 0  -0.4689375555075285 -0.03492313647567415 0  -0.3875827667053351 0.0120611312481702 0  -0.2913328823649502 0.02748780144528654 0  -0.3845976754198623 -0.1203647571135634 0  0.8881484710123065 0.6981780259860141 0  0.7927381409977875 0.9108490884119069 0  0.5766247740882116 0.2077984408290473 0  -0.560000573904613 -0.4692010461366723 0  0.598913662759725 0.7059380428154044 0  0.6782831152875612 0.8883853307265981 0  -0.05080001405302433 0.3028334820177107 0  -0.9022460937626122 0.9047052623460675 0  -0.1273016435656729 -0.06707935386625542 0  -0.1690164017877348 -0.1823358603515262 0  -0.25214508076313
[...]
<PointData  Scalars="w"> 
<DataArray  type="Float64"  Name="w"  format="ascii">1.7516004644014951e-10  1.0327445619508759e-11  4.4527824423989596e-10  2.5823946788304170e-09  6.2404566233222398e-10  1.5615581075925870e-12  8.6683838781554639e-12  7.4745713186487560e-11  4.0341734087658054e-11  2.1096911638642587e-11  1.0845195565239932e-10  9.6074582778904678e-11  4.0288054540087980e-10  2.7691547721596146e-10  9.1193623615270754e-12  5.2382199591766533e-10  9.0847083999307829e-11  7.2486522660717735e-11  1.3078926600493398e-10  3.5676802327001740e-10  6.6983328659501919e-11  1.0421095564595087e-10  5.7399376421756523e-10  2.4991590759459301e-08  5.7891478218490878e-10  1.0837638976182730e-10  8.8973315271801531e-11  1.6889556578075370e-10  7.6671170409247746e-11  1.8869875015224712e-11  4.6853177716241264e-10  9.8072282786870217e-11  2.4456200734429874e-10  1.8188535355340268e-10  4.5349498424530686e-10  2.2488675847351281e-10  7.8394940081760673e-11  4.7824802084109653e-10  5.8650548324667584e-10  3.1147377147361149e-11  5.2301984247365064e-11  1.0876079464595025e-10  9.2675011862635259e-11  1.9558866573818551e-11  1.0466773915727122e-09  8.7505442881674453e-11  3.1805295733750778e-11  9.6016406497109597e-11  1.2439306624627715e-12  5.8764111128121140e-10  2.2024713776587276e-10  2.1310446865244035e-10  8.3071428203025795e-11  2.5185210575754807e-10  2.5997110579752649e-10  2.0769451104749305e-10  3.5886954222362412e-10  8.9425883593372393e-11  5.7701027596681722e-10  2.5217355149833218e-10  3.1279839750500664e-11  3.1433889347167506e-10  3.7889801708134597e-10  1.4315511159624404e-10  5.4044263897136221e-11  1.7833782374815443e-10  7.0780812312557668e-11  1.7980971775586059e-10  2.3386722407290759e-10  4.6155847810403191e-11  6.5271880085334509e-11  4.3717285481686237e-10  5.6932297491298715e-11  8.7982861305189353e-11  1.7230112507620320e-10  1.7090038886193302e-10  2.5666373825666752e-10  2.9122055933084750e-10  1.8317863470041274e-10  1.9686614358446940e-10  6.5070283081585576e-11  2.5218161844559903e-10  2.6174890848814504e-10  2.0146795182494530e-10  2.3408209993280308e-10  1.2617015707510099e-10  4.6292893820492145e-11  1.1021960167911733e-10  9.4560542585253700e-11  2.5232118766592636e-10  6.9008226530801140e-11  9.9642584627988254e-11  7.8725913323604076e-11  9.4518132435393890e-11  3.8882234094949166e-10  2.0991428606923278e-10  2.5407869090648843e-11  6.5069198632261672e-10  2.5715801299185845e-10  3.1487714056213861e-11  2.7835451775748389e-10  4.0949130261625353e-10  7.1049871218473909e-11  9.7211188350916428e-11  1.5699562788593139e-10  6.3267037891173470e-11  2.7397923812814502e-10  8.3708136921824574e-11  1.4752873608658609e-10  6.6385762103058393e-11  3.1293689009739799e-10  2.4936100519211123e-10  2.3118051646358602e-10  6.4418227140971783e-10  1.2100201240938244e-09  1.4787846829871173e-10  1.6505168107509334e-10  1.0198845670183615e-10  4.5818506079041317e-10  2.5898780109087205e-11  2.5560092838811711e-11  2.7748960629530310e-10  9.0902630155848709e-11  6.1287289111921164e-11  5.0127650524241303e-10  5.7492491811809041e-11  5.9533454397770954e-10  1.1841021522527115e-10  7.6859465194390263e-11  8.2888285446867753e-11  3.4207929631539898e-10  1.7297890531430081e-10  4.6489517199173181e-10  1.3550878438390890e-10  6.1794976027706930e-10  4.4570041604094746e-10  1.0964110588062772e-10  5.2167052359915251e-11  1.3022514129995170e-10  2.5731805425698002e-10  4.1951957042622307e-10  6.0220366369230959e-10  9.3743507164392834e-11  1.1905635967646900e-10  6.8444741126192298e-11  6.5580669928543188e-10  8.6034684730906097e-11  3.4608592717826241e-10  1.4726223408301295e-10  1.2469354491516364e-10  2.0069832566912642e-11  2.8292674052475581e-10  1.5702656269816661e-09  5.6635880215503876e-11  9.5791406352804954e-10  7.9048066491880194e-11  2.4320643714535499e-11  2.4046606070464019e-11  1.2198310045445653e-10  5.5961167926515480e-10  4.4342987293106552e-10  1.6122046089048288e-10  1.1487580100803189e-10  1.6662488676456933e-10  1.8792587214654803e-10  5.8879411065350174e-11  7.7645145591086677e-11  2.0301644802084757e-11  6.0207023625912795e-11  2.9718935229635986e-10  9.2198974322032623e-11  1.0616168485523379e-10  8.2805050546695307e-11  9.6508244325597824e-11  5.3403219038928336e-11  9.6379974243934379e-11  4.5565237684413161e-10  5.7085910171921255e-11  1.6409870336009159e-10  1.7110301012872947e-10  4.6289522706168161e-10  1.9918897768745304e-10  2.8199717565642664e-10  1.4275289418660370e-10  1.4549577369055886e-10  1.5087579401575571e-10  2.1133367166111465e-11  2.9014249406208678e-10  6.4165414162209083e-10  2.5621311058200973e-11  2.5085589337866987e-10  8.9543093325466261e-11  1.5822803473549831e-10  1.1039025321582869e-09  1.3697567989674427e-10  1.6287035841724832e-10  2.3486844028199907e-10  2.8808353405026212e-10  1.0616609811350140e-10  2.0479154175621229e-10  4.1900001813784706e-10  2.2011427502738738e-10  2.3979608913059026e-10  1.1009319101550730e-10  1.1305698337578365e-10  1.1290302379742168e-10  7.2129721491137624e-11  2.0844502268941650e-10  8.8276902951530893e-10  7.7898478776736706e-11  1.0849897694856273e-10  7.8184054516836440e-11  9.7226531494598059e-11  1.6271331105426920e-10  3.7730337663481869e-10  7.9438619487056168e-11  8.5972987423450093e-11  7.6469534998882667e-10  9.3433704971424321e-10  2.9206875722398679e-10  1.9973333379609731e-10  7.7061017007655817e-11  8.1119474925840402e-11  3.3851283514492578e-10  5.8919839911773472e-11  8.3855636126721636e-11  5.0279324364149027e-11  9.4058689975310083e-11  4.1559640453983560e-10  9.0945636435133535e-11  1.9746252856323040e-10  1.6702661449298001e-10  8.9756792676635072e-10  6.2137501293458843e-11  1.9937688102713637e-10  1.1535444504621915e-10  1.1242836032746230e-10  7.4429252975243179e-10  7.5988795011902919e-11  8.5789837005022380e-11  1.1831017342544147e-10  1.1050215375909140e-09  4.1057867368016236e-11  7.7747971755635914e-11  2.7871555409786059e-10  2.5232855611994694e-10  3.4653699395570431e-10  1.8375556506705207e-10  2.0762592087556249e-10  4.0459479029345880e-10  2.9351484118727454e-11  1.0603679849518560e-10  1.2859677477358821e-10  3.7760217724283257e-11  2.6188396993506382e-10  4.3971307489296864e-11  3.3360071731088077e-10  1.3608199555607225e-10  1.1066816067936761e-10  1.9150701453074156e-10  5.0369149970649265e-10  7.3361274896572269e-11  2.6952900766958528e-11  1.4478014523473627e-10  8.2055628425809142e-11  5.9749207535906785e-11  7.6345996076433029e-11  1.7935684762863600e-10  4.9108161857428763e-11  2.6319656511657992e-10  2.5426403737910508e-10  1.2822980447996371e-10  1.2849109357429133e-10  1.3666205566523416e-11  7.1454662685436415e-11  1.4621850862635861e-10  1.6937235643618376e-10  4.9595884152268215e-10  3.6759585906878622e-11  8.2431367790600890e-11  3.3319757513537379e-11  2.3807972552741686e-10  1.2635115005664715e-10  1.8636043951237689e-10  7.5252454902723199e-11  8.8916746807727015e-11  1.2022890405232263e-10  2.0342548498381894e-10  2.2409923937996905e-10  2.6175202563013381e-10  4.3643429075236036e-10  2.1484649885526486e-10  2.0957282922440397e-10  1.4579044763853569e-10  8.0005838654650982e-11  1.7083956996819413e-10  1.6589072613289706e-10  6.2342513649815181e-10  1.2932677599646192e-10  6.2570424832345421e-11  4.0660082786269992e-10  1.8925438941716410e-10  2.0974655582261792e-10  1.3142525029935544e-10  3.2665804975836979e-11  4.4990580269453765e-11  9.8961526651267280e-11  6.7559653132724601e-10  2.9260390818949091e-10  1.8128062207799685e-10  1.3719539915631210e-10  3.3468867131900967e-10  6.7229485971334221e-11  1.0896203729965986e-10  3.5218933952358430e-10  1.1598007123678439e-09  9.8938513093523118e-11  2.8205674959036367e-10  6.1214403697052527e-10  1.2259215485907708e-09  1.9701179912058395e-10  1.5230804240888107e-09  4.1773272621428765e-10  2.2593650405225537e-10  1.1532275096365171e-10  4.2069661266446993e-11  6.5897244612324699e-11  1.2663187788683703e-10  1.5714633629736494e-10  6.3847006422341394e-11  9.8676578927935972e-11  1.0698641374217822e-10  1.2718855338778332e-10  1.9200511576285871e-10  4.9591840932776503e-10  3.1856927842420590e-10  1.6677566052057448e-10  9.6052761492201563e-11  6.1892073621937955e-11  5.9462369272054752e-11  7.1198439300052847e-11  1.8323204726664089e-10  2.2891677821688010e-10  1.0647483914413920e-10  1.0656201164521435e-10  2.3948179065908841e-10  1.3700774428882786e-10  6.9985545685645760e-11  5.9567884740353274e-11  1.0568703260078039e-10  3.4412035863312397e-11  1.8871476125870039e-10  3.3127327006280932e-11  1.6104062045687534e-10  1.7951338879197973e-10  1.5130460492405151e-10  3.9769284886801892e-10  7.9689564218652986e-11  8.3169325936820379e-11  1.4565172249399656e-10  3.1085995593818955e-10  1.4314172860764938e-10  2.6343525364026281e-10  1.1115957335354758e-10  1.3680907954986175e-10  1.5943614238051598e-10  2.7670969666134755e-10  1.2753642069999785e-10  3.3869545747142278e-11  1.1838831515202999e-10  1.1274176843057061e-10  1.4787215614515955e-10  2.5466422937039070e-10  1.7172217803375425e-10  3.5141262835354261e-11  1.2975099860621520e-10  2.2887630373440696e-10  2.8895774956443948e-11  3.3083305292174820e-10  1.6350960588804848e-10  3.8788717403387116e-10  1.1289146789633654e-10  2.3949913598165744e-10  3.2603158191867223e-10  7.5889277130744347e-11  1.0597362371083309e-10  2.1916862588355044e-10  7.3539576337590231e-11  4.8267666569460400e-10  1.5958279586545738e-10  9.8615565891600983e-11  1.0905021451893710e-10  2.1063895184852870e-10  5.4108033301997787e-10  4.7596042625179456e-10  1.7916511535650734e-10  1.7334583977012630e-10  2.0920496114218570e-10  4.0233152524247286e-10  4.5548319589752318e-11  2.2635576415591645e-10  8.1300861334238061e-11  1.2385932399383156e-09  1.1801189019989893e-10  4.6120860474227896e-11  5.4793500388088528e-10  3.2973828562939046e-10  2.4715145358797373e-10  2.1303969898739086e-10  6.4485957270619802e-11  1.5422598972255826e-10  3.3561457153112811e-11  4.3832563925023180e-10  8.2347925182257800e-11  1.3754569306429444e-10  1.2807780549788051e-10  6.6224521868873046e-11  3.4859831000260664e-10  4.3395828352954241e-11  1.1839331960790137e-10  2.4262029678004398e-10  1.7862482059848328e-10  7.1134452816037292e-10  9.2977454299657307e-11  5.7577344367081992e-10  1.4808282387865110e-10  3.5335388740452332e-10  5.4755472370226052e-10  2.4353422351314051e-10  1.5529842092362017e-10  2.7185488244723346e-10  4.7910678893344850e-10  3.4523162264836642e-10  7.5800442563585496e-11  4.9975105184548444e-11  1.6333284291570581e-10  3.5590501722524317e-10  1.8793765221861504e-10  1.2665856497545483e-10  1.7175791432017283e-10  8.1316192132441189e-11  7.1750929315506368e-11  1.9997286634242074e-10  5.8258988989867586e-11  2.0824779286666292e-10  9.0923864293352950e-11  4.7982388636353873e-10  5.0018108771274192e-10  8.2425439954995065e-11  4.1928373099203824e-11  3.9449290110693816e-10  6.4784789210620988e-10  2.5910722281702879e-10  9.8218904615946784e-10  2.8784213553391134e-10  3.1698008425823245e-10  2.7179404863554573e-10  2.6541563758612145e-10  9.8211488448114649e-11  3.1175597467576320e-11  1.9533805490043862e-10  1.0519734438386962e-10  2.1562904905890601e-10  7.5478357828730008e-11  1.2469924863590026e-10  2.0358986486938656e-09  1.7690531970025053e-10  8.1211793559068504e-11  8.2690183861238298e-11  3.9866674988556926e-10  2.4306050298583704e-10  1.9012995030179739e-10  2.0821129729191019e-10  4.4828020161647541e-11  7.5460008626298581e-10  2.4260004540288355e-10  5.3460591470880593e-10  2.4882298932849039e-10  2.4222019325013204e-10  3.1341244892229932e-10  9.4596110657420822e-11  3.3021686853086879e-11  3.6072291767949151e-11  3.6707266970896080e-10  3.5716391197946929e-11  1.1640093193123942e-10  1.0206768623164617e-09  7.5339501033216457e-11  3.5117443164719947e-10  2.6337967026951835e-10  6.2177371374539639e-11  5.9794020928387532e-11  1.7951972028254412e-10  2.4529289603862913e-10  4.8534788395520414e-11  1.1342294101338097e-10  1.6155812333756529e-10  7.5248636915226324e-11  1.7116768919476018e-10  2.1179209993352793e-09  3.4295359657921872e-10  3.1932534900095291e-10  1.0676783278367502e-10  1.0780434258078242e-10  1.8829947259500504e-10  8.0463481776231727e-11  1.3498042726217627e-10  4.9930258521302027e-10  8.7272205468716517e-11  2.4308389447299954e-10  2.1712666402416747e-10  1.3898850428147001e-10  5.1076192458133664e-11  7.7731209453320391e-11  5.5415461849283406e-11  4.3081180726529683e-10  1.0661082510877504e-10  2.2123418865326685e-11  5.7043065207171455e-10  3.0667634234199317e-11  6.2077043403640354e-10  1.1652112704608867e-11  6.4404076722067076e-10  1.7304928072246323e-10  2.4923028817573942e-10  1.0518882517278168e-10  2.8683506705391741e-11  8.5812234880190930e-11  2.7947298075937900e-11  2.0782299880687617e-10  3.7239444790318991e-10  2.7152077082411811e-10  3.2722948436915505e-10  1.3421781368910657e-10  9.3809580928741383e-11  6.3109986314228978e-11  3.6044747822546745e-10  5.0348828675325821e-10  1.0662676797138950e-10  1.0124178622664753e-10  1.4733891583072778e-10  7.6355088118689539e-11  4.5481076614885208e-11  5.4432450840602625e-11  3.1863749556019330e-11  8.8557071445460824e-12  1.7804861667675951e-11  9.8397638910951388e-11  2.2226322321118536e-12  1.0904881494693993e-11  1.8604931947316181e-10  3.4884966246032638e-09  2.2378980348648010e-10  4.2201670081129721e-11  2.2010570236831084e-10  9.3254653670452381e-11  1.1229268683586466e-10  4.3921289033481812e-11  1.7020375267149365e-11  8.7460683804678613e-11  7.2504591490862621e-10  7.9755083977876871e-11  1.8395628983319931e-10  3.2444739959776600e-10  4.8719392501175409e-10  9.6449236491017939e-11  1.0211583795272846e-10  5.8536017730119117e-11  7.7083808586787071e-11  1.1197940156032422e-10  5.7801639990276531e-11  6.0088571493319547e-10  5.8940936001527159e-11  2.7740518411254396e-10  8.8095261883671810e-11  1.2812183721983975e-10  3.1412514766908743e-10  4.1736374716413610e-11  6.3227393995374528e-11  2.8636086524520535e-10  1.1971296448693717e-11  1.1384408295757604e-10  8.8131239822851829e-11  7.6940977801742931e-11  5.6117426732501343e-10  1.6140236062112819e-09  2.9522776278292486e-10  2.8860115774528635e-10  9.0968526139791998e-11  6.9598905153574849e-11  2.5528748756542914e-10  1.1740296184544442e-10  9.9667855982350880e-11  1.0444623510628670e-10  2.0024798886132979e-10  7.4289903957393406e-11  5.2539757964866624e-11  7.0367329287743811e-11  3.9702214559114247e-11  8.6443801361807615e-11  1.9075959055976998e-10  1.6203304822625676e-10  1.1154988766401064e-10  2.7187493742622126e-10  4.7550332780673298e-11  1.3668764169644063e-10  5.2086912747698222e-10  6.6957419052015091e-11  1.1737135717540942e-10  1.3053631059177798e-09  5.8555309781655515e-11  3.3421764984299201e-10  5.0979156977765759e-10  1.5803705630174818e-10  1.2846881204097042e-10  1.2593387649983786e-10  8.9512756203801028e-11  2.4715724513091894e-10  2.8556776044603639e-10  1.7801934120051075e-10  4.6673502125449480e-10  4.2261830241003007e-10  1.2231970872904200e-10  2.1174274876960028e-10  6.6752899276684601e-11  8.5133411725753153e-11  6.2795187366999823e-11  2.3975301498974411e-10  4.0070314025227571e-10  3.0763473642651324e-10  3.2374055041446146e-10  8.6261413489445989e-11  2.2693695441729714e-10  4.7801757619148876e-10  1.7323445119162711e-10  4.8197657843996662e-10  1.8304776289355205e-10  1.3782715912096524e-10  1.1157041524175713e-10  5.1451007337125737e-11  5.4551805191161217e-11  3.3187222425309303e-10  6.3153242741683865e-11  6.4781429382506487e-11  1.2925077194962439e-10  3.2218164892355061e-10  3.2040975512416971e-10  1.5732521845428713e-10  1.1765758298573074e-10  5.8877511697846337e-10  6.2714462506654243e-10  1.5928235565751089e-09  2.6708578512485774e-10  1.9843872978636889e-10  4.4177258310044616e-10  4.5459968857983535e-10  1.1622767645950978e-09  2.9564357721979638e-10  2.4722314842050640e-10  3.3217648698334167e-11  1.2951660316003357e-10  3.2171490248067860e-10  4.9728892188060122e-10  2.1301105800947375e-10  6.6084297869550082e-10  3.0622785767287414e-10  2.1449276805817991e-11  4.8102980413745452e-10  3.3561526154888908e-10  3.8820768925426132e-11  3.3368820810576570e-10  4.1396731998270471e-10  5.4359370564223786e-10  1.4588044861006852e-10  6.7327189013842271e-10  1.9623914517815346e-10  4.7448021012991198e-11  1.2758164367380288e-10  1.3307954215263463e-10  3.1808767530686288e-10  7.9101761856750567e-11  2.6675220585210603e-10  1.9433705208397259e-10  8.1261038602850087e-12  2.6370004717754833e-10  5.8009694494186959e-11  9.0437641538972329e-11  1.2439356714119634e-10  6.2992053971123379e-10  4.1133678677656165e-10  3.0331470812017566e-10  1.1737427492353749e-10  1.3258921803955165e-10  8.9562558445545709e-10  5.3767007062530456e-10  1.3509277833089640e-10  1.4132524954016420e-10  9.2922066188349585e-11  4.8732477521446756e-10  1.3895344961739700e-10  1.7504853663601859e-10  9.5675865400186346e-11  7.0766635418010638e-11  6.3576895666092978e-11  1.5038008383687613e-10  9.7944144288367389e-11  1.3084449382216021e-10  4.4117637091794050e-10  7.6614586628332861e-11  5.9455546047259393e-10  1.2841691588174593e-10  2.2426685821065716e-10  2.8203734387598071e-10  5.4768615820557616e-10  1.1646859325586748e-10  4.1264907541432250e-11  6.2917533143616008e-11  1.4193038079397265e-10  1.5891071743406550e-10  5.1969781182354007e-10  8.4366940001843404e-11  1.6159183804752333e-10  2.5090582806405031e-10  1.3677053804394185e-10  2.3612688688456483e-10  3.2958309905597575e-10  3.1140384522091724e-10  1.0533928946527815e-10  1.7551524081238175e-10  1.4906669142843121e-10  2.2875665364074332e-10  5.1689069702033566e-10  3.7371738548323970e-10  2.0200006899839959e-10  2.0719828171476041e-10  1.2525756672104811e-10  1.7257234274985776e-10  2.9960698845710601e-10  3.8109893123968054e-10  3.6157378863571592e-10  1.6582332885482789e-10  2.2031860895381131e-10  1.9518849437509536e-10  1.5479510471978392e-10  3.9921778449668588e-10  3.1601246274228695e-11  1.0534610881445699e-10  1.2651095534690549e-10  1.4701629399359055e-08  4.0696007481066356e-10  1.7702697173890028e-10  6.1198461837726276e-11  2.5688645336354719e-10  1.3866370640567026e-10  6.4650511127235056e-11  1.0566726981889242e-10  2.0269555504625525e-10  2.0652112714729180e-10  1.9446041406249883e-10  1.9008842215991052e-10  3.0965072004668645e-10  6.5392215106435099e-11  8.0379075501054097e-11  1.9202439175540195e-10  1.2206582976615341e-10  3.5365380711621127e-11  4.0388567042325920e-10  6.5033456152763727e-11  6.1990922768983648e-11  1.9269498752229916e-10  9.9243427119865274e-11  2.3788028933437604e-10  2.9337536721019315e-10  1.5123167071043570e-10  7.7131507867255116e-11  1.8776706922977759e-10  9.6626998300094734e-11  3.2618072103847923e-11  9.0490744626329274e-11  5.8482524561929146e-11  7.8549927118632866e-11  2.2456484163611750e-10  4.7472345655122123e-11  6.6426616490313824e-11  9.4531523890948227e-11  9.3696034161266830e-11  9.4184576936397802e-11  2.4735402262575209e-10  8.7889114397911924e-11  1.8455122990298996e-10  2.0014313800242373e-10  9.7557612754731716e-11  1.6078460762467092e-10  3.1526192438546095e-10  1.2455610274467836e-10  6.1389800391374086e-10  1.7190620075909223e-10  1.4954028092976364e-10  1.3830533986764785e-10  2.2951574512668586e-10  4.4168827268006566e-11  3.9950528479214315e-11  7.7249347853534919e-11  4.3592334472515636e-10  1.9924244684305168e-10  6.3541588662454285e-10  4.4237141468528858e-10  1.2180617983323114e-10  5.4700095656230490e-10  3.6492007168758847e-10  1.8939814180971373e-10  7.1039183761052959e-11  9.4180566349668395e-11  1.7422755963263424e-10  1.8769006812521319e-10  4.1527256639320364e-11  4.8241674415734393e-10  2.7898077148963319e-10  3.0164771316983368e-10  5.3400951288242171e-11  3.5332996987853259e-10  2.6421372441780899e-10  5.7664776829772430e-10  7.3715272889243447e-11  6.1511896670684967e-11  2.3939410594097339e-10  7.2904487156883915e-11  4.2591477300098610e-11  1.4830436023836324e-10  2.4266932676647700e-11  6