<?xml version="1.0"?>
<VTKFile type="UnstructuredGrid"  version="0.1"  >
<UnstructuredGrid>
<Piece  NumberOfPoints="4852" NumberOfCells="9430">
<Points>
<DataArray  type="Float64"  NumberOfComponents="3"  format="ascii">-1 0 0  -1 -1 0  0 -1 0  0 0 0  1 0 0  1 1 0  -1 1 0  0 1 0  -0.5 1 0  -1 0.5 0  -0.9999999999999999 -0.4999999999999999 0  -0.5 -1 0  0 -0.1608775713298009 0  1 0.5 0  0.5 1 0  0.1967448868031411 0 0  -0.3410469345433531 -0.175773088729661 0  -0.3371903751458719 0.2244844956227232 0  0.1738314660814097 0.346597149957056 0  -0.1854698771807607 0.5552648172821916 0  -0.5042629726155337 -0.5376646732645453 0  0.4905468966514754 0.2573876170008801 0  -0.06467975950638302 0.2014167037464185 0  0 -0.5061325913258391 0  -0.25 -1 0  -0.5616273350750237 0.5777517515704239 0  0.6617193223498857 0.6343571516564463 0  -0.1751404092470653 -0.5378360137952766 0  -0.5392467337979637 0.02551470739347188 0  -1 0.25 0  -0.206531204819649 0.02389799934287987 0  -0.6546965539008691 0.3097016355445474 0  -1 -0.25 0  0.03895058441393792 0.5920491386827602 0  0.1951696225968986 0.1291622823183785 0  -0.136461270323213 -0.2200680090185718 0  0.3711318958177821 0.6148394093715661 0  1 0.25 0  0.5355652144809806 0 0  -0.75 -1 0  -0.9999999999999999 -0.75 0  -0.6453488174239129 -0.323207853092488 0  0.25 1 0  -1 0.7499999999999999 0  0.02757118475249542 0 0  -0.25 0.9999999999999999 0  -0.75 1 0  1 0.75 0  0.75 1 0  0 -0.02898318711980711 0  0.05412721966598606 0.1426473141281319 0  -0.07791428271491366 -0.02777977468199262 0  -0.7012887205164341 -0.1324696776892867 0  -0.3219825688589097 -0.3473212117881883 0  -0.3406806342862538 0.4376369152192444 0  -0.1002643799479908 0.7644627247882939 0  -0.3837291608995627 0.7026932032654297 0  -0.05518229875574475 0.3993207404661563 0  -0.07920638606761463 0.07218584296767862 0  0.3589049601304347 0.3698835769513955 0  -0.7163876891761324 -0.7303103798297172 0  0.4119124192313146 0.09007269796873482 0  0.6900203364568888 0.1917427221806458 0  -0.7475104411873151 -0.527440944119534 0  -0.3879538054316539 -0.7106734591018947 0  0.7216613654654692 0.4188970615617916 0  -0.7760789248270429 0.09708452182816582 0  0.1967179273869773 0.6989070561852533 0  -0.1991043438560474 0.2887750283514102 0  -0.7990679185333802 0.5777054925290476 0  -0.7168873338904904 0.7665282436064914 0  -0.05087852088071809 -0.3742693626074803 0  0.5850454601949137 0.8166408529993107 0  0.8205928290438849 0.8063677033995197 0  -0.1035256682987572 -0.6966225002185129 0  -0.5148884451941615 0.1628837850644039 0  -0.2022149749350085 0.1258336886588812 0  -0.3595503883887545 0.07545235840059739 0  -0.3654895812942797 -0.05234744620151031 0  -0.4969903528387539 0.395371906714125 0  0.375 1 0  1 0.125 0  -0.01201215245201257 0.07148971828752336 0  0.06193075340856722 0.3922637667083854 0  -0.171664358502198 -0.1224374394989491 0  -0.2432285702903622 0.773777195126986 0  -0.625 1 0  0.5334491519534862 0.4545750158654923 0  -0.5765154029528462 -0.8301671087775699 0  -0.2571496764267197 -0.7835300659312532 0  -0.3200182422581327 -0.5085043540587958 0  0.833988880489259 0.59577707304062 0  -0.5491916903287769 0.7908030313220337 0  0.125 1 0  -0.06759031783259395 -0.0934850963433804 0  -0.4947983075834734 -0.143271320579767 0  -0.875 -1 0  0.02954357382455359 0.04177502017173185 0  1 0.3749999999999999 0  -0.875 0.9999999999999999 0  0.05720927126477544 0.7941423643366982 0  -0.1959072761098031 -0.3738770591652891 0  -0.07314617826932386 0.5714003458484416 0  0.2363692310342936 0.5183153968093812 0  -0.7924094641140137 0.2297687975349465 0  -0.4955099418939428 -0.389171549542017 0  -0.0001509625625350774 0.271600081937754 0  0.510089939077898 0.640598166780637 0  0.399071767459269 0.8075560545121575 0  -0.8062884147511612 0.4247569958221747 0  -0.06412793262014918 -0.2208197112985039 0  -0.7097897077990803 -0.01413488472438967 0  0.09056552292060711 0.05266572406656463 0  -0.4784507622509775 -0.251306695127119 0  0.7238829030657588 0.08292358940297771 0  -0.8086232022949124 -0.4113242928668923 0  0.3375994860395534 0.1538544542326304 0  -0.7945864279586861 -0.2509007370353992 0  0.236310670837527 0.2547736547757743 0  -1 -0.875 0  -0.9999999999999999 0.875 0  0.1843732912948626 0.04806481750959474 0  -0.2478084983013614 -0.2291599105170631 0  -1 0.375 0  -0.1713855179178462 -0.04174575013194277 0  -0.6490876808825216 0.467873681312149 0  0 -0.07736776745332727 0  0.08026682765433713 0.2603713163169475 0  -0.375 1 0  -0.2172815299161784 0.4251126100994407 0  -0.1204183484758505 0.1504607395596572 0  0.1330713367012593 0.5546484975527907 0  0.1319071240379495 0.1942285809208865 0  -0.4751529072565308 0.2698314463206684 0  -0.04636645355438176 0.01401839467797174 0  0.8513871118893345 0.3704478721288083 0  -1 -0.125 0  0.285760570381891 0.8369903720946215 0  -0.1111327600513239 0.3134547590155736 0  -0.125 -1 0  0 -0.7575037395175259 0  0.07821397079968176 0 0  -0.9999999999999999 -0.375 0  -0.375 -1 0  -0.625 -1 0  0.7474787146812756 0 0  0.625 1 0  0 -0.2918843213980812 0  -1 0.625 0  -1 0.125 0  -1 -0.625 0  0.3284075310660084 0 0  0.004929205892015135 0 0  -0.125 1 0  0 -0.006571003003944568 0  0.9999999999999999 0.625 0  1 0.8750000000000001 0  0.875 1 0  -0.5631872867582208 -0.676641984791854 0  -0.004904572529043944 0.1606604217602471 0  0.3623982859041625 0.2635309095764009 0  0.6530512946805352 0.2942044301352463 0  -0.8549031863353583 -0.6470259666379755 0  -0.8633316342014757 0.7870339170350218 0  0.4305145294641588 0.5018195387251752 0  -0.3990212757266685 0.8557726056994875 0  -0.7790170272392639 -0.8750397269564713 0  -0.8707589253034221 -0.7846613388491656 0  0.1541601043686092 0.8424047277770967 0  -0.6587842171656011 0.1529238632176668 0  -0.5779672973845177 -0.06411591455276779 0  -0.8546423075359942 -0.06263169723962726 0  -0.2964534301383281 0.5625208013111979 0  -0.4242260399223607 0.570246100842319 0  -0.3764605549057713 0.3313576727006262 0  -0.6187109757108914 -0.2164649028755073 0  -0.2732377423415518 -0.09004189239804325 0  -0.6404538695707417 -0.5888937556921635 0  0.8597160672331344 0.2661553030708947 0  -0.03290550932818571 -0.03294253942690922 0  -0.0550347177157007 0.1149297036007539 0  -0.1341182440296363 0.4324801201670439 0  -0.1201291837157175 0.03254535795803447 0  0.537810840668978 0.06471737882246119 0  0.5793062427613548 0.3596747963241068 0  0.6917699768206707 0.7751796649841411 0  -0.7934052719547495 0.8810733399281583 0  -0.6435428197806312 -0.4294989671639277 0  -0.1154784841679695 -0.3978470741952228 0  0.8721398106537882 0.4890531928687208 0  0.07595625182031206 0.09419547915918169 0  -0.6648919701832076 0.8679912394405358 0  0.4546721977228903 0.3510620343893653 0  -0.02645511293185437 0.03599816384657543 0  -0.4095372741564876 -0.4403594338450191 0  -0.3622350396873054 -0.2688344961480751 0  0.3234953473152115 0.482272859604554 0  -0.1965108408683302 0.2018705826431967 0  0.7057750181108273 0.5314294982062659 0  0.2617330545163218 0.3566390884514234 0  -0.3769509336968437 -0.851788441417673 0  0.1091314214511512 0.6824835110052874 0  -0.2848678404527596 -0.6121127599622972 0  -0.4417315358147223 -0.6202784524351967 0  0.2962328162598358 0.6927412619575704 0  -0.8750829749814572 -0.174887710837225 0  -0.1803068988439425 0.8549451803559556 0  0.4548102276501796 0.1637130015885158 0  0.2803357600671116 0.0468253965174289 0  -0.1427529876875596 0.6579477241035203 0  -0.01159180989965928 0.709105674228441 0  -0.05350215689506314 0.8750520640865387 0  0.005102298424003457 0.4704423287106956 0  -0.3881186791586123 0.1537622854021512 0  0.5492348508842627 0.1334484661708883 0  -0.4764829084547164 0.6826939351333994 0  -0.8515901637237173 0.3332276768781881 0  -0.09018956880216929 -0.5362636483565412 0  -0.0295940286578927 -0.552068422681209 0  -0.2138861707408826 -0.2878156885302069 0  0.8685061468594182 0.1515975855909991 0  -0.16791837854376 -0.6609023851059846 0  -0.8894006958410615 -0.5288663128353108 0  -0.2822269440904344 0.3387066497325761 0  -0.6766465022880315 0.574571091112951 0  -0.8975582521155644 0.5316994008870074 0  -0.8983544757128991 0.6610523462760465 0  -0.6447639786668934 0.07250534856918751 0  -0.8592197188543651 0.02857049412767647 0  -0.8882619159447657 0.1681317759537691 0  -0.1305714835835675 0.2294345290203063 0  0.1602247375792723 0.4467720929935455 0  -0.04360976933341529 -0.1258932252585246 0  -0.7536913570138285 0.67052102040127 0  -0.6029117570600445 0.6984130400604361 0  -0.2548992757163179 0.07875018656077266 0  -0.2498333404474709 0.6492043490597433 0  -0.02752159409379338 -0.006337059262549009 0  -0.4948637208997367 0.8769628804112126 0  -0.4773504291397468 0.4909607145953908 0  -0.2909765915323959 0.1443575951091774 0  0.002225137663863707 0.02373612066911193 0  0.7797071710282089 0.6843287737218817 0  -0.4704183875736598 -0.8247651885441049 0  0.2719861695334072 0.1954710571498635 0  -0.1475917359632219 -0.8628821644023115 0  -0.06496020373647216 -0.8292939898301049 0  0.4436354714968587 0.7064358729092453 0  -0.1170827373950856 -0.2887393258506377 0  -0.2653733164061989 -0.02612070595895903 0  -0.8939941668639704 -0.8967091755335083 0  -0.5733667150544419 0.2375931718767253 0  -0.4766662931938627 0.08777719814595357 0  0.4915207762815719 0.8260613949162845 0  -0.02790296552968148 -0.260472734193584 0  -0.3103666414641444 0.8753098504385628 0  -0.1434494923746887 0.08079768053268603 0  -0.4697521845032002 -0.034879028963752 0  -0.3884459096628961 0.01219742719892059 0  -0.292216823721197 0.02769329233322712 0  -0.3853590810017487 -0.1204669692011286 0  0.8881944016967401 0.6986246531793137 0  0.7930033170015721 0.9109307557103187 0  0.5767096961694326 0.2082361320264393 0  -0.5605883595507448 -0.4696281022072527 0  0.5992112991435234 0.7065308800070337 0  0.6786320483244832 0.8884725107923567 0  -0.05139953887072134 0.3037265738146777 0  -0.9021703968094466 0.9046734984235291 0  -0.1278144914164179 -0.06715755367014674 0  -0.16932929965412 -0.18267
[...]
<PointData  Scalars="w"> 
<DataArray  type="Float64"  Name="w"  format="ascii">1.7454335874557572e-10  1.0332301544166858e-11  4.4626402117914626e-10  2.7275136249487567e-09  6.2430023715328908e-10  1.5703513671420870e-12  8.6754537266816625e-12  7.5065314927306355e-11  4.0636233140889174e-11  2.1182132126757995e-11  1.0593751492767620e-10  9.5596420370907179e-11  4.0599138674926973e-10  2.7578406876444941e-10  9.1309878485255651e-12  5.2925584154753175e-10  9.0676776503833647e-11  7.2084376617616270e-11  1.3049573629055658e-10  3.5398404838407253e-10  6.7426690011825654e-11  1.0502427124336156e-10  5.7427781945054767e-10  1.9208918952270151e-08  5.8679024139156143e-10  1.0779010433740597e-10  8.8678863316877468e-11  1.7547166955187546e-10  7.6389942148994072e-11  1.8967989520456880e-11  4.6796684813390920e-10  9.7574219281174036e-11  2.4044112429096580e-10  1.7935533319171844e-10  4.5515739742382979e-10  2.2740968801939348e-10  7.7497115468688018e-11  4.7589470356638916e-10  5.8786642031140138e-10  3.1209768380696761e-11  5.1857772432946975e-11  1.0713734067799962e-10  9.2006932127214188e-11  1.9801467848560284e-11  1.0607795360215588e-09  8.8852314027199560e-11  3.2281148587252670e-11  9.5075602686600987e-11  1.2645600209200143e-12  5.9373607502505545e-10  2.2231743107886853e-10  2.1520549118248880e-10  8.1867796722868709e-11  2.5280071020042034e-10  2.6170222966527603e-10  2.0062713044771070e-10  3.5250133267304398e-10  8.9095543015057815e-11  5.8301184529293183e-10  2.5166046435957189e-10  3.0769183469869240e-11  3.1517732224535339e-10  3.7842029187399771e-10  1.4397448709861550e-10  5.4254265242662150e-11  1.7827689921554838e-10  7.0609590354492463e-11  1.7578089436257379e-10  2.3222790874168585e-10  4.5711943396067610e-11  6.3310515834400948e-11  4.2206772419067989e-10  5.6372058514663551e-11  8.6991712974561897e-11  1.7310056448103654e-10  1.6984288632885856e-10  2.5726365617514447e-10  2.8971619422818700e-10  1.8197597341098918e-10  1.9290005246078464e-10  6.5028769774225570e-11  2.5209712015139916e-10  2.6532498257116812e-10  2.0022550893618002e-10  2.3435800750910930e-10  1.2340254314828046e-10  4.6625516981630866e-11  1.1040267397617413e-10  9.3686029010942879e-11  2.5935874673314389e-10  6.9965479889711796e-11  9.9186864518431476e-11  7.7457280033279353e-11  9.4150496720017291e-11  3.9207351174667457e-10  2.0836517320105348e-10  2.5251984858031808e-11  6.6064598114650559e-10  2.5703979051698309e-10  3.1568138911680200e-11  2.7418575568664084e-10  4.1712385640980632e-10  7.1361304148712614e-11  9.7371839508622105e-11  1.5700579666936496e-10  6.4072409754247587e-11  2.7334546140407191e-10  8.3339932790690967e-11  1.4507513535756812e-10  6.5434346166466184e-11  3.1383099392662674e-10  2.4391155405070518e-10  2.3388939107652715e-10  6.3930557506966605e-10  1.2093241214421624e-09  1.5043458690476231e-10  1.6563088040581901e-10  1.0314499545011925e-10  4.5801187572394065e-10  2.5561137654025322e-11  2.5709897085343697e-11  2.7904897137954111e-10  9.1714209142919315e-11  6.0924720475291148e-11  5.0289810869537792e-10  5.7321725753818755e-11  6.0410109654991151e-10  1.1895861209692046e-10  7.7125906753506826e-11  8.2725795071357929e-11  3.4236748137685047e-10  1.7293038521080951e-10  4.6388406970390712e-10  1.3518262346882269e-10  6.2760292381636729e-10  4.4181070370386871e-10  1.0862939002362729e-10  5.1995078519185705e-11  1.3007133773370221e-10  2.6142414533823019e-10  4.3856234352770147e-10  6.1076074143507560e-10  9.1467915225608006e-11  1.1952320423843489e-10  6.8083443494407884e-11  6.5663069267956847e-10  8.5299401932835192e-11  3.2137217486363966e-10  1.4702398565416611e-10  1.2420539399108948e-10  1.9827601578907899e-11  2.8387246595687467e-10  1.6040532875332943e-09  5.7462476541637480e-11  9.7630737435420366e-10  7.8459626474879850e-11  2.4049671197730421e-11  2.4008789340354793e-11  1.2167883437062396e-10  5.6108803082507635e-10  4.4760668814433285e-10  1.6109033356695219e-10  1.1330920496763124e-10  1.6640926277598519e-10  1.8798438774906443e-10  5.8624802589808476e-11  7.6724568457314513e-11  2.0340009728517103e-11  5.9918740360588845e-11  2.9165936320272602e-10  9.2416679486663110e-11  1.0562375592668879e-10  8.3511403986807426e-11  9.6033496819481828e-11  5.3387041269715985e-11  9.5411974487388025e-11  4.5503832776862303e-10  5.6479806792480108e-11  1.6410736348573992e-10  1.7263845492811793e-10  4.6595786415038502e-10  1.9727449034642394e-10  2.8367871550774493e-10  1.4326614472238943e-10  1.4501049864487279e-10  1.4881508422979464e-10  2.0939650835671902e-11  2.8254041851197611e-10  6.4654700798834237e-10  2.5528403295121787e-11  2.5282906073601052e-10  8.8222325238845931e-11  1.5796537804317837e-10  1.1261191580509476e-09  1.3762535787965431e-10  1.6360822486289059e-10  2.3275067733082377e-10  2.8724203029311257e-10  1.0547262408690181e-10  2.0421939516286135e-10  4.1869887971528876e-10  2.1658039023769195e-10  2.4058321689133452e-10  1.1021911324284559e-10  1.1197709120103895e-10  1.1268378772522888e-10  7.0577525867100830e-11  2.0815690439188209e-10  8.8686123025555443e-10  7.8076735756946709e-11  1.0855470785996166e-10  7.7701396191148055e-11  9.6620689046347410e-11  1.6247270080444585e-10  3.7759130617008984e-10  7.8394969895016227e-11  8.4039362249537173e-11  7.4898475881218409e-10  8.8360598317091446e-10  2.9394627946598665e-10  2.0001758856709226e-10  8.1417713621908602e-11  8.0206619622620766e-11  3.3430441518772238e-10  5.8336403516894851e-11  8.2338426591831759e-11  4.9990024671740827e-11  9.2870532604419279e-11  4.1187580123795575e-10  9.0449448750086100e-11  1.9768248016606470e-10  1.6504215498957095e-10  9.0855256005488784e-10  6.1277428414152565e-11  1.9740403044222060e-10  1.1546365414168785e-10  1.1178027112084846e-10  7.5723163498864966e-10  7.4221948221708512e-11  8.4574081568825245e-11  1.1785535978661571e-10  1.1349106607428851e-09  4.0782189567928034e-11  7.7952177109224336e-11  2.7949984274875331e-10  2.5822368524130408e-10  3.4390654787130176e-10  1.8093614699168412e-10  2.0459064181332285e-10  4.0304681230078356e-10  2.9170702727201469e-11  1.0495814072909716e-10  1.2785579972001354e-10  3.7532153618989489e-11  2.7329008263973996e-10  4.4176560489604444e-11  3.3271633493310913e-10  1.3615091661601655e-10  1.1022004804431204e-10  1.9167728476834254e-10  5.0035603150095584e-10  7.2708412640292661e-11  2.6646524670819065e-11  1.4519668876882801e-10  8.1899426830782804e-11  5.9167433043791845e-11  7.5502135094200785e-11  1.7919109041435744e-10  4.9546848917888982e-11  2.6373571259469986e-10  2.5448902885927930e-10  1.2916335009391034e-10  1.2901241108317012e-10  1.3400946185435996e-11  7.1546497490756152e-11  1.4697257149521517e-10  1.6758150219551761e-10  5.0104552264113211e-10  3.7123958830907527e-11  8.2628261017899142e-11  3.3503445549179748e-11  2.3976284908123978e-10  1.2563645969092920e-10  1.8344902347196236e-10  7.5280101327217785e-11  8.6862414084885399e-11  1.2123977884118553e-10  2.0231027843281534e-10  2.2360295083432765e-10  2.6123608961426663e-10  4.3861877649244362e-10  2.1354063530687367e-10  2.1019730662674988e-10  1.4562746257652828e-10  8.1017850247739619e-11  1.7309652773730699e-10  1.7043220327818876e-10  6.3185581025112818e-10  1.2831743240642288e-10  6.2869972023029091e-11  4.0805397024042171e-10  1.9135119752027800e-10  2.0606185042959923e-10  1.1265325508502661e-10  3.2299525782193624e-11  4.4793431834637120e-11  9.8407988325790462e-11  6.8684981714225889e-10  2.9499298536424236e-10  1.8100854927749292e-10  1.3586093646280218e-10  3.3952872104230909e-10  6.7696087515282798e-11  1.1072626623100200e-10  3.5374659308613508e-10  1.4957143174884787e-09  9.8848167899257714e-11  2.8266466022738260e-10  6.1833124121798376e-10  1.2396104039008245e-09  1.9973958214126893e-10  1.5396306168728839e-09  4.1917915421195532e-10  2.2587898189219354e-10  1.2064099964157612e-10  4.1692080426428013e-11  6.5976102378220787e-11  1.2591282582398361e-10  1.5650084589222799e-10  6.3874948658593392e-11  9.9097141067460724e-11  1.0717059217895291e-10  1.2818516875782633e-10  1.9374036471013903e-10  5.0096326273348383e-10  3.1975612057333524e-10  1.6558684903377785e-10  9.6367762498212899e-11  6.1872477015294689e-11  5.9569461921864772e-11  7.0059250995406410e-11  1.8163115790735782e-10  2.2315134939212675e-10  1.0540433821526910e-10  1.0468152318183345e-10  2.3840853475546431e-10  1.3679249553108123e-10  6.9275306892292765e-11  5.9759985444305325e-11  1.0551755542643928e-10  3.4147526678740912e-11  1.8429708819370528e-10  3.2642991768268413e-11  1.6066035861987000e-10  1.7919360037790169e-10  1.5273925164115984e-10  3.9453861744287367e-10  7.9742644663493384e-11  8.3526788021136612e-11  1.4319088211425197e-10  3.0376956918399302e-10  1.4616019381851744e-10  2.6334872362564317e-10  1.1101415162555359e-10  1.3451450188604060e-10  1.5480613366147081e-10  2.9381467884237759e-10  1.2788232365233588e-10  3.3511889353698508e-11  1.1602581323146158e-10  1.1185483600607841e-10  1.4802543583338557e-10  2.4974801286547329e-10  1.6938095042432507e-10  3.5039822640467275e-11  1.2970377169930039e-10  2.3694036041877023e-10  2.9271823697780877e-11  3.2878535948018871e-10  1.6402132404616198e-10  3.9331083603667652e-10  1.1401497601188878e-10  2.3360767878808108e-10  3.2449319227729169e-10  7.5522524367420934e-11  1.0597543357125819e-10  2.1793625589913314e-10  7.2747720322162960e-11  4.8601100962613030e-10  1.6034617836988655e-10  9.7898235564100615e-11  1.0802750933889218e-10  2.0951677030432469e-10  5.4071197367095898e-10  4.8049070712256872e-10  1.7876764242026903e-10  1.7043008174337878e-10  2.0602486320747711e-10  4.0039692573371710e-10  4.5718864331003943e-11  2.2377516530262009e-10  8.2241448030181443e-11  1.2431223251469830e-09  1.1830460584248036e-10  4.6017123680400792e-11  5.5329223914058531e-10  3.3401994044251556e-10  2.4661809154178592e-10  2.0785635725652712e-10  6.4086288488471954e-11  1.5334471050406929e-10  3.3260780755840415e-11  4.3652868343351816e-10  8.1868401696220769e-11  1.3818041372787606e-10  1.2727651911606764e-10  6.5766922833307258e-11  3.4814194077600797e-10  4.3363373334542182e-11  1.1721460518202302e-10  2.4506900373822420e-10  1.7875487425603720e-10  7.1364602176978411e-10  9.2470753013867948e-11  5.7464241492860945e-10  1.4649346568774645e-10  3.5647010657051149e-10  5.5777492703917717e-10  2.4382601847212568e-10  1.5532820829847227e-10  2.7315763309353214e-10  4.8306363367416890e-10  3.4948703326226572e-10  7.5596878898836927e-11  4.8779169263285621e-11  1.6394556987576120e-10  3.5887382252603622e-10  1.8415420253433855e-10  1.2579036473264205e-10  1.7049688461942297e-10  8.0315448903694531e-11  7.0620919891793995e-11  1.9874844484902551e-10  5.7747410723454133e-11  2.0662942691571474e-10  9.0708605307991995e-11  4.7963788145972798e-10  4.8765016062569695e-10  8.1823369503660576e-11  4.2000801634418075e-11  4.0078146043047066e-10  6.5047614305759867e-10  2.5833070315019659e-10  9.9515368318390263e-10  2.8821022852832851e-10  3.1694709302514440e-10  2.7554163404696898e-10  2.6726666680589666e-10  9.7387806804750007e-11  3.1231571182154587e-11  1.9348321878517997e-10  1.0643468000623087e-10  2.1474138082295576e-10  7.5226507651516468e-11  1.2052218104867089e-10  2.0848882130035316e-09  1.7712840961604622e-10  8.1000854332863030e-11  8.1763352051677831e-11  4.0060349160954569e-10  2.4294154375660071e-10  1.8942945431485526e-10  2.0830848951533205e-10  4.4177262738116382e-11  7.5901163448848825e-10  2.4098731536654864e-10  5.3474971930889105e-10  2.5099409114508039e-10  2.4185338426410475e-10  3.1148856174217867e-10  9.4774790359280909e-11  3.2883291713947949e-11  3.5832530538788345e-11  3.7179731364201653e-10  3.6404905677315260e-11  1.1696539373693191e-10  1.0214835588993272e-09  7.5007673270179705e-11  3.4935553119830317e-10  2.6257198954054064e-10  6.1903760793425194e-11  5.9891680601193266e-11  1.8128077007327092e-10  2.4516947246215030e-10  4.7832144255204342e-11  1.1347406192802417e-10  1.6005283497584280e-10  7.6212004902708879e-11  1.6814140115690383e-10  2.1453550925126574e-09  3.4155882255808311e-10  3.1976450981637296e-10  1.0744414567279438e-10  1.0674365678670430e-10  1.8685641928207991e-10  7.9951048952702702e-11  1.3364001905295973e-10  4.9821951096736565e-10  8.7075270767891248e-11  2.4017630206179204e-10  2.1204440324008559e-10  1.3872317870498947e-10  5.0644863093816158e-11  7.7347812871489692e-11  5.4767518075575225e-11  3.6874647590286930e-10  1.0657465152673063e-10  2.2049354244481388e-11  5.7138275849655037e-10  3.0506964101713881e-11  6.2109602462996926e-10  1.1785424323531780e-11  6.7650231336027270e-10  1.7621318335573216e-10  2.5720733461813300e-10  1.0394881873553781e-10  2.8793618583735522e-11  8.3814927023159959e-11  2.7943401288926266e-11  2.0322323199744577e-10  3.7263483378022310e-10  2.7142666610451938e-10  3.3359252535696091e-10  1.3633374637621820e-10  9.4609646199480743e-11  6.3747137650522138e-11  3.6529155743847110e-10  5.0198316147244929e-10  1.0449675814859952e-10  1.0010354238850128e-10  1.4666297623604514e-10  7.5433664774863029e-11  4.6040067573272719e-11  5.4995512635955246e-11  3.2312820566505191e-11  8.8116057730677774e-12  1.7727369083501689e-11  9.7299419277070916e-11  2.2447251422158135e-12  1.1011168112989167e-11  1.8633446781438552e-10  3.4998999872796313e-09  2.2349214433332987e-10  4.1909274213183555e-11  2.2143257145684151e-10  9.2287379275180699e-11  1.1180962309027254e-10  4.3387793746198503e-11  1.7143251587082290e-11  8.8341095957041087e-11  7.4291702618210359e-10  7.9271224430696825e-11  1.8342408208620591e-10  3.2428393357902018e-10  4.8085191578272493e-10  9.6526314565085573e-11  1.0220828212318832e-10  5.8560786041045430e-11  7.7252702654825448e-11  1.1160331520441219e-10  5.6413521615195934e-11  5.9100346754551459e-10  5.9049560968616332e-11  2.7795224058645379e-10  8.8221994660885716e-11  1.2789025914948380e-10  3.0801391909391958e-10  4.1629329784651105e-11  6.3167927260896163e-11  2.8370478369497419e-10  1.1790287166273379e-11  1.1242184700075333e-10  8.8834603395833291e-11  7.6986899213184849e-11  5.6231764452732825e-10  1.6173590497112126e-09  2.7698384425828066e-10  2.8943031348487236e-10  9.0791468521386698e-11  6.9192158335708060e-11  2.5349727211294095e-10  1.1646593487539749e-10  9.8625065460573494e-11  1.0451141844099387e-10  1.9644586162832863e-10  7.3616169867038897e-11  5.1874711982775589e-11  6.9940213371927241e-11  3.9334185151000981e-11  8.5578292691256743e-11  1.9162196598606719e-10  1.6157409613907732e-10  1.1156025100363582e-10  2.7547223951119998e-10  4.6514342018752858e-11  1.3683829568520801e-10  5.2412946528104756e-10  6.6576286607713330e-11  1.1849452146626650e-10  1.2525625651415751e-09  5.7701937825313109e-11  3.3789942405777218e-10  5.1377026858804544e-10  1.5809781105083949e-10  1.2808217253675029e-10  1.2567608625058085e-10  8.9475240366023353e-11  2.5170555627496910e-10  2.8627585547321355e-10  1.7659269280006872e-10  4.6999343880986294e-10  4.2339672524204845e-10  1.2090131023201931e-10  2.0876667491301528e-10  6.6253833457777700e-11  8.4342780530721581e-11  6.2541858967850041e-11  2.3881228387770194e-10  4.0107435419913573e-10  3.0785417631744903e-10  3.2510991854503954e-10  8.5748052012901240e-11  2.2880148667095659e-10  4.8159734256964258e-10  1.6927830312377646e-10  4.7794644711080959e-10  1.8353625784909911e-10  1.3801011660272460e-10  1.1218126646459646e-10  5.0972633984136474e-11  5.4017619697001409e-11  3.3891379925177485e-10  6.2620598137857503e-11  6.4102668032790414e-11  1.2859130686288404e-10  3.2080721286727775e-10  3.1832223650690793e-10  1.5712793334597048e-10  1.1764709084871765e-10  5.9577705431070005e-10  6.2729674192437971e-10  1.6224070690933482e-09  2.7064572922760319e-10  2.0018782378388174e-10  4.4599769187076321e-10  4.5558270642550563e-10  1.1853680978056973e-09  2.9714556544013323e-10  2.4548354216616813e-10  3.3169148645319985e-11  1.2848505814568061e-10  3.2458034764607759e-10  4.6644009174693347e-10  2.1211317191149522e-10  6.6632337998102581e-10  3.0263499241221011e-10  2.1571891345954723e-11  4.8970641733461141e-10  3.3510571687410194e-10  3.8782982324518719e-11  3.3393412229200369e-10  4.1374904199001045e-10  5.4422181303122590e-10  1.4548763317405023e-10  6.6939371415487754e-10  1.9527093671984849e-10  4.7423044203447749e-11  1.2750170520476584e-10  1.3240271581319234e-10  3.1859073403218571e-10  7.8552724233110378e-11  2.6113449762169981e-10  1.9579556643867381e-10  8.1661014780163837e-12  2.2077457527689304e-10  5.7724112264611754e-11  9.0421683205087043e-11  1.2361711097855434e-10  6.3587346308406154e-10  4.1406975239981776e-10  3.0602117428270155e-10  1.1743104311665337e-10  1.3104315668923882e-10  9.0715323320798626e-10  5.4589795805120617e-10  1.3415104802737413e-10  1.4251383579125443e-10  9.4559172929620335e-11  4.8893477802856543e-10  1.3749690043445290e-10  1.7372490985968310e-10  9.4392761838789324e-11  7.0891565018580873e-11  6.3389139136525011e-11  1.4981226296508519e-10  9.8219745925499739e-11  1.2780511007208719e-10  4.2387658428313496e-10  7.6930019668739198e-11  6.0227595492556821e-10  1.2430648330914666e-10  2.2414903459677555e-10  2.7650111053742096e-10  5.5495193400427965e-10  1.1642589566599229e-10  4.0335240794837022e-11  6.2764007351511556e-11  1.4215961056701225e-10  1.5913627436663541e-10  5.1143447556130712e-10  8.4075880668116839e-11  1.6214230036174183e-10  2.5159271672411556e-10  1.3959875236971328e-10  2.3708221655583933e-10  3.4153537973161808e-10  3.1156883919181993e-10  1.0376441522617091e-10  1.7471449064471884e-10  1.4929317056175520e-10  2.2721073453584619e-10  4.4278031423122527e-10  3.7331880127155051e-10  2.0155450052177967e-10  2.0161232555856245e-10  1.2484918945760464e-10  1.7219201377826882e-10  3.0033568344882855e-10  3.8123484934762491e-10  3.6236750335868001e-10  1.6613254598449541e-10  2.1979256733335954e-10  1.9745659644799185e-10  1.5243003732672298e-10  3.9828163477343031e-10  3.1848631747726777e-11  1.0543265599237175e-10  1.2757419085980881e-10  1.0418414839730282e-07  4.0588477329852765e-10  1.7564132489266125e-10  6.1043255108836420e-11  2.5624732753408254e-10  1.3711725030657318e-10  6.4219883322457287e-11  1.0509158867350630e-10  2.0238197682207523e-10  2.0578560816752632e-10  1.9522869948931457e-10  1.8789136960313822e-10  3.0923994583726986e-10  6.5151238869414031e-11  8.0153748596697431e-11  1.9009027299334702e-10  1.2246414001013283e-10  3.4896138780544613e-11  4.0099598826432504e-10  6.4474990003391657e-11  6.1627040513672409e-11  1.9459823384404671e-10  9.9059813101368781e-11  2.3743908374380078e-10  2.9051251493979583e-10  1.5243770095959019e-10  8.2852950284660379e-11  1.8680470848427591e-10  9.6338549440249946e-11  3.2161403635896134e-11  8.9392819117443963e-11  5.8614659111679438e-11  7.8812799190279501e-11  2.2756473474077221e-10  4.6826661282394058e-11  6.5591283267008784e-11  9.4494442599009374e-11  9.3088678194558281e-11  9.3790279747535572e-11  2.5069745275966683e-10  8.7967480979621663e-11  1.8588834654952206e-10  2.0516621382146943e-10  1.0130719408575538e-10  1.6082650641074852e-10  3.1512695336448620e-10  1.2383421913236993e-10  6.1758068914105144e-10  1.6972092357767534e-10  1.4910581262885913e-10  1.3846725939416344e-10  2.2490089558323755e-10  4.3954162509753839e-11  3.9617675655915003e-11  7.6461992389379893e-11  4.3046840004467822e-10  2.0026552567163058e-10  6.5856898793860241e-10  4.4255728890932979e-10  1.2081242033275741e-10  5.4809037668107164e-10  3.6410151841205736e-10  1.8769879526404442e-10  7.0962708017804538e-11  9.3120654687229317e-11  1.7471524331877873e-10  1.8763757674891333e-10  4.1508723758373791e-11  4.9250892603668008e-10  2.8421136692581918e-10  3.1352259348978296e-10  5.2577178044394590e-11  3.4917841293426459e-10  2.6746189708775614e-10  5.8978697988142136e-10  7.2688159489296771e-11  6.1749522873005296e-11  2.3882000130650351e-10  7.2291199690120498e-11  4.2526699745463538e-11  1.4640183744462946e-10  2.4384217235232998e-11  6