<?xml version="1.0"?>
<VTKFile type="UnstructuredGrid"  version="0.1"  >
<UnstructuredGrid>
<Piece  NumberOfPoints="4852" NumberOfCells="9430">
<Points>
<DataArray  type="Float64"  NumberOfComponents="3"  format="ascii">-1 0 0  -1 -1 0  0 -1 0  0 0 0  1 0 0  1 1 0  -1 1 0  0 1 0  -0.5 1 0  -1 0.5 0  -1 -0.5 0  -0.5 -1 0  0 -0.1608775713298009 0  1 0.5 0  0.4999999999999999 0.9999999999999999 0  0.1967448868031411 0 0  -0.3407030928627042 -0.1757199279399109 0  -0.3370923332811865 0.2246096841090146 0  0.1741808031402406 0.3461818871963779 0  -0.185504628374846 0.555240579967891 0  -0.5045016394881201 -0.5383088099290189 0  0.4904953323097384 0.2575054787502928 0  -0.06432295949469954 0.2009513567912386 0  0 -0.5061325913258391 0  -0.25 -1 0  -0.5633280309553546 0.5781330326113077 0  0.6623789378434941 0.6357456673893307 0  -0.1741718034301936 -0.5380327733215602 0  -0.5389496710239596 0.02556657166945748 0  -1 0.25 0  -0.206060187577872 0.0237623300565256 0  -0.6549945329374631 0.3111216776668887 0  -1 -0.25 0  0.03929837041193696 0.5918853317517188 0  0.1951449689759866 0.1288946941338923 0  -0.1358439141158073 -0.2201163839787665 0  0.3715633604370999 0.6149332009650971 0  1 0.25 0  0.5355652144809806 0 0  -0.75 -1 0  -0.9999999999999999 -0.75 0  -0.6455078678913536 -0.3233756753694149 0  0.25 1 0  -0.9999999999999999 0.75 0  0.02757118475249542 0 0  -0.25 1 0  -0.75 1 0  1 0.75 0  0.75 1 0  0 -0.02898318711980711 0  0.05430279783135193 0.1421097890792347 0  -0.07757966147640427 -0.02786332157950269 0  -0.70137072031624 -0.1325008509778034 0  -0.3215998764425835 -0.3476216167193714 0  -0.340798166000829 0.4376633878634915 0  -0.1001029366201857 0.7642765428490824 0  -0.3843800244284002 0.7033154149818348 0  -0.05465210345903271 0.398949821545921 0  -0.07882524552301128 0.07180372039504362 0  0.3590881765382553 0.3701039242392192 0  -0.7183077402604632 -0.7318213332866195 0  0.4118477344271089 0.09012027015660243 0  0.6898928466904398 0.1924165341205909 0  -0.7484544053101491 -0.5288279372939646 0  -0.3878325823432743 -0.7111871260256694 0  0.7214306864183162 0.4203337581406135 0  -0.7764866760460668 0.09777042635319616 0  0.1976496970697897 0.6991081640941277 0  -0.1987466908354894 0.2886239757934699 0  -0.799786597604908 0.5793999619480847 0  -0.7193358190601243 0.7674490717881727 0  -0.04043136778011008 -0.3742715818691432 0  0.5861693013584359 0.8183854379550443 0  0.8218102464833836 0.8088784933094889 0  -0.09870649386469529 -0.6969417331526503 0  -0.5144557240822127 0.1637343712961572 0  -0.2017736110934173 0.12569615052692 0  -0.3591604354071449 0.07547270358988098 0  -0.3651967208345197 -0.05209346063912784 0  -0.4976564542837423 0.3958896788796594 0  0.375 1 0  1 0.125 0  -0.01173030090585234 0.07112228916764392 0  0.06229120076085006 0.3919057879570184 0  -0.1714198291219911 -0.1223304280030558 0  -0.2442277814266931 0.7738285990847655 0  -0.625 1 0  0.5339878987307399 0.4553774541939987 0  -0.5778596155676077 -0.8307716714025367 0  -0.2564876697907006 -0.7837106514699582 0  -0.3195728435913059 -0.5088809660760067 0  0.8342384745170419 0.5972178943201942 0  -0.55045840287309 0.7916017058143257 0  0.125 1 0  -0.06735332386950441 -0.09342112233542722 0  -0.4950553934972317 -0.1431495340338653 0  -0.875 -1 0  0.02960471404326552 0.04153087566894794 0  1 0.375 0  -0.875 1 0  0.05762951051173416 0.7942996163984655 0  -0.1949520333700105 -0.3740026499587267 0  -0.07297680288680125 0.5712197648702979 0  0.2368652569833965 0.5181934161933861 0  -0.7922429913003322 0.2309019624677592 0  -0.4955918386398774 -0.3894210262176994 0  0.0003043068401358778 0.2710269405440152 0  0.5109793903140875 0.6413726535559894 0  0.3999786831969844 0.808004477626093 0  -0.8061761731788266 0.4265295296409154 0  -0.06307434422072417 -0.2214241786539018 0  -0.7098166958691507 -0.01403312496321828 0  0.09056049035589206 0.05239739125646663 0  -0.4786154738576795 -0.2514228288005438 0  0.7239443511855667 0.08323610095472687 0  -0.8092126569096826 -0.412034209151934 0  0.337560308244136 0.1539582423962682 0  -0.7946075497610205 -0.2514149984157564 0  0.2364786441088808 0.2542855340515754 0  -1 -0.875 0  -1 0.875 0  0.1843837622911307 0.04801106446872889 0  -0.2474450603538773 -0.2290430681675909 0  -1 0.375 0  -0.1710108238829742 -0.04182650393973278 0  -0.6500615073856457 0.4687693449089398 0  0 -0.07736776745332727 0  0.0806873784004923 0.2598771873812197 0  -0.375 1 0  -0.2176976605896324 0.424886322499831 0  -0.1199607740040278 0.1501201073325593 0  0.1338208006396279 0.5542917696057625 0  0.1321136465483047 0.19378273474511 0  -0.4752089755236796 0.2702097715083046 0  -0.04612799625471239 0.01387322896430697 0  0.8508578903082976 0.3718196688916928 0  -1 -0.125 0  0.2861651867035815 0.8375172816576023 0  -0.1108410731170769 0.3130500776330747 0  -0.125 -1 0  0 -0.7575037395175259 0  0.07821397079968176 0 0  -1 -0.375 0  -0.375 -1 0  -0.625 -0.9999999999999999 0  0.7474787146812756 0 0  0.625 1 0  0 -0.2918843213980812 0  -1 0.625 0  -1 0.125 0  -1 -0.625 0  0.3284075310660084 0 0  0.004929205892015135 0 0  -0.125 1 0  0 -0.006571003003944568 0  1 0.625 0  1 0.875 0  0.875 1 0  -0.5640838575417236 -0.6776057005230327 0  -0.004482266249466531 0.1601270312036014 0  0.3625685846401909 0.2631381324581673 0  0.6530178982012679 0.2947071898108528 0  -0.8552795061798023 -0.649015590226818 0  -0.8656733766760638 0.7894213374120995 0  0.430701552816821 0.5022702559735543 0  -0.3990060905212133 0.8562628154828955 0  -0.781029417547866 -0.8753839292170321 0  -0.8713666103443459 -0.7863611599079158 0  0.1552578116762346 0.8424262985135451 0  -0.6587361985682456 0.1538480203124053 0  -0.5778840856384628 -0.06439028737004174 0  -0.8548276004699409 -0.06232095725041226 0  -0.2970770595282735 0.5624958474655055 0  -0.4249919844926753 0.5704678583513436 0  -0.376635296791295 0.3318130823660193 0  -0.6187005472504767 -0.2164971792120952 0  -0.2727715505389766 -0.09002398427988166 0  -0.6415460734890893 -0.5902196722556367 0  0.8594549501101031 0.2664539972271259 0  -0.03273541860512941 -0.03298533786310465 0  -0.05460257859442497 0.1144828842806088 0  -0.13395332637678 0.4321714352971313 0  -0.1196004707765916 0.03238851686516735 0  0.5378600168287572 0.06487411186593053 0  0.5796228986506432 0.360687394357977 0  0.6929458037673243 0.7769773855049817 0  -0.796944773124779 0.8821055130481692 0  -0.6442246195143972 -0.4299174244277702 0  -0.1126473418742587 -0.3973342492062966 0  0.8717504357860811 0.4906629761693901 0  0.07608186858272858 0.09381749447404888 0  -0.6667129059491447 0.8694035147488192 0  0.45478883183369 0.3513918306265696 0  -0.02622185726354458 0.03577175707038267 0  -0.4092466563127822 -0.4409839915224837 0  -0.3621352171015862 -0.2689307306568855 0  0.323987207999418 0.4825601103313874 0  -0.1960822698419953 0.2015183656617681 0  0.7061160497066162 0.5326128973030538 0  0.2620154724783991 0.3565734527446683 0  -0.3774810382904893 -0.8517182928581815 0  0.1096706310328859 0.6822617889815004 0  -0.2840475230952048 -0.6123088595151356 0  -0.441922282750975 -0.6208524081801537 0  0.2970362762876485 0.6931511435898822 0  -0.874810199545577 -0.1750469549458582 0  -0.1808590047941386 0.8553155040516349 0  0.4547652280672909 0.1640121573960925 0  0.2803021141740496 0.04684632138299299 0  -0.142871170546734 0.657656753580608 0  -0.01150251104367369 0.7088042102662827 0  -0.0534454679672753 0.8754572454207034 0  0.005527341183138891 0.4699885676822875 0  -0.3879515006091235 0.1539911110278745 0  0.5493336465044909 0.1337506279536118 0  -0.4776109585588102 0.6833035802089938 0  -0.8515645355163325 0.3346561866465995 0  -0.0827016589396468 -0.5362612288001407 0  -0.01630743744141877 -0.5516984669455739 0  -0.2131769020662548 -0.2879343966341611 0  0.868405782783531 0.1521304034706759 0  -0.1668510915662109 -0.6610245738849301 0  -0.8894548645537705 -0.5300445700743514 0  -0.2821063837299306 0.3388105942105952 0  -0.6778898251541811 0.5757816941561701 0  -0.8975693708231574 0.533046029627701 0  -0.8993089751672895 0.6629093622885235 0  -0.6445937041432641 0.07292657047353848 0  -0.8595008659293552 0.02910587266752509 0  -0.8883931340209622 0.168297818845132 0  -0.1300942879857843 0.2290574393287464 0  0.1608819277105993 0.4466759879121047 0  -0.04351311747900608 -0.1258531893923997 0  -0.7553769535088648 0.6714457869050966 0  -0.6049578203657123 0.6988422663392391 0  -0.2544272435758267 0.07868531849746384 0  -0.2506126178873122 0.6493373102759473 0  -0.02737005949576929 -0.006407490565140417 0  -0.4962837138175252 0.8772408293787952 0  -0.478435566105211 0.4915360408277759 0  -0.2904556759408386 0.1443056969636511 0  0.002338328359779756 0.02359433716202885 0  0.7803827702893882 0.6862601217161248 0  -0.4709498844653929 -0.8253018061390294 0  0.2719837623421509 0.1953647611161924 0  -0.1469255417011309 -0.8632152434300634 0  -0.06122663739711615 -0.8286740501845934 0  0.4443359793422538 0.7072686268393893 0  -0.1154955220774299 -0.2888100348978286 0  -0.264933926311987 -0.02605810479724097 0  -0.8952403137054167 -0.8974380672947241 0  -0.5731838040093735 0.2386723056071478 0  -0.4761502257027699 0.08805530432226726 0  0.4927872244889727 0.8270926332365415 0  -0.02683288188518471 -0.2623551206429238 0  -0.3114761593379014 0.8759107088000255 0  -0.1429074696151567 0.08051881169947882 0  -0.4694591921557847 -0.03465713560453146 0  -0.3881734210752627 0.01234766197457139 0  -0.2918960019043629 0.02772798625489052 0  -0.385181019335229 -0.1203811467973335 0  0.8886045562621361 0.7002348527493707 0  0.7950311276864512 0.9124779092283728 0  0.5768832532480687 0.2087054154095932 0  -0.5606011377294881 -0.4703315079406611 0  0.6002080997509792 0.7078927118209418 0  0.679598588094077 0.8899126557331891 0  -0.05104006597972559 0.3033124797745441 0  -0.9038963254272561 0.9060123676237311 0  -0.1274674545385786 -0.0670844076104114 0  -0.1689984844417525 -0.1825777592744472 0  -0.2523487697087739 -0.143734161825458 0  0.03723673176799491 0.201640305146
[...]
<PointData  Scalars="w"> 
<DataArray  type="Float64"  Name="w"  format="ascii">1.6955161593295104e-10  9.7229699134266940e-12  4.4284769945116837e-10  2.5696780301243557e-09  6.2614648696266313e-10  1.4907131912232502e-12  8.4228834846964500e-12  7.3342873752054286e-11  3.9173308577702806e-11  2.1448016032034007e-11  1.0754370306551211e-10  9.6456852855983288e-11  4.0928754393923233e-10  2.6562953592547809e-10  8.7098619410572770e-12  5.2910169600783134e-10  9.1557522566762387e-11  7.2323665295651390e-11  1.3147628501827510e-10  3.6045063837519320e-10  6.7498605652101712e-11  1.0191448999855806e-10  5.8099509276235146e-10  1.5731841619232260e-09  5.8829472937506486e-10  1.0920540515811187e-10  8.8798781802522094e-11  1.7652025042674628e-10  7.7503506841289223e-11  1.8992157758256336e-11  4.7652342977845736e-10  9.9106633038411265e-11  2.4380153880690308e-10  1.8303662415417526e-10  4.6035711646580367e-10  2.2824087213483568e-10  7.8704506697288596e-11  4.8046454348497476e-10  5.9110796891002110e-10  2.9578621612228168e-11  4.7372799153134157e-11  1.0962792210286936e-10  9.0296822892142029e-11  1.7088289333117517e-11  1.0492284146696821e-09  8.9349454857302913e-11  3.0691338081291611e-11  8.9481701107268062e-11  1.4011320800058213e-12  5.9075187254053027e-10  2.2079746929544256e-10  2.1259156144911498e-10  8.2610502668199774e-11  2.5701217086515976e-10  2.5573695190167142e-10  2.1109749859274614e-10  3.6534610684010050e-10  8.9138999529805084e-11  5.7675477901636406e-10  2.5370335559238893e-10  3.1140628909373753e-11  3.1757647127208523e-10  3.7692678920048995e-10  1.4201864892422496e-10  5.3353425384991902e-11  1.7801966896995114e-10  6.9368039102504326e-11  1.8372427845344463e-10  2.3774387347863731e-10  4.3393535423671657e-11  6.4718318921422252e-11  3.7875756094448173e-10  5.5605603540522203e-11  8.5251274813360559e-11  1.9378788500512813e-10  1.7180981878310146e-10  2.5691554202581440e-10  2.9092345234645360e-10  1.8551813781507260e-10  2.0047985962994373e-10  6.2644817907293402e-11  2.4974172911715030e-10  2.6252587222090532e-10  2.0235227998962990e-10  2.3348088966789462e-10  1.2560210136850933e-10  4.1838395435370339e-11  1.0969900381827152e-10  9.6107826567351101e-11  2.6191704354441879e-10  6.8288966402055080e-11  9.9412948770399127e-11  7.7408247414375220e-11  9.2775533187334503e-11  3.8649053407096397e-10  2.1190453941895261e-10  2.3706146513985734e-11  6.4930164354946674e-10  2.5894608582528275e-10  2.8744440535269191e-11  2.7975161661223979e-10  4.2907422889956019e-10  7.1850857430961629e-11  9.5173381929278998e-11  1.5555786053735866e-10  6.3645848221139850e-11  2.7920700762722779e-10  8.4520187706920333e-11  1.5092949486736742e-10  6.4517498202450572e-11  3.0850548531829191e-10  2.5442151130356043e-10  2.3045117304445764e-10  6.5905251612637996e-10  1.2314259413997766e-09  1.4324357890378671e-10  1.6534333245440594e-10  9.9271525517885831e-11  4.6251338436860277e-10  2.4521776748898279e-11  2.3789747598414462e-11  2.7740173793529354e-10  9.1727578903647179e-11  6.0448576029290169e-11  5.0359443571668285e-10  5.5718773358748941e-11  5.9522940684239588e-10  1.1718996198287827e-10  7.5902467786241764e-11  8.1919761059181190e-11  3.4467885732461374e-10  1.7093014940616044e-10  4.7296496559348749e-10  1.3136696375257287e-10  6.2325093446915169e-10  4.4507785642087609e-10  1.0688325340696263e-10  5.0267864067467493e-11  1.3169196642626972e-10  2.6481507242229945e-10  1.2429891139356129e-09  6.0463652857061282e-10  9.1755615024493526e-11  1.1915981991794702e-10  6.3087139303817721e-11  6.5858942669850705e-10  8.1193618474831335e-11  2.5994604504940422e-10  1.4228314601117306e-10  1.2200447181389048e-10  1.8857993767445663e-11  2.8423256610582655e-10  1.5707656137325026e-09  5.5789794843783297e-11  9.6186043001313240e-10  7.3892695455231639e-11  2.0411785180498607e-11  2.1116575535670246e-11  1.2623106439197735e-10  5.6258365336614746e-10  4.4181386738066463e-10  1.6133164728755063e-10  1.1152701590589686e-10  1.5867060028707889e-10  1.8977245642951656e-10  5.6626973424058632e-11  7.5106126591309660e-11  1.8727143441785179e-11  5.7974657082915907e-11  3.0055171925171636e-10  9.0048365957484909e-11  1.0637951094244207e-10  7.9999424684610953e-11  9.6453344906035151e-11  5.2175085630440700e-11  9.4523780047750149e-11  4.6152430961804567e-10  5.5754974492852346e-11  1.6408810411562663e-10  1.6971704371873945e-10  4.6889439204276909e-10  2.0217985736698714e-10  2.8459772501242066e-10  1.4278543980687722e-10  1.4650181091648994e-10  1.5291258274178522e-10  2.1119833425136569e-11  2.9596000722712517e-10  7.2719098804337272e-10  2.4313632471315326e-11  2.4996118459471432e-10  8.8829571063689866e-11  1.5971031614942908e-10  1.1090430628511674e-09  1.3890007752468929e-10  1.6475014045308061e-10  2.3925663004199616e-10  2.9127618446863429e-10  1.0496098809385255e-10  2.0582965577923316e-10  4.2101392256481537e-10  2.2569078148832086e-10  2.4355822895613556e-10  1.1381878407980805e-10  1.1214431899138257e-10  1.1288599703804066e-10  7.0746315114462358e-11  2.1068716794362575e-10  8.9027456263865344e-10  7.7981443913380262e-11  1.0558837484595709e-10  7.8251903704870670e-11  9.8027012165144196e-11  1.6203995624401729e-10  3.7964902303594869e-10  8.1358661835899949e-11  8.4083109545187297e-11  1.0565395629140395e-09  4.1828239563908274e-10  2.9584851527649243e-10  1.9936679178647210e-10  8.1806869751836965e-11  7.9367885936086068e-11  3.4673975288902658e-10  5.7556273260895273e-11  8.3169494526870495e-11  4.8300049130041077e-11  9.4342053449690804e-11  4.1615160577183636e-10  8.9120444282570955e-11  1.9703903264694011e-10  1.6816451474387838e-10  9.1365386795207918e-10  5.9971731804454922e-11  2.0191449216216890e-10  1.1601384389802288e-10  1.1207614393555564e-10  7.5134718911801918e-10  7.5106980013128572e-11  8.5745463364124142e-11  1.1709632274341340e-10  1.1078195798566891e-09  3.9529585221052533e-11  7.5963649307544868e-11  2.7925443747187427e-10  2.7110151729444946e-10  3.6700403197236377e-10  1.8794536548344826e-10  2.0252844719652611e-10  4.1126780968254683e-10  2.7422290029413345e-11  1.0529990511535383e-10  1.2996770971091346e-10  3.6656299822656796e-11  3.1032217379873542e-10  4.0773418818913641e-11  3.4241361433666203e-10  1.3510865755404592e-10  1.1034941009742935e-10  1.8991177556132773e-10  5.1451226074321067e-10  7.3804624267966116e-11  2.5314586957446126e-11  1.4315561497423380e-10  8.3909058487900926e-11  5.9165691229305053e-11  7.2475395030561302e-11  1.7954723802878584e-10  4.3728644545503325e-11  2.6626363932762805e-10  2.5586164902948278e-10  1.2776228352635419e-10  1.2894573391372512e-10  1.2111577049415925e-11  7.0796729661048090e-11  1.4682974049353398e-10  1.6874549951636091e-10  4.9910542776912486e-10  3.6291821258968274e-11  8.1509899430930130e-11  3.1436127996933348e-11  2.3805304439017892e-10  1.2452576427852008e-10  1.8721115379276750e-10  7.5259184112223957e-11  8.7913458447416904e-11  1.2270250286134365e-10  2.0301982773135114e-10  2.2566523688188168e-10  2.5941714135525768e-10  4.4369245260874154e-10  2.1909014714883169e-10  2.0900532435984706e-10  1.4761524795105846e-10  8.1049165507206275e-11  1.7236953904325686e-10  1.6968684725032771e-10  6.2637457850220329e-10  1.3299683831568242e-10  6.0295251803478107e-11  4.0974678293666802e-10  1.8756514765870574e-10  2.0704118656561911e-10  1.0360890996026167e-10  3.0712504607061222e-11  4.4225506470697333e-11  9.6214947616966815e-11  6.9464086404011937e-10  2.9305819957986216e-10  1.8040190723660358e-10  1.3860035087360181e-10  3.4282035853137403e-10  6.8124335346693000e-11  1.1016237249513704e-10  3.5973270119434891e-10  9.0135790758815720e-10  9.9107305267837253e-11  2.8127307496231665e-10  6.1279979490362685e-10  1.2317826878338291e-09  1.9669731324531026e-10  1.5274030111541131e-09  4.2304811602891733e-10  2.2643565558675393e-10  1.1646383802907453e-10  4.0137928208903381e-11  6.4758897564659912e-11  1.2757463587355075e-10  1.5365490287303183e-10  6.1482061415253764e-11  9.7010370272895288e-11  1.0807983778784713e-10  1.2620967555093493e-10  1.9037738495521867e-10  5.0177460847194509e-10  3.1920116333805737e-10  1.6809407735567671e-10  9.5771913158562738e-11  6.0962252886374119e-11  5.9733730924859868e-11  7.1391986436286612e-11  1.8405916293844670e-10  2.3046414047497986e-10  1.0605037866638798e-10  1.0589497565200353e-10  2.3763576159014575e-10  1.3665215851981876e-10  6.8676632690712365e-11  5.9033946369238567e-11  1.0496107425637748e-10  3.3099981692066595e-11  1.8948241433046715e-10  3.3165385626183509e-11  1.6162588060486720e-10  1.8059683905809772e-10  1.5728183986394208e-10  4.0295236756520705e-10  7.9073350851101823e-11  8.0693296488625615e-11  1.4740269677129713e-10  3.2045121531124170e-10  1.5019065601387362e-10  2.6331505858482688e-10  1.1012642912941428e-10  1.3822207929751516e-10  1.5909417778437274e-10  2.9582131518314428e-10  1.2719751211192288e-10  3.3204801087244922e-11  1.1945246344726190e-10  1.1277544465084070e-10  1.4871439940185309e-10  2.5311263217809849e-10  1.7180906092978720e-10  3.4266785903182601e-11  1.3079160606018430e-10  2.4109875505776053e-10  2.5450163062238763e-11  3.3370420940665201e-10  1.6434112943094533e-10  3.8565690212119315e-10  1.1722473905970971e-10  2.3906801825693281e-10  3.2548969884739318e-10  7.4799728717515347e-11  1.0582094479983214e-10  2.2396255598951171e-10  6.7635491808660297e-11  4.8741710497985628e-10  1.5637178884994589e-10  9.8309915112277558e-11  1.1098446693134742e-10  2.1225051106221645e-10  5.5441128942820035e-10  4.7541892583007830e-10  1.7845317952108276e-10  1.7652168690381329e-10  2.1251641173958522e-10  4.0396881486908124e-10  4.4725046634455472e-11  2.2913768361170434e-10  8.0091391875225111e-11  1.2481508818773946e-09  1.1749852078937208e-10  4.6017689056357790e-11  5.5152444969575733e-10  3.4020916078523293e-10  2.4857759787886850e-10  2.1893348831428566e-10  6.2473366461076816e-11  1.5336606540594760e-10  3.3915936213754997e-11  4.4453240440680684e-10  8.0134197588255048e-11  1.3303917393936708e-10  1.3015213833068271e-10  6.6903535168287545e-11  3.5054652173039650e-10  4.1034331958477251e-11  1.1605964861400155e-10  2.5177511283407512e-10  1.7975378616050328e-10  7.2039025632591182e-10  9.3554525214315231e-11  5.8352710568010767e-10  1.4650396872882044e-10  3.5293231605472840e-10  5.5042216272007772e-10  2.4322030299115831e-10  1.5413370994664002e-10  2.7264083807972577e-10  4.8205991831818159e-10  3.5876550444558579e-10  7.2516901481793622e-11  4.9688180649948010e-11  1.6420061503412876e-10  3.5997007244744002e-10  1.8969341677978347e-10  1.2455260883510790e-10  1.6827207715427656e-10  8.0517038812338931e-11  7.1071260072361020e-11  2.0182891216889641e-10  5.8210001950172552e-11  2.1074770926360743e-10  9.2059701461710005e-11  4.8907860095722012e-10  5.1317046219869930e-10  8.2585095416408990e-11  3.9955503879290592e-11  4.1546742353296501e-10  6.5401042873471895e-10  2.5875762624603511e-10  9.8851503142596963e-10  2.8991610460784172e-10  3.1996592424588133e-10  2.7086184205173193e-10  2.6549979426569334e-10  9.8342010063081650e-11  2.9117565027122007e-11  1.9757440188721699e-10  1.0362787123794524e-10  2.1508108091555496e-10  7.5802147866481403e-11  1.2681848912064867e-10  2.0419216761670671e-09  1.7712029900182091e-10  7.9713212854716519e-11  8.4458917849928764e-11  4.0417088907730401e-10  2.4230106253622685e-10  1.9050550453428845e-10  2.0905877151114470e-10  4.4201814140962065e-11  7.5981558063076484e-10  2.4621826908605347e-10  5.4433499140938633e-10  2.5932776803109943e-10  2.3797166549618448e-10  3.1446202703467322e-10  9.4052306302432019e-11  3.1530618710483944e-11  3.3748641416398963e-11  3.6969967446671270e-10  3.2656837080313289e-11  1.1043972178765872e-10  1.0357468281739448e-09  7.4712078184190947e-11  3.4155717001923744e-10  2.6379254006726686e-10  6.2549038679553269e-11  5.9091493332986818e-11  1.7678267524513193e-10  2.4729143504080757e-10  4.7022918261640388e-11  1.1200083566605353e-10  1.6263589129004624e-10  7.6068195169863336e-11  1.7346455997797780e-10  2.1182766032698958e-09  3.3991402506972932e-10  3.1947717426266686e-10  1.0731537537385326e-10  1.0692381675566856e-10  1.8249077264329957e-10  7.4982954940446875e-11  1.3377698669857999e-10  4.9773407908056742e-10  8.6218012319303662e-11  2.4121424988100898e-10  2.2071105293424339e-10  1.3934327055977834e-10  4.7999190860027153e-11  7.1663329742092605e-11  5.0288699540683467e-11  8.3645080690085242e-11  1.0675314528405836e-10  2.1687810834950880e-11  5.7324517016095410e-10  2.8684023557206148e-11  6.2572745136991768e-10  1.1634813096410345e-11  3.2722197813265586e-10  1.8522613830942789e-10  2.5642969925159647e-10  1.0326531338215586e-10  2.6555548316510605e-11  8.4284433402164886e-11  2.7215688202385159e-11  2.0364068035094772e-10  3.7446830002142158e-10  2.6815481842230628e-10  3.2602277549232449e-10  1.3392386887699206e-10  9.1668922310313824e-11  5.9035350355031607e-11  3.6257352560893429e-10  5.0715144221613996e-10  1.0628310089568538e-10  9.9562202733783063e-11  1.4499209090952770e-10  7.5229240393664025e-11  4.5519078334596237e-11  4.9036689539597515e-11  2.8359597928090071e-11  8.6344324780391284e-12  1.6562183166873070e-11  8.9758669837332454e-11  1.8629973752922029e-12  9.1858382610838916e-12  1.8606637938737408e-10  3.5049885566317194e-09  2.1818396311043369e-10  3.8270664344758232e-11  2.2516630222348281e-10  9.5222318930145188e-11  1.1482756713648166e-10  4.3440236387227738e-11  1.5418495196332346e-11  7.9418552518271732e-11  7.2639968793722430e-10  7.7335218868812671e-11  1.8529192684462567e-10  3.2780246469736860e-10  5.0594386836924618e-10  9.5184696218549775e-11  1.0189543070189703e-10  5.7355634197281293e-11  7.5903731196946979e-11  1.0678286815371489e-10  5.6988904695219994e-11  6.7158089573744829e-10  6.0101898954186210e-11  2.7849352253568071e-10  8.5963248146200975e-11  1.2673990797164111e-10  3.1334158524410927e-10  4.1011188830665457e-11  5.9180340745309958e-11  2.8079964709608759e-10  1.1227583574929463e-11  1.1508197796985472e-10  8.6657592795854269e-11  7.4089624423088410e-11  5.6599017243101946e-10  1.6282149577379008e-09  3.4556108474116275e-10  2.8830228477227606e-10  8.9939227148489959e-11  7.0472472311470952e-11  2.5818297780660014e-10  1.1861126754998198e-10  9.6220080139688936e-11  1.0275788495205478e-10  2.0323541285067733e-10  7.4912325310414357e-11  4.9990432852729395e-11  6.6168750842446675e-11  3.8231076336987515e-11  8.5356306129785262e-11  1.9105243197128358e-10  1.6424257227449968e-10  1.1168122707739862e-10  3.0565710840405350e-10  4.6127002066318225e-11  1.3823812274111014e-10  5.2361005733030070e-10  6.4604312145847707e-11  1.1415212709528218e-10  1.6684364395614978e-09  5.9311488917395624e-11  3.4274509511137030e-10  5.1551872839560051e-10  1.5815477208956743e-10  1.2652961669734656e-10  1.2652792005186383e-10  8.4334810978252180e-11  2.4557922015161888e-10  2.8756499804148408e-10  1.7871169642648413e-10  4.6793519903790433e-10  4.2807381587507648e-10  1.2352779852100911e-10  2.1297654114740799e-10  6.6172146362330105e-11  8.4915121762470335e-11  6.1928959235230081e-11  2.4180489146176116e-10  4.0189795554619828e-10  3.0902970140236998e-10  3.3192523360269263e-10  8.6432731754322297e-11  2.2520774034173716e-10  4.7525194281971214e-10  1.7350421492900508e-10  4.9135678048460322e-10  1.8199281777421027e-10  1.3965113873330900e-10  1.1235021900673633e-10  5.0680813197392007e-11  5.3328794193595354e-11  3.4402959225326887e-10  6.2933626522158080e-11  6.3981935677780040e-11  1.3099326159900875e-10  3.2495397298966431e-10  3.3091815442010687e-10  1.5809550051644206e-10  1.1622870206270365e-10  5.9494635586822893e-10  6.3652340286096425e-10  1.6044968982040536e-09  2.6823448653597822e-10  1.9667207019195563e-10  4.4253531436539636e-10  4.6336911635786326e-10  1.1701236865512766e-09  2.9949340088751720e-10  2.4579193502355994e-10  3.1713003557047194e-11  1.2898563612094164e-10  3.8459438941795982e-10  6.2092626210226560e-10  2.1666771379792502e-10  6.9045313801970599e-10  3.0680184538840479e-10  1.9548891161264753e-11  5.0173398457492693e-10  3.2772877556640266e-10  3.8435698180899156e-11  3.3435359507343966e-10  4.1193987463053212e-10  5.4818478288762657e-10  1.4639108799204320e-10  6.8891157356299810e-10  1.9619553551177902e-10  4.6760746613777540e-11  1.2685206264827788e-10  1.3331572914614906e-10  3.0336572302476160e-10  7.6395830433089240e-11  2.7169286019398263e-10  1.9211039095901557e-10  7.2030690271820453e-12  1.6018413241455200e-10  5.6797848358987202e-11  8.9995593422102429e-11  1.2385872421254940e-10  6.2946339604094946e-10  4.1458431075227000e-10  3.0426661729993200e-10  1.1698890130716182e-10  1.3368861862155307e-10  8.9879637634522266e-10  5.3961703726733677e-10  1.3721107927704956e-10  1.4431947529387673e-10  9.2817270726841572e-11  4.9963199968716616e-10  1.4242861554920871e-10  1.7683039908630617e-10  9.5606386138603134e-11  6.9450463395972399e-11  6.3371440382653675e-11  1.5260796353014638e-10  9.6214337961630923e-11  1.3131818273269734e-10  4.4212602378455397e-10  7.5828426190592527e-11  6.0224999381326821e-10  1.2841472871060953e-10  2.2572305378251616e-10  2.8581671594904510e-10  5.5051378380358974e-10  1.1472692627445460e-10  4.0412078839691257e-11  6.1008078475269630e-11  1.4138807180582870e-10  1.5729757223740720e-10  5.2759053809372553e-10  8.1635079007214603e-11  1.5860284995875934e-10  2.4788995630446958e-10  1.3874588627559890e-10  2.4153628267303596e-10  3.4153192141645636e-10  3.1649470797397241e-10  1.0830296894435678e-10  1.7870860185299047e-10  1.5240711637845838e-10  2.3026604755919862e-10  3.9767961790145807e-10  3.7882043134504944e-10  2.0312086889429580e-10  2.0446567910456440e-10  1.2570441514222863e-10  1.6717067588575256e-10  3.0106064980318100e-10  3.8635275483684812e-10  3.6474813982360414e-10  1.6588058909727137e-10  2.1932073892127745e-10  1.9807935189929644e-10  1.5159596575718970e-10  4.0163700831308145e-10  2.9883247560921266e-11  1.0788960598421787e-10  1.3083680534273486e-10  3.3569654985377189e-08  4.1353188833336772e-10  1.7823171455462875e-10  6.1390394741504194e-11  2.6025024179410759e-10  1.4005638461705542e-10  6.4134548424807422e-11  1.0525347289353747e-10  2.0413453940816846e-10  2.0788095680111462e-10  1.9586657042657264e-10  1.9191592181851208e-10  3.0781183388839147e-10  6.3798746757787412e-11  8.0101162923466864e-11  1.9576050407002310e-10  1.2421122800674022e-10  3.4239010923107042e-11  4.1054266711012016e-10  6.3390442439705390e-11  6.0820631180028983e-11  1.9715691953143705e-10  9.8004092938137089e-11  2.3910950365367053e-10  2.9748789961165088e-10  3.4813786521995410e-10  8.3065148192250805e-11  1.8615318006469475e-10  9.5575653235695964e-11  2.9985040909167282e-11  8.6373547634527062e-11  5.6206632498644571e-11  7.6912772694749610e-11  2.2347303157604804e-10  4.6157702484894209e-11  6.4372921444524360e-11  9.2203096312954614e-11  9.1493104106446222e-11  9.3688718014350315e-11  2.7750050113318892e-10  8.7129299554694320e-11  1.8513621420920948e-10  2.0670736472158944e-10  1.0201026188184800e-10  1.6006803786873974e-10  3.1659374354405751e-10  1.2335547911369552e-10  6.1678302651515546e-10  1.7381651677415950e-10  1.5058509380240415e-10  1.3963629499823077e-10  2.2452587410941540e-10  4.2515550636505525e-11  3.8508496507354139e-11  7.6157260260792618e-11  4.5254128785319311e-10  1.9793838570747585e-10  6.6666261629879642e-10  4.4826198372636857e-10  1.2180030516154312e-10  5.5579370232949192e-10  3.6581554262555566e-10  1.9226891651971569e-10  7.0794847757518003e-11  9.2125493884894722e-11  1.7389016327976076e-10  1.8857367665695690e-10  3.8862406266502467e-11  4.9878181441537586e-10  2.8279820918049855e-10  3.5158906564442673e-10  4.9326195881843654e-11  3.6488176014421167e-10  2.6828915574961327e-10  5.7644464614379210e-10  7.4340966316447017e-11  5.9999808629944041e-11  2.4295806617770250e-10  7.1782936006538796e-11  4.1086803321896359e-11  1.4420613687223120e-10  2.3171627057040363e-11  6