<?xml version="1.0"?>
<VTKFile type="UnstructuredGrid"  version="0.1"  >
<UnstructuredGrid>
<Piece  NumberOfPoints="4852" NumberOfCells="9430">
<Points>
<DataArray  type="Float64"  NumberOfComponents="3"  format="ascii">-1 0 0  -1 -1 0  0 -1 0  0 0 0  0.9999999999999999 0 0  1 1 0  -1 1 0  0 1 0  -0.5 1 0  -1 0.5 0  -0.9999999999999999 -0.4999999999999999 0  -0.5 -1 0  0 -0.1608775713298009 0  1 0.5 0  0.5 1 0  0.1967448868031411 0 0  -0.3586136914889849 -0.1853417019694138 0  -0.3562356697669952 0.2367392610952373 0  0.1833858734211104 0.3598178816202995 0  -0.1941438960881007 0.5700848342866024 0  -0.51374708018129 -0.5478681254294706 0  0.5008765294910845 0.2619251724128543 0  -0.07267792986469061 0.2188873483413599 0  0 -0.5061325913258391 0  -0.25 -1 0  -0.5724052458528646 0.5874041066851166 0  0.6680556529085515 0.6393179973653061 0  -0.1825210867891606 -0.5478595058813014 0  -0.5577195068402286 0.02758936338619664 0  -1 0.25 0  -0.2267146932025111 0.02568787139617533 0  -0.6668014214896015 0.3191307951496229 0  -1 -0.25 0  0.03997037034901144 0.6061137258246063 0  0.2057890413292273 0.1320419294952349 0  -0.1446101635331519 -0.2311181138704631 0  0.3798423988714074 0.623371109662369 0  1 0.25 0  0.5355652144809806 0 0  -0.75 -1 0  -0.9999999999999999 -0.75 0  -0.656559389658944 -0.3316536161298881 0  0.25 1 0  -1 0.75 0  0.02757118475249542 0 0  -0.25 1 0  -0.75 1 0  1 0.75 0  0.75 1 0  0 -0.02898318711980711 0  0.05911999989037465 0.1543422227084851 0  -0.08813929038377308 -0.02996790850861375 0  -0.7133500771496982 -0.1355247766918453 0  -0.3346499261891908 -0.3599814097463252 0  -0.3549145684320003 0.4519625218080487 0  -0.1034848322856985 0.7733004880185637 0  -0.3930591689782844 0.7117509316023566 0  -0.05960811962389836 0.4175999376337622 0  -0.09176001302984726 0.08152621463613491 0  0.3708325752935914 0.3785925422885368 0  -0.7207320897925416 -0.7355053445933271 0  0.4188585030451659 0.09010483713031915 0  0.6959927352976261 0.1927667804639995 0  -0.7533903763369522 -0.534773244913238 0  -0.3943655049204756 -0.7180420078552588 0  0.7281290969354728 0.4235009916239583 0  -0.7856266906724785 0.1006634161888264 0  0.2025693308755259 0.7080751272341883 0  -0.2135553830751494 0.3056522835110279 0  -0.8045518827121376 0.5843058351166579 0  -0.722636446991214 0.771399100847295 0  -0.05277452869809033 -0.3809569083229469 0  0.5895872546621472 0.8200830001584714 0  0.8229932132426832 0.8082973982092162 0  -0.1075119864413557 -0.7017595021254172 0  -0.5330062797072317 0.1714047482722461 0  -0.2213283731185633 0.1363919949083471 0  -0.3811381644063053 0.08050704469080368 0  -0.3864304117185263 -0.05493370501229656 0  -0.5114182952089333 0.4073630172530688 0  0.375 1 0  1 0.125 0  -0.01530008966794077 0.08192873136784712 0  0.06534568566944708 0.4091149634384675 0  -0.1853800817062275 -0.1315271960975334 0  -0.2497883518380768 0.7815535589961859 0  -0.625 1 0  0.5431839424133017 0.461541396313437 0  -0.5805043779872897 -0.8340234884261455 0  -0.2609247463944336 -0.7888842754894108 0  -0.3296335910275253 -0.5200200964675746 0  0.8373753317606725 0.5988759902721794 0  -0.5562213147034392 0.7963412737177116 0  0.125 1 0  -0.0737506511556551 -0.09888110815807194 0  -0.5125488923872443 -0.1485190838922633 0  -0.875 -0.9999999999999999 0  0.03137597128526153 0.04665507213065422 0  1 0.375 0  -0.875 1 0  0.05846973869524445 0.8019284902821893 0  -0.2046085357084486 -0.3864612364253742 0  -0.07748289404655447 0.5865190068678281 0  0.2451296139146464 0.5302054874781507 0  -0.8005999029977655 0.235686903289627 0  -0.5079861732382084 -0.40028150184901 0  -0.00102610442096783 0.2895430573606809 0  0.5180764513648681 0.6470142734599565 0  0.4045281267773935 0.8121755002112927 0  -0.8125071030934614 0.4317846400984982 0  -0.06761013011127034 -0.2275447907687309 0  -0.7220293456756474 -0.01342943356843019 0  0.09610752736944621 0.0543065816383749 0  -0.4940337920778334 -0.260793921511152 0  0.7265718137497599 0.08242250210067641 0  -0.8141533570498412 -0.4175863540817048 0  0.3481870752855913 0.1563571703183726 0  -0.8021486116451455 -0.255904139475562 0  0.2486590637812904 0.2631816300981795 0  -1 -0.875 0  -1 0.875 0  0.1903902524016709 0.0466514774753546 0  -0.2615753840794172 -0.2414447677172148 0  -1 0.375 0  -0.188376408172475 -0.04592783421237849 0  -0.6594412869642586 0.4775165162929675 0  0 -0.07736776745332727 0  0.08620693018802204 0.2754475228731873 0  -0.375 0.9999999999999999 0  -0.2296450426814183 0.4416003956363282 0  -0.1345360199312348 0.1648118222973269 0  0.1385966319859924 0.5678944627040375 0  0.1416809261262499 0.2039980442783212 0  -0.4922215458974077 0.281069491290394 0  -0.05510327142268686 0.0170336033125712 0  0.8550067303107084 0.3728560249640417 0  -0.9999999999999999 -0.125 0  0.2900902299769791 0.8416857638049795 0  -0.1206174355089668 0.3320635835956454 0  -0.125 -1 0  0 -0.7575037395175259 0  0.07821397079968176 0 0  -1 -0.375 0  -0.3749999999999999 -1 0  -0.625 -1 0  0.7474787146812756 0 0  0.625 1 0  0 -0.2918843213980812 0  -0.9999999999999999 0.625 0  -1 0.125 0  -1 -0.625 0  0.3284075310660084 0 0  0.004929205892015135 0 0  -0.125 1 0  0 -0.006571003003944568 0  1 0.625 0  1 0.875 0  0.875 1 0  -0.5699362729050785 -0.6840014430514374 0  -0.006477847692176964 0.1763737503713265 0  0.374564696514448 0.269545008200432 0  0.6609174729103957 0.2976381714131978 0  -0.8574862874173531 -0.6514263459135619 0  -0.8663456386152419 0.7902010855466767 0  0.4407613619646018 0.5103818543492936 0  -0.4042522915776925 0.8604485230388733 0  -0.7811993469199814 -0.8771722845625036 0  -0.872460469777935 -0.787367779833529 0  0.1571927701607746 0.8477486881085209 0  -0.6723414542751271 0.1595753869385883 0  -0.5946689167336051 -0.0658173588236161 0  -0.8611020267165334 -0.06287764058191644 0  -0.3079401659980922 0.5757815734901496 0  -0.4361386630551863 0.5818301657115051 0  -0.3931128040435257 0.3451868205259959 0  -0.6322854894151566 -0.2229159726827794 0  -0.2924074107478318 -0.09661679457512401 0  -0.6475274816110482 -0.5971743856725591 0  0.8630482515375789 0.266670913075166 0  -0.03706268554063941 -0.034107419460002 0  -0.06375030089891608 0.1286452169129668 0  -0.1429650629153481 0.4500812246781624 0  -0.1362180276322678 0.03625983701472762 0  0.5417924363119737 0.06458562310186908 0  0.58864144019389 0.3653439174689041 0  0.6960077477174891 0.7784965782250075 0  -0.796526181418552 0.8834544382318485 0  -0.6530306939882798 -0.4386514760699117 0  -0.1215666421019718 -0.4083045215778325 0  0.8748700661916494 0.4918942753453139 0  0.08251866561910311 0.1006097116849241 0  -0.6691979957052209 0.8714317269548195 0  0.4659164947727458 0.3579286872681369 0  -0.03271051159516587 0.04276004517013451 0  -0.4211011786328039 -0.452280898371716 0  -0.3774131086895549 -0.280508203917285 0  0.3338881536900253 0.4926545073663796 0  -0.2134277117487593 0.2164971584414842 0  0.7121634870974149 0.5363379096309484 0  0.2732852946868568 0.3674156168245966 0  -0.3806079421879095 -0.8556070153575408 0  0.1123019365767758 0.6930821240520866 0  -0.292239423863959 -0.6216676221828505 0  -0.4500180774909268 -0.6294823347467667 0  0.3035234886652761 0.7006944808544052 0  -0.8801448374130847 -0.1771439234818493 0  -0.1838957210373787 0.8605281481484682 0  0.4640669023139194 0.1662016343665004 0  0.2850387924118778 0.04591192518917336 0  -0.1487050798010521 0.6701082218316401 0  -0.01271600055314904 0.7197471276676308 0  -0.05431637419620664 0.880140708671436 0  0.004701934410032615 0.4873718121215546 0  -0.4084213898797578 0.1628489612835442 0  0.5559993022593805 0.1344595687842617 0  -0.4861473838507958 0.6915303889935321 0  -0.8570100966511323 0.3388868682232861 0  -0.09490907391176842 -0.5444785420690683 0  -0.02825146138100365 -0.5572827320425917 0  -0.2244862490385094 -0.3007932484264618 0  0.8706535470552133 0.1510894196501227 0  -0.173791883706542 -0.6682296624601483 0  -0.8917480160436668 -0.5332148345864703 0  -0.297858915128084 0.3542658866795619 0  -0.685161795995652 0.5830429087898376 0  -0.9005778519658991 0.5359845102086798 0  -0.901090320758131 0.6647822710543287 0  -0.659445934811038 0.07644221383774427 0  -0.8655702125445713 0.0300678702867233 0  -0.8933016811722778 0.1707740683112554 0  -0.1430237376853918 0.2466546890759518 0  0.1678034972393198 0.4608121826495303 0  -0.04667866772715853 -0.1302451695258151 0  -0.759728272518355 0.6766058411731354 0  -0.6112816594440881 0.70560426302997 0  -0.2760475657233613 0.08495362194551705 0  -0.2587973388495358 0.6606813714420001 0  -0.03232459628992047 -0.005977245575941267 0  -0.4999648302257813 0.8805754606954371 0  -0.4904268155082486 0.5029142239254117 0  -0.3115649440327931 0.1542168595546248 0  0.0009656300706404385 0.02813512868970253 0  0.7837104287902203 0.6876404922049782 0  -0.4746503470822607 -0.8291022951278739 0  0.2841662187484292 0.2003539763725117 0  -0.1489126184988938 -0.865684248353399 0  -0.06534702702258967 -0.8312107905937602 0  0.4508113540305873 0.7126199890342489 0  -0.1231121626791975 -0.2992358823957266 0  -0.2861532770829441 -0.02835599797913717 0  -0.894941763307634 -0.8978213596127664 0  -0.588715699647145 0.2471391880140933 0  -0.4964736626998148 0.09312551154108553 0  0.496447337410337 0.8298134408022608 0  -0.02961708797914866 -0.2638351308505277 0  -0.3150477398174684 0.8796366169053783 0  -0.1609334889361169 0.08917696443191382 0  -0.4893954055769546 -0.03555438237518838 0  -0.4099429366511531 0.01342081322357789 0  -0.3138911888282669 0.02969340424611317 0  -0.4047113137574152 -0.1264927230862468 0  0.8902122017331187 0.7005662893703503 0  0.7945256180360345 0.9119794377888651 0  0.5848556792705968 0.2108255367724075 0  -0.5706099424445862 -0.4799032177004985 0  0.6055094828659806 0.7113709450839929 0  0.6811970938677252 0.8902997812689792 0  -0.05677267613674387 0.3224775113056923 0  -0.9035716993032028 0.9059180598273117 0  -0.1407646011091001 -0.07313748560301134 0  -0.1806349032745995 -0.1939118619140879 0  -0.26950267923708
[...]
<PointData  Scalars="w"> 
<DataArray  type="Float64"  Name="w"  format="ascii">1.4038956562322765e-10  1.0104230905296149e-11  4.3999453834392161e-10  3.9989793015595497e-08  6.1701848956095207e-10  1.5559764616765958e-12  8.5305969453032417e-12  6.5826457631409758e-11  3.4314068087667850e-11  1.9278239682600025e-11  9.0978320981867929e-11  8.3248814418756021e-11  4.5998381821126443e-10  2.3872994858178648e-10  8.4087981491932800e-12  8.3646599079809305e-10  8.7237922471805588e-11  6.7014792108847401e-11  1.2959069398308955e-10  2.9246810974859058e-10  5.8184489046005291e-11  1.0241975085917488e-10  5.7157330860027039e-10  1.6905073111015814e-07  5.2040246801300301e-10  8.9901461622102704e-11  8.0723077173126284e-11  1.5673779070982219e-10  6.6970746232870452e-11  1.7302874194212491e-11  4.6542851704935353e-10  8.0752181625888916e-11  2.0083356383774026e-10  1.5624435185387314e-10  5.1838175219421100e-10  2.3476194354021534e-10  7.0047172166248339e-11  4.3782734770077478e-10  5.8192185547800957e-10  2.8685192611169314e-11  4.6106843913057725e-11  9.2344316059970942e-11  8.0138669935802605e-11  1.6714528249430436e-11  1.4178889306957161e-09  7.8806884849126355e-11  2.9245860772296446e-11  8.7015398231450208e-11  1.3302457994947222e-12  7.8846301002266573e-10  2.7114463761135773e-10  2.6741218824693653e-10  7.1793637919937458e-11  2.3189466837354974e-10  2.1964099924121878e-10  1.6656523430318010e-10  2.9400225009577988e-10  8.2648807321677237e-11  6.7632344885728427e-10  2.3367916713467835e-10  2.7762305644452550e-11  3.2243790211893742e-10  3.4978517471741003e-10  1.2118741493748069e-10  4.7361879665088398e-11  1.6001302019979212e-10  5.7374781135217216e-11  1.5693603938364213e-10  2.2198784700898807e-10  3.9727689831387710e-11  5.7111677385097168e-11  4.3355250492712276e-10  4.9492103432022573e-11  8.0621342352397075e-11  1.6602199648171181e-10  1.4665320008657902e-10  2.5723298506951415e-10  2.4751089725609967e-10  1.6380483593662876e-10  1.6298281045801352e-10  5.8012349193916986e-11  2.4132348517770514e-10  3.5438866315313834e-10  1.7947964955384835e-10  2.3840168724376364e-10  1.0637567987748833e-10  3.8175187773688682e-11  1.0053670611430625e-10  8.2936550526924027e-11  2.2676116138120357e-10  6.1810893373068831e-11  8.9112073788229741e-11  6.6117140530193877e-11  8.0247771632725346e-11  4.5009412240439845e-10  1.7990149078015218e-10  2.3610314623892298e-11  8.8692359964283394e-10  2.2893667872592843e-10  2.8457343483321369e-11  2.3533030174792827e-10  4.0236031838551242e-10  7.0667500791047481e-11  8.8174680142537545e-11  1.2949457690873865e-10  5.7185754861912960e-11  2.7854583050185288e-10  7.2618171423913263e-11  1.2595219436088125e-10  5.5809479349952699e-11  3.7160323844293889e-10  2.0105242633615109e-10  2.9243643250520132e-10  5.5888280848512939e-10  1.2083706672083568e-09  1.2356666466305121e-10  1.8179123586104670e-10  8.6701122771897634e-11  4.5077405222184624e-10  2.4219185469491740e-11  2.4013482866275033e-11  2.8397427314213996e-10  9.1028529596861185e-11  5.0550371712332417e-11  5.4319707635930564e-10  4.7620921956105663e-11  8.5402690281052702e-10  1.2732902892432912e-10  6.7155993432993131e-11  7.5743040458142434e-11  3.5115036117958455e-10  1.4616999954404587e-10  4.7067923651787754e-10  1.1499594026303532e-10  8.6258591661147131e-10  3.8944579913767692e-10  9.0909043009928878e-11  4.5829339747490405e-11  1.3444160294822382e-10  2.4759576095682007e-10  4.1345869396047242e-10  6.4831083498474897e-10  7.4804548179055035e-11  1.0480840958965119e-10  5.9456299687112746e-11  6.4605747475825570e-10  7.6218984794598334e-11  3.2035369925502638e-10  1.2395350409561389e-10  1.0318112118797530e-10  1.7856959664969583e-11  2.8401203446382696e-10  2.7396130391633235e-09  4.9555236838749423e-11  1.7424773213600152e-09  6.9522435074367517e-11  2.2066424168332875e-11  2.2895977927699976e-11  1.0488048288454322e-10  5.8863329211500564e-10  4.5819938336022624e-10  1.5188401888800535e-10  9.6913868339664336e-11  1.4438191615044933e-10  1.7884348947445432e-10  5.0203247135714081e-11  6.8674919120233542e-11  1.8510262167476126e-11  5.0911452212214414e-11  2.3452355994726152e-10  8.3157468426985901e-11  8.7735240063172821e-11  7.6862912543278353e-11  8.0152671484614192e-11  4.9267894688492552e-11  8.2506100274425936e-11  4.3004044443357904e-10  5.0554623765474395e-11  1.5328297145101142e-10  2.2259700395961708e-10  5.3498763083970487e-10  1.7545624910588272e-10  3.1277508061068411e-10  1.3778371336202899e-10  1.3337655955511051e-10  1.3288417709906942e-10  1.9263943617596499e-11  2.3678077519567466e-10  6.6287124879053786e-10  2.2390862215199192e-11  2.8261915323199761e-10  7.6503305877088900e-11  1.4392618331476142e-10  1.5870558655709397e-09  1.2204324931779616e-10  1.5911820114201316e-10  2.1688540377375031e-10  2.7013654016252104e-10  9.2395890149392261e-11  1.9427261570160080e-10  3.5803583248306568e-10  1.9766302554192784e-10  2.0894856356771987e-10  9.4239590507895822e-11  1.0537836841549408e-10  9.2060867193146382e-11  6.1494496273584608e-11  2.0169558017882838e-10  9.3067322736083390e-10  6.6462234917790190e-11  9.2932210672652177e-11  7.4931859000635973e-11  8.9865568335417043e-11  1.5645545856372221e-10  3.5027175477962609e-10  7.0936967908529641e-11  6.7234047726034854e-11  6.8730458064239314e-10  5.4543980662258061e-09  2.8299802403989627e-10  1.9399463891229680e-10  7.9265281921631750e-11  6.7817351048988900e-11  2.9006541168775186e-10  4.9200950185177984e-11  6.9341656808211283e-11  4.5017441554147937e-11  8.0465337100088929e-11  3.2133085234077754e-10  7.4687561870948778e-11  2.0199490777657801e-10  1.5599623649005225e-10  1.0620239521013033e-09  5.3753264101140904e-11  1.6421028106322800e-10  1.1554314310790126e-10  9.3081640870744215e-11  1.1476144136298417e-09  6.2600620007401992e-11  7.3385751889823699e-11  1.1971598939932300e-10  1.9672568706608561e-09  3.6331870161650620e-11  6.9143209856409367e-11  3.0130153093251097e-10  2.3773809628920973e-10  3.3119634227683556e-10  1.6109474887765738e-10  2.0519734616377047e-10  3.7805064738817008e-10  2.7067660197536789e-11  9.3096623425287328e-11  1.1134553996421765e-10  3.3768603352619713e-11  2.9157458958236761e-10  3.7657376873641467e-11  3.5041084633368302e-10  1.2520624935031569e-10  1.0106641680279895e-10  1.9093550522674830e-10  4.5065686585021358e-10  6.6245921106044601e-11  2.4834750144216021e-11  1.3572535989030359e-10  7.1462685638011422e-11  5.2799898658498950e-11  6.7256732319714867e-11  1.7934320446832054e-10  4.3756704830996516e-11  2.9588434303887981e-10  2.5696398125530480e-10  1.3578363128528172e-10  1.5510747971146362e-10  1.2783318296531327e-11  6.9050832486579792e-11  1.5369137674277183e-10  1.3654513947214392e-10  6.1077550867016788e-10  3.2158823392397184e-11  7.3467765524397988e-11  3.0839053078398223e-11  2.7506572661974071e-10  1.1078978442988221e-10  1.5518888214942914e-10  6.9728041111518734e-11  7.0556873345547448e-11  1.1189491613872272e-10  1.7416042227430412e-10  2.2937439102196321e-10  2.4058118995404912e-10  4.8666170290349760e-10  1.9956137299399753e-10  2.0874924849970571e-10  1.2842893256771726e-10  7.3066475013278614e-11  1.5230049542897909e-10  1.5015449428605861e-10  8.8855514714653282e-10  1.1430497410082189e-10  5.6086224307594479e-11  4.2876806327560214e-10  2.3071423218953661e-10  1.6732433366753756e-10  1.2141870779764664e-10  2.9891437632483954e-11  4.1534019169821638e-11  8.3108211528264764e-11  7.8954072266833685e-10  3.6221264978078039e-10  1.6499308617327994e-10  1.1063803138307667e-10  3.0326261869003241e-10  6.0532369253598209e-11  1.0317548996907065e-10  4.0407833589219927e-10  3.8260176721086986e-09  8.4199551938868358e-11  2.9221445112827652e-10  6.8409890055428246e-10  1.6574244086458715e-09  2.8672901150741955e-10  1.7879928902676967e-09  4.5549175531484842e-10  2.1447765053975964e-10  1.2751288316592328e-10  3.4837336919840137e-11  5.5631810916708455e-11  1.1777845778754379e-10  1.3033178802984215e-10  5.3578341491400617e-11  1.0463002500206108e-10  9.8710756875383281e-11  1.0729783520725192e-10  2.3918064826513797e-10  5.9302583214734805e-10  3.2188868667815714e-10  1.5546268267996928e-10  8.6302904019403380e-11  5.6229920348443947e-11  5.6172434343696454e-11  6.1757749627390427e-11  1.6080026012926266e-10  1.8937591034210370e-10  8.8481352660978979e-11  8.7180598761371802e-11  2.0656495411173748e-10  1.2263525653376518e-10  6.2920160002616013e-11  5.0235212367600125e-11  1.0650281455787885e-10  2.9651759177959679e-11  1.5247037554124496e-10  3.0166104646964192e-11  1.5890300387508977e-10  1.7578920840676966e-10  1.4439496109637514e-10  3.4547985638973090e-10  7.1786956267521809e-11  7.0568403843414663e-11  1.1924964802259085e-10  2.5381859207141626e-10  1.3763310944013538e-10  2.4587714413131744e-10  9.7390468779222785e-11  1.1556580266530623e-10  1.2539417780887249e-10  2.6340958582342597e-10  1.2660626461127787e-10  2.9723588564186077e-11  1.0130275966907563e-10  1.0150527650845016e-10  1.2294794674226335e-10  2.1366691340132991e-10  1.5049165160850732e-10  3.1017728798286696e-11  1.1268508001551403e-10  2.2335568416555954e-10  2.5618547634587106e-11  3.0300815044259751e-10  1.7036253391375401e-10  5.4866575533560035e-10  1.0574230019456423e-10  1.9334072892849476e-10  2.8096057858784411e-10  6.4070732578987410e-11  9.3977828934226399e-11  1.9602867104140241e-10  6.4734028324726620e-11  4.9385724729485960e-10  1.6761021250382529e-10  8.3044922841328493e-11  9.7026765572691298e-11  1.8793817725459311e-10  5.7291837751959630e-10  5.4593687432217441e-10  1.5406918844554547e-10  1.4529226400090673e-10  1.6474450136136615e-10  3.2133071200227207e-10  3.9472600103777313e-11  1.8434430954111282e-10  6.7727728128094141e-11  8.2586634982876941e-10  1.0221678262522054e-10  3.9346208289634074e-11  6.7105658699546667e-10  3.3943653093318688e-10  2.2166585592295540e-10  1.7834608940578691e-10  5.5287418682730088e-11  1.3134752638101167e-10  2.8269259409389959e-11  3.9510756072423528e-10  6.9346925476446133e-11  1.1103298792858513e-10  1.1418294151767328e-10  5.3990381824174308e-11  3.3429675834184606e-10  3.7963099514786370e-11  9.8048843627145397e-11  2.4495630142275987e-10  1.7053908742881892e-10  7.8434605195783277e-10  8.1598879955568376e-11  5.9077956718444640e-10  1.3038222575447894e-10  4.5159058500562267e-10  1.0229693174310300e-09  2.4674278964568136e-10  1.4835760844138870e-10  2.5420660145678422e-10  5.9262539582651216e-10  3.1788716524324581e-10  6.2646225279217682e-11  4.3210854609249767e-11  1.7525881010995401e-10  4.3398904647950605e-10  1.5587972755275829e-10  1.0731743169294084e-10  1.3976668520550167e-10  7.0217944608497795e-11  6.0930622774683246e-11  1.8251362451706915e-10  5.0212971143667258e-11  1.8012122075341270e-10  8.5594802875344217e-11  5.2461336811807759e-10  4.1136281743939434e-10  7.3824817057683419e-11  3.7121748779108091e-11  3.7601179747818262e-10  6.9096329302072198e-10  2.3953819802572536e-10  1.2595131590735026e-09  3.0133586779059109e-10  3.4209183845419406e-10  3.7224856138154758e-10  2.7649741767562394e-10  8.5759015908012343e-11  2.8220498114290773e-11  1.6750584848020934e-10  8.5388072974002315e-11  1.8084360698486178e-10  7.1834380704375253e-11  1.0421517152491849e-10  3.6028521558212568e-09  1.6521226724977736e-10  7.3497717481365878e-11  7.0427303530505846e-11  4.5194700351104406e-10  2.3896356282257559e-10  1.8980214627906111e-10  2.0261070938608329e-10  3.9925810475344441e-11  7.7049500696461760e-10  2.3156591948913155e-10  5.2451811929722442e-10  2.4195519491565199e-10  2.0240487881343631e-10  2.7925473943454555e-10  8.8447472731544268e-11  3.1650683270442761e-11  3.4420618813124407e-11  5.0022116421665538e-10  3.1685354091829768e-11  9.6875842396413329e-11  1.1412398640468429e-09  6.7178910762372897e-11  3.0466099055027883e-10  2.3396635068589014e-10  5.7464718252161102e-11  5.1485609518907730e-11  1.9780168667874621e-10  2.6658549699996519e-10  4.3593646411054144e-11  1.0363099249790307e-10  1.3918833995197675e-10  7.0598675824506736e-11  1.4942370018342599e-10  3.0000648887113239e-09  5.6907267248745523e-10  3.0740227938401175e-10  1.1226402013793373e-10  9.5865283678657437e-11  1.5775090619768515e-10  6.9306490717851835e-11  1.1942341599637358e-10  4.2037321477864819e-10  7.7780471919889628e-11  2.0048689026013708e-10  1.8854978735839127e-10  1.3798554337047088e-10  4.3109649556152724e-11  6.3196132340120333e-11  4.4892952790899590e-11  3.9192128465539704e-10  9.0081210257085073e-11  2.1737532075116434e-11  5.8393051242214806e-10  2.7922634721957969e-11  6.0452562071258095e-10  1.1612799919879751e-11  1.1409144808448837e-10  1.8603130660851177e-10  2.3082628010697779e-10  8.4647872459337258e-11  2.6997067450997876e-11  7.1000357585134724e-11  2.4382305744433048e-11  1.7516221544023962e-10  3.6085225548211215e-10  2.5512779019606906e-10  6.6477252883097446e-10  1.7592272605882715e-10  7.9812159522064942e-11  5.5675607185997163e-11  5.3507395083639883e-10  4.6087856680511441e-10  8.9480339013172095e-11  8.3253018781945098e-11  1.2243064161916386e-10  7.0054279417588601e-11  3.9728952940980532e-11  4.5692119941263916e-11  2.8231834364018301e-11  8.4630395124775518e-12  1.6482036943521485e-11  8.9998171701932799e-11  2.1713577619077254e-12  1.0591795570476832e-11  1.9520687026162648e-10  1.4845081400340022e-08  1.7986985738591963e-10  3.5951085040818296e-11  1.9192731193618266e-10  8.0305810652564133e-11  9.8223827874064166e-11  3.9428265868660340e-11  1.5200366233563950e-11  7.6503059236166614e-11  1.2422962735921851e-09  7.2218449590664602e-11  1.7826733845041928e-10  2.9787991535419092e-10  4.7697709655710125e-10  9.0813498022856575e-11  9.4088438112434523e-11  5.4031264286547105e-11  7.3505349171873226e-11  9.4443621840965218e-11  4.8640032817835965e-11  5.9813021828344247e-10  5.4563688636325333e-11  2.9252947725681967e-10  7.5404697992188162e-11  1.1773988506225638e-10  2.6137092483869097e-10  3.9108886516987609e-11  5.1515186862889696e-11  2.2180888750689857e-10  1.0389145183545954e-11  9.7768850410949594e-11  8.4013654150744805e-11  7.1974425817387880e-11  5.3970905735491250e-10  1.8006911649084295e-09  2.8821281467723884e-10  3.0238096969044288e-10  8.6113085252157005e-11  6.1254081276324148e-11  2.1060607814263689e-10  1.0281208521630960e-10  8.7231763903378431e-11  8.7695153860911776e-11  1.6104105395418510e-10  6.3879916506734637e-11  4.6988522529101359e-11  6.3408318034922081e-11  3.6159251400066066e-11  7.7956147810955258e-11  2.0222970773218404e-10  1.5730283789152205e-10  1.0737910214877211e-10  2.4867064030162499e-10  4.0435171010058118e-11  1.2499376935837150e-10  5.3653524415335221e-10  5.6742700114622686e-11  1.0072606640998410e-10  1.4340541735192864e-09  5.3076224703029091e-11  3.5639048411844140e-10  6.0008830962186561e-10  1.6404752336453086e-10  1.1187223579300278e-10  1.2210244250327860e-10  8.1199023079026160e-11  4.0380532121333635e-10  2.9791375822488939e-10  1.7502383039866066e-10  5.1057871787781219e-10  4.2075322084701831e-10  9.9608101935685436e-11  1.6899289534472824e-10  5.9238268988646206e-11  7.3735773249357361e-11  5.8439871965188166e-11  2.0109526308901567e-10  3.8029986936000685e-10  2.9657087352202792e-10  3.0608352097569102e-10  7.3304381122421991e-11  2.7448195002902956e-10  5.7330269940349453e-10  1.4256749344762912e-10  3.8312961108318941e-10  1.5868219149862361e-10  1.2663476010378161e-10  9.7787393079514927e-11  4.8009072350575356e-11  4.8465687288144366e-11  3.0519979962978780e-10  5.2586033633650955e-11  5.9437081324133520e-11  1.1525261774354298e-10  3.0530393095168887e-10  2.9975237247642137e-10  1.4281981307522938e-10  1.1002832195378824e-10  7.4114138861310109e-10  6.4634509807748237e-10  2.2026837603227724e-09  3.7323395447337748e-10  2.4966360290970200e-10  5.7782194871540275e-10  4.0129949274817932e-10  1.6596130397900296e-09  3.3128082420721498e-10  2.1285813638050105e-10  2.9166641170807201e-11  1.0618181875817174e-10  3.2393329127423959e-10  4.3953468618807669e-10  2.3642615801884969e-10  6.4826774279585635e-10  2.5593195796862428e-10  1.9527037014525154e-11  4.1901886497047816e-10  3.8325900073979795e-10  3.4407392094601584e-11  3.2174379402931732e-10  3.9583925721920636e-10  5.0584304288323789e-10  1.4105221457026720e-10  6.2069301693064280e-10  1.7027719794516972e-10  4.2029960689841824e-11  1.1847246801192645e-10  1.1615371122949741e-10  3.3750392980537516e-10  6.6988489897811749e-11  2.1539099044051409e-10  1.5977032935922297e-10  7.2575141012561228e-12  2.8735768803107954e-10  5.3266992619342168e-11  8.1989915235667416e-11  1.1654992717297656e-10  7.0141495413854889e-10  5.0941779230369073e-10  3.0557309603755404e-10  1.1015306696418333e-10  1.0927401649512668e-10  1.0395058157570224e-09  7.1667475187807288e-10  1.2275777144048834e-10  1.3047591720055853e-10  8.5936533034589318e-11  4.3971577426883955e-10  1.1356131165937098e-10  1.4452744132292617e-10  7.8677065104327339e-11  6.5094312971372113e-11  5.8624070371998822e-11  1.3342217696682515e-10  9.1094998793816782e-11  1.1363573355154257e-10  3.3477273998560641e-10  6.4746938311761929e-11  8.8449431328000768e-10  1.0616731287792718e-10  2.2322460079819656e-10  2.1947279325523482e-10  6.8926824424029166e-10  1.0203397474310577e-10  3.5410024540168060e-11  5.3944942334374986e-11  1.3720832470748279e-10  1.4717621717260378e-10  4.4855860685198526e-10  7.6436556246338857e-11  1.2862272320775509e-10  2.0444684985633626e-10  1.2145799335933277e-10  2.0479977817470305e-10  2.9636423287301449e-10  3.0511454849678008e-10  8.5416842379133788e-11  1.6459772856518388e-10  1.2964334020801583e-10  2.0842779160454187e-10  4.8663737987157669e-10  3.6871957937684709e-10  1.9758842420000044e-10  1.6044277599490766e-10  1.0244516982269350e-10  1.5213023704599341e-10  3.1167445350130529e-10  3.5799418503586712e-10  3.4216846028205756e-10  1.6879626508406560e-10  2.0893240278646676e-10  1.7565588539484891e-10  1.2604308728592758e-10  3.6194397984515038e-10  2.7806337406226684e-11  8.9187574354774818e-11  1.1787666925421346e-10  9.1877726433000618e-06  3.5790765682385033e-10  1.5448565637170413e-10  5.8574203906418260e-11  2.5236472983257856e-10  1.2453154773912300e-10  5.3066240514187597e-11  9.1492197085647567e-11  1.9692010749013426e-10  1.8568099804115282e-10  1.6969622326434318e-10  1.6356361909342243e-10  2.6336532361685129e-10  5.3427301697320064e-11  7.1484834726857117e-11  1.6459820564665811e-10  1.1279514290333846e-10  3.1959177912286824e-11  3.4489414040671351e-10  5.5079863666044301e-11  5.4539107403896067e-11  1.7439912630456236e-10  8.1999943189221301e-11  2.1375162505593017e-10  2.9295253091968133e-10  1.8683599739348614e-09  7.4582561897202486e-11  1.5108498232470675e-10  8.5080604380067873e-11  3.0306108647656834e-11  7.9882870269869887e-11  5.5392689195612638e-11  8.0771811235499381e-11  3.2818988494351477e-10  4.0668940580359691e-11  5.6423469049149175e-11  8.2736537204353123e-11  8.1487246727705831e-11  8.4028452384531249e-11  2.5995952581258765e-10  7.9538485581528768e-11  1.6490524507280447e-10  2.1187264307636073e-10  1.0415679615874889e-10  1.5033467561242072e-10  2.9644006846442363e-10  1.0327376218383179e-10  7.0530627375974800e-10  1.4436293083210723e-10  1.2949341739829205e-10  1.4596915939373350e-10  1.8308618378262881e-10  4.0749779882888231e-11  3.6193349930230781e-11  6.7017019794304290e-11  4.2419643037463761e-10  2.1762114456963318e-10  5.8304882553172256e-10  4.5921648796159026e-10  1.0856802132588708e-10  5.6799898319761401e-10  3.4988224109315494e-10  1.6643140452623056e-10  6.0885258484632957e-11  8.1046324863735435e-11  1.6839863970941197e-10  1.8959428117114599e-10  3.7120890858968925e-11  4.5580220148860498e-10  2.5184939035950467e-10  2.9376200783093493e-10  4.9155017781087460e-11  3.0153117848066844e-10  2.3604114113120294e-10  1.1677589534330202e-09  6.6559666466108962e-11  5.3568979268493005e-11  2.2504290954052828e-10  6.3295198007186129e-11  3.6613628322031969e-11  1.2214883736008615e-10  2.2008226877267191e-11  5