<?xml version="1.0"?>
<VTKFile type="UnstructuredGrid"  version="0.1"  >
<UnstructuredGrid>
<Piece  NumberOfPoints="4852" NumberOfCells="9430">
<Points>
<DataArray  type="Float64"  NumberOfComponents="3"  format="ascii">-1 0 0  -1 -1 0  0 -1 0  0 0 0  1 0 0  1 1 0  -1 1 0  0 1 0  -0.5 1 0  -0.9999999999999999 0.4999999999999999 0  -0.9999999999999999 -0.4999999999999999 0  -0.5 -1 0  0 -0.1608775713298009 0  0.9999999999999999 0.4999999999999999 0  0.5 1 0  0.1967448868031411 0 0  -0.3404046837043057 -0.1755047211980395 0  -0.3362513910486387 0.2239055538124819 0  0.1739705815454311 0.3456058828418373 0  -0.1846705040887437 0.5545087984167398 0  -0.5037853955651044 -0.5372432493971983 0  0.4904695632425822 0.2567250338151861 0  -0.06406334306484834 0.2006221383104491 0  0 -0.5061325913258391 0  -0.25 -1 0  -0.5608256056312453 0.5770391332996578 0  0.6614404650768627 0.6336700679174746 0  -0.1757362246949821 -0.5375750015855615 0  -0.5384279021025524 0.02543137404587717 0  -1 0.25 0  -0.205704405353823 0.0237085084594021 0  -0.654093442479323 0.3090706838919106 0  -0.9999999999999999 -0.25 0  0.03930495422481727 0.5912153041158851 0  0.195084116948672 0.128535088768732 0  -0.1361738805672198 -0.2197664415733458 0  0.3710561412851175 0.6140206514074963 0  1 0.25 0  0.5355652144809806 0 0  -0.75 -0.9999999999999999 0  -1 -0.75 0  -0.6449032005243773 -0.3228185231334813 0  0.25 1 0  -1 0.75 0  0.02757118475249542 0 0  -0.25 1 0  -0.7499999999999999 1 0  1 0.75 0  0.75 1 0  0 -0.02898318711980711 0  0.05431578455915367 0.1419259502097142 0  -0.07751713838901607 -0.02779088001478728 0  -0.700888728681336 -0.1322206021902766 0  -0.3215228070779189 -0.3469737885856635 0  -0.3396434585643544 0.4368688419195736 0  -0.09975769997867512 0.7638626409118553 0  -0.382793569234911 0.7022355176020808 0  -0.05455292409010335 0.398358841658451 0  -0.07865285950855069 0.0717842686239943 0  0.3589005213223562 0.3690782091114501 0  -0.7159872856624594 -0.7298668356977996 0  0.4118111007860229 0.08972530631275395 0  0.689955868040776 0.191464807773367 0  -0.747467246617142 -0.5268427525175401 0  -0.3873700315012643 -0.7103902123202945 0  0.7215655479840148 0.4184340224251953 0  -0.775747437657853 0.0969567636750189 0  0.1967433753837492 0.6982656237895856 0  -0.1982159693718087 0.2880050540880599 0  -0.798625198410112 0.5771206936883674 0  -0.7163972305435387 0.7661070027457505 0  -0.05259389248559151 -0.3734443229532075 0  0.5846402101986099 0.8163307352555109 0  0.8202661805009199 0.8057579386830339 0  -0.1018480539858583 -0.6970944403900459 0  -0.5139638252550019 0.1624603810399922 0  -0.2013476039409004 0.1253483034880052 0  -0.3586365957969047 0.07519030888258446 0  -0.3646714032249425 -0.05227698430149486 0  -0.4961130183716793 0.3946505051691008 0  0.375 1 0  1 0.125 0  -0.01174067987494719 0.07106235109457248 0  0.06226618455612948 0.3913006158839825 0  -0.1711283075834379 -0.1222501991640472 0  -0.2426172238548606 0.7733639096557211 0  -0.625 0.9999999999999999 0  0.5333484272937757 0.4539275368211598 0  -0.5759593330582716 -0.8299467444543804 0  -0.256774995344961 -0.7833239649555856 0  -0.3195524617384826 -0.5081659842273207 0  0.8339214270030004 0.5951907066923441 0  -0.5482812786152482 0.7905527726829146 0  0.125 1 0  -0.06732394681881544 -0.093371828394453 0  -0.4942185022015759 -0.1430488035528891 0  -0.8750000000000001 -1 0  0.02959215703047456 0.04150585352258387 0  1 0.375 0  -0.875 0.9999999999999999 0  0.05739922626029319 0.7936722111897122 0  -0.1958649589242153 -0.3734888935007113 0  -0.07259101638183711 0.5706197212850408 0  0.2364663713410452 0.5174450676869627 0  -0.7919865336407264 0.2292182627029636 0  -0.4950833051236494 -0.3887894640352533 0  0.0003240370909263076 0.2706508281148395 0  0.5098776805721041 0.639871814262375 0  0.3988210755812501 0.8070888838721698 0  -0.8058854858446899 0.4241480055740279 0  -0.06424501184568326 -0.2204528121471596 0  -0.7093002102811288 -0.01408513456703299 0  0.09052095072821613 0.0523317345195181 0  -0.477972735886526 -0.2509891742529529 0  0.7238516782192271 0.08279117467609295 0  -0.8085631151745425 -0.4109178863652214 0  0.3374908172702903 0.1532679778607604 0  -0.7944098980251516 -0.2506407389495657 0  0.2363069203589019 0.2538972464061998 0  -1 -0.875 0  -1 0.875 0  0.1843030698408993 0.04775430442141093 0  -0.2473067654322747 -0.2288571467328202 0  -1 0.375 0  -0.1707190049222749 -0.04171798388645058 0  -0.6483463805417684 0.4671265300005596 0  0 -0.07736776745332727 0  0.08052346817516159 0.2594354091726002 0  -0.3750000000000001 0.9999999999999999 0  -0.2164107921733891 0.4243119023394443 0  -0.1196860015739268 0.1498454903095676 0  0.1332957794735636 0.5536950787098343 0  0.1319771927811509 0.1933999364947127 0  -0.474180099210805 0.2692005838034321 0  -0.04604924730898172 0.01387537197537198 0  0.8514152543469876 0.3701139229319501 0  -1 -0.125 0  0.285563309525873 0.836677162098816 0  -0.1103799088123749 0.3125835569458387 0  -0.125 -1 0  0 -0.7575037395175259 0  0.07821397079968176 0 0  -1 -0.375 0  -0.375 -1 0  -0.625 -1 0  0.7474787146812756 0 0  0.625 1 0  0 -0.2918843213980812 0  -1 0.625 0  -1 0.125 0  -1 -0.625 0  0.3284075310660084 0 0  0.004929205892015135 0 0  -0.125 1 0  0 -0.006571003003944568 0  1 0.625 0  1 0.875 0  0.8750000000000001 1 0  -0.5626205767897078 -0.6762445395537992 0  -0.004516772540428897 0.1599096731425081 0  0.3623271672904007 0.2627076170150504 0  0.652956196204189 0.29373031203388 0  -0.8546591170143302 -0.6464673019587019 0  -0.8633353706961683 0.7869132141306301 0  0.4304641203895491 0.5010385905693427 0  -0.3982868304691827 0.8557330589394087 0  -0.7786865612448111 -0.8747932429267113 0  -0.8704506252072202 -0.7842839133356388 0  0.1541569080554653 0.8420320288861505 0  -0.6581481941100454 0.1525914596521377 0  -0.5772331769785866 -0.06401255094799133 0  -0.8544186454347642 -0.06248326368601426 0  -0.2954933171910917 0.5618312742229418 0  -0.4232444677542056 0.5696354714010023 0  -0.3755180010930089 0.3306857746686963 0  -0.6180724138995753 -0.2161486898292306 0  -0.2724855835394973 -0.0899068728606125 0  -0.6400226112690847 -0.588438473522428 0  0.8597066639327317 0.2659851619067228 0  -0.03274421795038716 -0.03293265579527062 0  -0.05451720049010157 0.1143404238600638 0  -0.1333636035092025 0.4315995463863632 0  -0.1194885248208681 0.03230850496765185 0  0.5377549809776254 0.06453400478681658 0  0.5792013375780735 0.3591063169474829 0  0.6913157546171392 0.7746785609439033 0  -0.7932202590060337 0.881129202666704 0  -0.6432263060769854 -0.4290061240412298 0  -0.1165866067316119 -0.3970480505230675 0  0.8721657657984293 0.4886593587130434 0  0.07599428351212617 0.09366691638539801 0  -0.664403101315821 0.8681258781915733 0  0.4546087719429072 0.3503599957387665 0  -0.0261882822162424 0.0357526420742716 0  -0.4090915728064888 -0.4399964466831049 0  -0.3617162288825735 -0.2685050713991574 0  0.323532484279697 0.4814643575368767 0  -0.1956145690174698 0.2011984879372684 0  0.7056038086639134 0.530806112647661 0  0.2617982562084117 0.3557200617673861 0  -0.3764160966822448 -0.8516688057507696 0  0.1092376428959716 0.6817404177684334 0  -0.2843563092151202 -0.611808222652778 0  -0.4412352248844203 -0.6199032008917342 0  0.2962277922418655 0.6920865493247852 0  -0.8747942387220821 -0.1746636498246899 0  -0.1799175002578373 0.8549017423402158 0  0.4547153178055469 0.1632039731567559 0  0.2802639216708308 0.04660470562349352 0  -0.1420597208114915 0.6571491355094925 0  -0.01121771192871747 0.7083557342054684 0  -0.05326345905385958 0.8749704230517134 0  0.00560451735380904 0.4694590950593284 0  -0.3872069208579332 0.1533170874834671 0  0.5491429175036278 0.13310683232377 0  -0.4755275028629999 0.6821757622571726 0  -0.8513651965089644 0.332652157593776 0  -0.09089542388749923 -0.5362214887908684 0  -0.02866218650312908 -0.552210444988812 0  -0.2135177934522794 -0.2874799299530077 0  0.8684992772998047 0.1515076351393639 0  -0.1680358218732002 -0.6608680865671605 0  -0.8891753420052811 -0.5283718039740318 0  -0.2812686462677896 0.3380091142475726 0  -0.6759153235667267 0.5739070530397336 0  -0.897419912678886 0.5312760835687065 0  -0.8983492002244553 0.6607882601345002 0  -0.6440461614805777 0.07237093823537732 0  -0.8589804470240288 0.02858466553259318 0  -0.8880198888649128 0.1678659919817841 0  -0.1297900635315479 0.22865260826543 0  0.1604018447907532 0.4458843769514931 0  -0.04349073524774811 -0.1257582255560108 0  -0.7531871205622664 0.6698627952836181 0  -0.6020889174875109 0.6977504551522993 0  -0.2539776240772494 0.07842204843169123 0  -0.2490068448901729 0.6485153765616194 0  -0.02736265900889591 -0.006371358190732694 0  -0.4941670451540491 0.8770156684274888 0  -0.4765071671341531 0.4903309992869914 0  -0.2899978011376875 0.1438732635849129 0  0.002318172878893246 0.0235738547465388 0  0.7794778794636283 0.6836251146050848 0  -0.4698263872246139 -0.8245871047528885 0  0.2719177110120731 0.1947588090056721 0  -0.1474087408571009 -0.8628612297695943 0  -0.06235231527856212 -0.8289378454846499 0  0.443373946183885 0.7058349048469368 0  -0.1172067749999992 -0.2882052730078113 0  -0.2645369977898289 -0.02613854932467757 0  -0.893774361998615 -0.8964885227656623 0  -0.5725461664442969 0.2370387065174655 0  -0.4757458199192831 0.08751556833498592 0  0.491175372642989 0.8257139683881389 0  -0.02835480658496627 -0.2600126033424592 0  -0.3099100090014174 0.8753738224544381 0  -0.1426969609431764 0.08038746511876638 0  -0.4689727213446155 -0.03482791942598407 0  -0.3875883907053874 0.01213455879842762 0  -0.2913208743380043 0.02753338516132395 0  -0.384644316603247 -0.1202776033535786 0  0.8881395759153483 0.6980549835559339 0  0.7925640136287946 0.9107040043749749 0  0.5766119488876559 0.2078218381149335 0  -0.5600421422473871 -0.4691937959403036 0  0.5988733435535187 0.7058952193339537 0  0.6781854283085874 0.8882973472062798 0  -0.05079612805607439 0.3028081684676194 0  -0.9021225748333326 0.9046083244065344 0  -0.1272881876157
[...]
<PointData  Scalars="w"> 
<DataArray  type="Float64"  Name="w"  format="ascii">1.7538305131540046e-10  1.0381228504539867e-11  4.4272482961750083e-10  2.5817834992460369e-09  6.2400677530552082e-10  1.5703348791737014e-12  8.6886019751114459e-12  7.4884670404804768e-11  4.0439716767253880e-11  2.1075274774812333e-11  1.0819724222656117e-10  9.6346910255729551e-11  4.0219318089943120e-10  2.7720799064294077e-10  9.1476369760953865e-12  5.2336526414999802e-10  9.1082693259046984e-11  7.2461460724847453e-11  1.3084138081092748e-10  3.5664614505998072e-10  6.7267597500404339e-11  1.0450577407875491e-10  5.7411239731454329e-10  2.9058097707477267e-06  5.8871772172774475e-10  1.0830562271622892e-10  8.8841487958228755e-11  1.7182734096252339e-10  7.6605283298026769e-11  1.8860186389550826e-11  4.6855676406854070e-10  9.7956296214368080e-11  2.4399073752235712e-10  1.8179678577196205e-10  4.5340293999946861e-10  2.2586953110033257e-10  7.8329985652689370e-11  4.7786376265471452e-10  5.8640138749272121e-10  3.1213147508663449e-11  5.2575748659741280e-11  1.0864116880386402e-10  9.2796145306419516e-11  1.9765433939316399e-11  1.0458951736629486e-09  8.7511483843310828e-11  3.1936193196131387e-11  9.6383665956142009e-11  1.2382055411660528e-12  5.8737625274154387e-10  2.2026411017525360e-10  2.1314996824375259e-10  8.2988439582491359e-11  2.5338319713107743e-10  2.6042500052900894e-10  2.0708583422282079e-10  3.5807542218785786e-10  8.9481226057822259e-11  5.7715324596459733e-10  2.5227478889285921e-10  3.1289825334941016e-11  3.1436739772621995e-10  3.7905386536027676e-10  1.4321405116790483e-10  5.4483484993571932e-11  1.7823037861569228e-10  7.0816237949683295e-11  1.7932653146985747e-10  2.3362117741216318e-10  4.6288508916207116e-11  6.5160512834692494e-11  4.0850872643159433e-10  5.6893457579620179e-11  8.8068340464244453e-11  1.8018589659777573e-10  1.7078678044059816e-10  2.5693019024561575e-10  2.9143578810073969e-10  1.8310749233618045e-10  1.9634120440636914e-10  6.5227746075994487e-11  2.5232896656455716e-10  2.6161259485118449e-10  2.0154663661410761e-10  2.3441205485195098e-10  1.2599806413875381e-10  4.6642666313975014e-11  1.1014617850973116e-10  9.4746494062175394e-11  2.5904632975456578e-10  6.9770741592908254e-11  9.9433927244265166e-11  7.8729003718719665e-11  9.4658751390426634e-11  3.8943250303972563e-10  2.0984622975076408e-10  2.5514443952958915e-11  6.5038468739511559e-10  2.5695942565963573e-10  3.1704680160726555e-11  2.7826785550122127e-10  4.1385602056901657e-10  7.1088822181957519e-11  9.7420717617469834e-11  1.5713783545935414e-10  6.3654541353530362e-11  2.7394866488006700e-10  8.3565034933934595e-11  1.4716018648038902e-10  6.6404753629316240e-11  3.1152417244299656e-10  2.4864107366081533e-10  2.3111266953032834e-10  6.4465218172980551e-10  1.2095498624852671e-09  1.4821488160223951e-10  1.6510630783391992e-10  1.0224969522823186e-10  4.5851434880253968e-10  2.5986261175563084e-11  2.5724810421643097e-11  2.7747049084326564e-10  9.1642008121630552e-11  6.1311164136003078e-11  5.0173937554977626e-10  5.7585189859753686e-11  5.9535090695078938e-10  1.1860058173954928e-10  7.6931394855214956e-11  8.2944507347126432e-11  3.4218136577823601e-10  1.7326033462772206e-10  4.6483366143321884e-10  1.3572374783715253e-10  6.1752866212431630e-10  4.4491477638722463e-10  1.0974448326580093e-10  5.2266683654579492e-11  1.3021472959600218e-10  2.6482267341088554e-10  7.1365073264604693e-08  6.0165061493242734e-10  9.3616308181427537e-11  1.2079556997703995e-10  6.8927838825517082e-11  6.5587274612725533e-10  8.6338466696108069e-11  3.2079953941955887e-10  1.4765462789873715e-10  1.2480118818549247e-10  2.0118509496023801e-11  2.8287246034228736e-10  1.5694467394948327e-09  5.6771985258311552e-11  9.5690522617481349e-10  7.9266362447340162e-11  2.4666450628157173e-11  2.4363271879086708e-11  1.2210241333827721e-10  5.5960144339781064e-10  4.4437553391812586e-10  1.6121201968640041e-10  1.1485586951090980e-10  1.6729751402717064e-10  1.8763164033490622e-10  5.8981856439661590e-11  7.7757013063952667e-11  2.0401789038046593e-11  6.0350865324443648e-11  2.9653951756007985e-10  9.2326622289750804e-11  1.0609370495900842e-10  8.2982126206382280e-11  9.6518237072062531e-11  5.3449074692025009e-11  9.6422868241789833e-11  4.5601535884749934e-10  5.7187941278550246e-11  1.6414255391256412e-10  1.7121151692292997e-10  4.6283522650530861e-10  1.9900609931526965e-10  2.8209223785571268e-10  1.4280318317715944e-10  1.4534641011879182e-10  1.5032907584451568e-10  2.1130362184673592e-11  2.8925036424348225e-10  6.4891817310157314e-10  2.5658461824075265e-11  2.5087866633831641e-10  8.9521151057798771e-11  1.5811749998064095e-10  1.1028231222242498e-09  1.3809640452020100e-10  1.6391359654593619e-10  2.3454882755585489e-10  2.8812865683061472e-10  1.0605374383044328e-10  2.0490680771920495e-10  4.2318664646999203e-10  2.1966391249134790e-10  2.4093736943544031e-10  1.1057256832006359e-10  1.1305806881408179e-10  1.1284095201899920e-10  7.2094707082491132e-11  2.0844157526354149e-10  8.8260562883840628e-10  7.7951578468666052e-11  1.0874081415695650e-10  7.8156831033142986e-11  9.7229208119723063e-11  1.6270552338119823e-10  3.7728490209484418e-10  7.9298594692689371e-11  8.5908196472329238e-11  7.8979574196699925e-10  1.2004118998710237e-09  2.9304815293334217e-10  1.9983533365259767e-10  7.9433626061199620e-11  8.1009047894763607e-11  3.3785881681417883e-10  5.8987561131964119e-11  8.3803375653273231e-11  5.0388613220867616e-11  9.3897723223045418e-11  4.1518543347803412e-10  9.0973429983024276e-11  1.9760300911070943e-10  1.6690902876643325e-10  9.0001296045196356e-10  6.2212865228939221e-11  1.9919617412191776e-10  1.1535849272191112e-10  1.1243078313869045e-10  7.4355447381668904e-10  7.5913633704873464e-11  8.5683834679418895e-11  1.1832138824880591e-10  1.1038358005740372e-09  4.1090543821314868e-11  7.8371150365585760e-11  2.7888459750240397e-10  2.6573642091883551e-10  3.6952887953580515e-10  1.8330156721519709e-10  2.0416860056674796e-10  4.0470487980834849e-10  2.9464900039075009e-11  1.0594029051759436e-10  1.2851460985343933e-10  3.7779281891256591e-11  2.6660976287175823e-10  4.4168436429499700e-11  3.3330525422987667e-10  1.3615714813557486e-10  1.1069390400665871e-10  1.9157892802965060e-10  5.0377871054302084e-10  7.3247822143152551e-11  2.7035263351489166e-11  1.4491564378533905e-10  8.2244690323423146e-11  5.9640677871195071e-11  7.6434123609378745e-11  1.7947645758345748e-10  4.9548430436132850e-11  2.6325963782219193e-10  2.5460272997925337e-10  1.2884066253669869e-10  1.2850685026273051e-10  1.3777420879266016e-11  7.1517555199046648e-11  1.4624411903271309e-10  1.6927760957093848e-10  4.9590828737005134e-10  3.6799591777569920e-11  8.2364979676501727e-11  3.3516062971551921e-11  2.3812794699582803e-10  1.2638616115006893e-10  1.8609034356155397e-10  7.5287799629863536e-11  8.8815881303287740e-11  1.2147158287239313e-10  2.0357319974606691e-10  2.2410670480209393e-10  2.6201170605106165e-10  4.3712057869357677e-10  2.1471812810323451e-10  2.0968599043579980e-10  1.4559654263734065e-10  8.1138215837627116e-11  1.7439675394113451e-10  1.7050684871778999e-10  6.2322509530641809e-10  1.2938624234171857e-10  6.2652496486875540e-11  4.0651271143890172e-10  1.8932524611351334e-10  2.0954525858147667e-10  1.3338720859304606e-10  3.2778221122406552e-11  4.5016469534180122e-11  9.9087995249177810e-11  6.7986724723008708e-10  2.9272532147036541e-10  1.8136161127509436e-10  1.3704188303624463e-10  3.3870530984073584e-10  6.7987407188782777e-11  1.1073597912744192e-10  3.5130769391448216e-10  1.9821059967839577e-08  9.8874967916654330e-11  2.8231129903506272e-10  6.1183055143719603e-10  1.2250390635500062e-09  1.9694933840277458e-10  1.5221131501682816e-09  4.1766205700712820e-10  2.2594668025949659e-10  1.1629089288783552e-10  4.2158722280979675e-11  6.5990571413955283e-11  1.2673054720372776e-10  1.5727811641566322e-10  6.3969863361546446e-11  9.8842860726103990e-11  1.0757435659167132e-10  1.2752828050065702e-10  1.9219353756382451e-10  4.9552784434905214e-10  3.1864001909167673e-10  1.6674879727595724e-10  9.6192604876402341e-11  6.1986298381353714e-11  5.9431993867215019e-11  7.1076173937518218e-11  1.8323562594655413e-10  2.2815130261454626e-10  1.0652174150564315e-10  1.0655762167397365e-10  2.3966719312976539e-10  1.3687899830283801e-10  6.9965285222460316e-11  5.9619022625478011e-11  1.0569601887559645e-10  3.4459655119305957e-11  1.8842277352008823e-10  3.3070830614052555e-11  1.6115421602159444e-10  1.7952416848315660e-10  1.5254166253817287e-10  3.9979436446306505e-10  7.9719266703413752e-11  8.3314606294208968e-11  1.4541025747907334e-10  3.0978656128080894e-10  1.4657588976060759e-10  2.6350239565736652e-10  1.1111910922569041e-10  1.3668687649113247e-10  1.5922144041433624e-10  2.8545160041192403e-10  1.2764259894735641e-10  3.3885958834450669e-11  1.1815883977141586e-10  1.1274661687969336e-10  1.4797595953046719e-10  2.5440607224157278e-10  1.7144793699808901e-10  3.5193297577982928e-11  1.2977014999563999e-10  2.3409024739994628e-10  2.9138443562691022e-11  3.3084975468744964e-10  1.6360519436127157e-10  3.8781139981210733e-10  1.1420494347711953e-10  2.3882607327852153e-10  3.2619813036085968e-10  7.5920272686397687e-11  1.0579383601345714e-10  2.1868232060716588e-10  7.3846089737108754e-11  4.8328276740911496e-10  1.5995379143622892e-10  9.8587273659625139e-11  1.0888181517960990e-10  2.1037855976256933e-10  5.4077000302499824e-10  4.7598228709477843e-10  1.8130955444193865e-10  1.7287695436625788e-10  2.0863577199783739e-10  4.0238504312948334e-10  4.5565850501969681e-11  2.2584239690062725e-10  8.1376236288366296e-11  1.2382216025190741e-09  1.1820434599536389e-10  4.6177203220398672e-11  5.4776761434371137e-10  3.3224458253905432e-10  2.4809497734254898e-10  2.1226857182212917e-10  6.4545657268912249e-11  1.5421342455674962e-10  3.3538149227214984e-11  4.3945293554594315e-10  8.2478905908479223e-11  1.3792353935775043e-10  1.2794900381809417e-10  6.6151099172881091e-11  3.4882008203440355e-10  4.3565787586676611e-11  1.1853341735612127e-10  2.4545765074787925e-10  1.7927698477556495e-10  7.1118678584330355e-10  9.2788503222407417e-11  5.7563684335632274e-10  1.4792575495657517e-10  3.5333809090285628e-10  5.4717151917508104e-10  2.4398921515048418e-10  1.5538353769321882e-10  2.7182151774974225e-10  4.7883909653934649e-10  3.5129588369299010e-10  7.5889707557812091e-11  4.9873215024104204e-11  1.6339165190195024e-10  3.5579321353191930e-10  1.8770185086367691e-10  1.2751297410361867e-10  1.7197540068833247e-10  8.1316354724597808e-11  7.1703351285040633e-11  1.9986783533909349e-10  5.8221427760442928e-11  2.0810759439669624e-10  9.0852206333895573e-11  4.7954785639601341e-10  4.9869938987269268e-10  8.2329017160822700e-11  4.2030730122193476e-11  3.9921952541427009e-10  6.4757388884445870e-10  2.5925828242746173e-10  9.8139841221550638e-10  2.8792698335736258e-10  3.1698285379893724e-10  2.7170433393932132e-10  2.6546637015562972e-10  9.8042376156213052e-11  3.1383834417652961e-11  1.9516780371692009e-10  1.0546818190552276e-10  2.1581169779923141e-10  7.5603576734662890e-11  1.2420643505648994e-10  2.0340101643087251e-09  1.7700607815251992e-10  8.1214247781988827e-11  8.2526987444955765e-11  3.9849178393647458e-10  2.4326390440848244e-10  1.9010196226849360e-10  2.0831749777534581e-10  4.4825542459461039e-11  7.5450268671882455e-10  2.4237890897746678e-10  4.5535398342787144e-10  2.5752716793667923e-10  2.4260813758387433e-10  3.1310804735780078e-10  9.4608022037151297e-11  3.3123276622895560e-11  3.6250162868903067e-11  3.6683616764528831e-10  3.6034398414517727e-11  1.1687189926807597e-10  1.0191372702137752e-09  7.5351518568475754e-11  3.5121432832139522e-10  2.6320769953513081e-10  6.2118119740838655e-11  5.9798492890519239e-11  1.7985894179284234e-10  2.4515683982355389e-10  4.8520513875922724e-11  1.1351086326178114e-10  1.6141246694749869e-10  7.6061548221083078e-11  1.7077259807376997e-10  2.1183031740188651e-09  3.6479452622622436e-10  3.1941897819545134e-10  1.0685320167417513e-10  1.0772782328581569e-10  1.8863344910039457e-10  8.0674608339119742e-11  1.3491349128620287e-10  4.9966126319459069e-10  8.7315811052287309e-11  2.4321854510423090e-10  2.1660042512530381e-10  1.3904547637947386e-10  5.1523057092985079e-11  7.8124389971184968e-11  5.5759186267313385e-11  5.3063018973497364e-09  1.0655420078336972e-10  2.2155798857202928e-11  5.7041982238164076e-10  3.0801189828493808e-11  6.2075248307913603e-10  1.1683663149857155e-11  1.1784132767098337e-10  1.7417965755224409e-10  2.5707951962298502e-10  1.0513715039698163e-10  2.8853582430541417e-11  8.5744200450348016e-11  2.7994369336978428e-11  2.0737487802673912e-10  3.7239820788268912e-10  2.7172168141923504e-10  3.2717976786086163e-10  1.3424864198049695e-10  9.4054674730879145e-11  6.3497989898261557e-11  3.6012735614579381e-10  5.0311064245655808e-10  1.0621761985957421e-10  1.0116264366571617e-10  1.4744363487463731e-10  7.6376388947612857e-11  4.5503886513975464e-11  5.4886781588997006e-11  3.2201888324921553e-11  8.8688313510123090e-12  1.7872854065296983e-11  9.9037529016402827e-11  2.2640435343692108e-12  1.1111536066981544e-11  1.8579194700951093e-10  3.4867249706513428e-09  2.2424600026006048e-10  4.2525599728960986e-11  2.2093287189801929e-10  9.3121786716231233e-11  1.1249264341706224e-10  4.3878399561599705e-11  1.7151323724259513e-11  8.8142439628699101e-11  7.2428949313105935e-10  7.9747286211703895e-11  1.8381973796487029e-10  3.2420937193499491e-10  4.8615923681445604e-10  9.6536885949162251e-11  1.0208628621506676e-10  5.8595724209553035e-11  7.7136951067040878e-11  1.1241957086095448e-10  5.7762162206421529e-11  6.1456923783744476e-10  5.9307745226555642e-11  2.7741354933246330e-10  8.8183698416359476e-11  1.2818296933357994e-10  3.1385960182577359e-10  4.1766410696025928e-11  6.3459826329800409e-11  2.8663322832414101e-10  1.2012096227537818e-11  1.1354057257401791e-10  8.8343447666117905e-11  7.7039873377236491e-11  5.6116588651586070e-10  1.6129878234224271e-09  2.9886068312639423e-10  2.8887413705111300e-10  9.1066522984991058e-11  6.9390652528737383e-11  2.5510919955165070e-10  1.1748655166572416e-10  9.9761744970526164e-11  1.0442517383578729e-10  1.9970716408771226e-10  7.4166894039298024e-11  5.2634938725941212e-11  7.0620842199610979e-11  3.9765962607597445e-11  8.6505928438055732e-11  1.9099887242077913e-10  1.6204181660512346e-10  1.1173054943227943e-10  2.7580194323175911e-10  4.7537297670968260e-11  1.3656047054608910e-10  5.2074811632947908e-10  6.7037869415896912e-11  1.1770350575908560e-10  1.3622534793376576e-09  5.8496937762057214e-11  3.3665215344482523e-10  5.0982768790860558e-10  1.5812868189745721e-10  1.2852049765325685e-10  1.2604423568130512e-10  8.9852980509332126e-11  2.4710054672605814e-10  2.8565447453593097e-10  1.7796994733226078e-10  4.6681195245781950e-10  4.2258759274440293e-10  1.2204042383110172e-10  2.1128629676822239e-10  6.6644994866494119e-11  8.5074891147207695e-11  6.2798381427725668e-11  2.3967693583584149e-10  4.0076259308594418e-10  3.0769202724294565e-10  3.2532770711735977e-10  8.6229960799915911e-11  2.2704748869360033e-10  4.7829675417732412e-10  1.7285961860883239e-10  4.8147558892432386e-10  1.8330246595694578e-10  1.3907649431723507e-10  1.1266113376492636e-10  5.1483440585696485e-11  5.4524889681371180e-11  3.3717908358239955e-10  6.3098160098068341e-11  6.4817622126904924e-11  1.2952766304518975e-10  3.2220399625963156e-10  3.1987131436038132e-10  1.5732127740248449e-10  1.1775366314685820e-10  5.8841106578724725e-10  6.2703565239766603e-10  1.5907628627503918e-09  2.6696696290633032e-10  1.9854961684693734e-10  4.4199625061706073e-10  4.5756041971273752e-10  1.1611214080403763e-09  2.9625995184630254e-10  2.4698934466648607e-10  3.3293032527351488e-11  1.2949201676940694e-10  3.2803823488252457e-10  4.5144683782700151e-10  2.1175152148637040e-10  6.6205793959568209e-10  3.0624320716204165e-10  2.1598549700658482e-11  4.9205845786166783e-10  3.3325544732401606e-10  3.8834605823151240e-11  3.3396934252520725e-10  4.1413006744817790e-10  5.4400849767405725e-10  1.4589259212762109e-10  6.7292087592770359e-10  1.9635022071569114e-10  4.7499112836857949e-11  1.2764503162479469e-10  1.3308718384054238e-10  3.1518720902383460e-10  7.9246020979809214e-11  2.6606100352456305e-10  1.9445374870544393e-10  8.2014382522669236e-12  2.6533963358856741e-10  5.8031394638387374e-11  9.0503770680111857e-11  1.2434906969548970e-10  6.3003789752812954e-10  4.1134518481825931e-10  3.0319463051415945e-10  1.1747762293555407e-10  1.3228528123914029e-10  8.9502036872616375e-10  5.3727486790952809e-10  1.3498243805070427e-10  1.4265056248884673e-10  9.4436166498282236e-11  4.9070837417245517e-10  1.3867305902591346e-10  1.7483874909722136e-10  9.5556157020900413e-11  7.0772016757706752e-11  6.3504884778004120e-11  1.4994342851948642e-10  9.8189941768259630e-11  1.3062437941837109e-10  4.4007942531246222e-10  7.6728306354762443e-11  5.9417631641344108e-10  1.2808610705118550e-10  2.2434561523356327e-10  2.8106685533477710e-10  5.4723950427064904e-10  1.1655530306765192e-10  4.1255423166318849e-11  6.3056392326528653e-11  1.4211145189706629e-10  1.5915373975800883e-10  5.1916244855603304e-10  8.4486124627667708e-11  1.6197138764804402e-10  2.5100752827517002e-10  1.3916625747071822e-10  2.3794026755899298e-10  3.3568008221140804e-10  3.1143654491270218e-10  1.0505661948265031e-10  1.7521879882712533e-10  1.5005241667928143e-10  2.2873647226968007e-10  5.1333121603005251e-10  3.7386994120070877e-10  2.0206328969338764e-10  2.0704799330107309e-10  1.2533286735003308e-10  1.7274441975203889e-10  2.9963732602240598e-10  3.8090947978014107e-10  3.6143997579628969e-10  1.6592803170096916e-10  2.2038770952712456e-10  1.9792180425553895e-10  1.5484615129346618e-10  3.9906264555311676e-10  3.1734453325459687e-11  1.0570017739766536e-10  1.2830373117117262e-10  6.6314014594576604e-06  4.0818693550582452e-10  1.7652787466799400e-10  6.1236347580958520e-11  2.5686629563270218e-10  1.3849391088994491e-10  6.4636410856312406e-11  1.0562355082519944e-10  2.0273807682024025e-10  2.0640091838304496e-10  1.9459810533769836e-10  1.8992449775950109e-10  3.0993671189464710e-10  6.5515653079733324e-11  8.0422295258704994e-11  1.9170929324217783e-10  1.2296689628631002e-10  3.5390666095092027e-11  4.0363875625823937e-10  6.5064569643024876e-11  6.1954896804559484e-11  1.9446138975154607e-10  9.9281455762763236e-11  2.3752043452505212e-10  2.9307324044982832e-10  1.9236837065505749e-10  7.9600913980438613e-11  1.8769974353492436e-10  9.6554177547843367e-11  3.2779665693902218e-11  9.0596919946512817e-11  5.8549974767880001e-11  7.8729984181992336e-11  2.2453803140326819e-10  4.7513333061855019e-11  6.6359833715862941e-11  9.4469042621011778e-11  9.3819268552938247e-11  9.4211689720136348e-11  2.4551654986978557e-10  8.7921092665519473e-11  1.8682144632814410e-10  2.0320582136389311e-10  9.9986414251927840e-11  1.6085370738803952e-10  3.1531647392724654e-10  1.2452424031043656e-10  6.1364473890779897e-10  1.7161842955476480e-10  1.4947730842820331e-10  1.3828466238294826e-10  2.2950873215329614e-10  4.4229605215092734e-11  3.9999736717652516e-11  7.7232905989120363e-11  4.3506514542124732e-10  1.9970011120402222e-10  6.4783908529915717e-10  4.4241318463356049e-10  1.2179761215671562e-10  5.4703596672213681e-10  3.6480289808487641e-10  1.8908635715079053e-10  7.1045788982554019e-11  9.4213244939169250e-11  1.7474689012530271e-10  1.8767946399100926e-10  4.1732662424863453e-11  4.9979698432568369e-10  2.8472663943664754e-10  3.2992843261918971e-10  5.3631179593943935e-11  3.5278661371033877e-10  2.6563207344647802e-10  5.7627525274690017e-10  7.3614592572577877e-11  6.1639558201023975e-11  2.3939383723612713e-10  7.2908534563797792e-11  4.2685812880636367e-11  1.4845793570377542e-10  2.4356499669491226e-11  6