<?xml version="1.0"?>
<VTKFile type="UnstructuredGrid"  version="0.1"  >
<UnstructuredGrid>
<Piece  NumberOfPoints="4852" NumberOfCells="9430">
<Points>
<DataArray  type="Float64"  NumberOfComponents="3"  format="ascii">-1 0 0  -1 -1 0  0 -1 0  0 0 0  1 0 0  1 1 0  -1 1 0  0 1 0  -0.5 1 0  -1 0.5 0  -1 -0.5 0  -0.5 -1 0  0 -0.1608775713298009 0  1 0.5 0  0.5 1 0  0.1967448868031411 0 0  -0.3414158065526454 -0.1759638969548226 0  -0.3380129262842904 0.2249850378583745 0  0.1735375299346948 0.3472237104835899 0  -0.1858641841967434 0.5558640249995138 0  -0.5036938421393891 -0.5379640955858973 0  0.4906160931415505 0.2577267695415548 0  -0.06537971938675274 0.2019163443965748 0  0 -0.5061325913258391 0  -0.25 -1 0  -0.5619127944143743 0.5778349570425449 0  0.6616562692590132 0.6340397591724432 0  -0.1764790441015914 -0.5382687547705011 0  -0.5398766950212874 0.02556036198522758 0  -1 0.25 0  -0.2071245865007339 0.02432031500610127 0  -0.6552418374771734 0.3097341558834593 0  -1 -0.25 0  0.03864781878581499 0.5926292822614587 0  0.1947370735122526 0.1296875064635056 0  -0.1368123162363581 -0.2200035051618924 0  0.3711174111243065 0.6150453616333251 0  0.9999999999999999 0.25 0  0.5355652144809806 0 0  -0.75 -1 0  -1 -0.75 0  -0.6453075531131246 -0.3235265900254901 0  0.25 1 0  -1 0.7500000000000001 0  0.02757118475249542 0 0  -0.25 1 0  -0.75 1 0  1 0.75 0  0.75 1 0  0 -0.02898318711980711 0  0.05332062089442839 0.1430336593274785 0  -0.07816363318120891 -0.02733991009126 0  -0.7015994578922619 -0.132657286195601 0  -0.3218657180965762 -0.3477958749069177 0  -0.3411767911376687 0.4381344055315481 0  -0.1004184874268666 0.764795504099718 0  -0.3837496175359447 0.7031077630195598 0  -0.05574455677251663 0.4000190130521373 0  -0.07951661002862644 0.07244948840819843 0  0.3589274057402232 0.3704086134420386 0  -0.7158250801597736 -0.7300823295152521 0  0.4119070145587584 0.09031714921990118 0  0.6900909977927576 0.1918535808159019 0  -0.7473620268544103 -0.5272766972355865 0  -0.387173990776525 -0.7110384812352322 0  0.7217562769120986 0.418894358705486 0  -0.7765253779355402 0.09705055232977089 0  0.1966288132569113 0.6992891673329196 0  -0.1998311930813871 0.2894449893955948 0  -0.7991734698960443 0.5776584244188935 0  -0.7169597472724032 0.766515451955431 0  -0.05141623240173365 -0.3734981769535879 0  0.584798512017481 0.8166419189059528 0  0.8203794195481806 0.8058361420235757 0  -0.1051561329978494 -0.6978164728740347 0  -0.5155667486991007 0.1631258884102132 0  -0.2029147311818629 0.1263291447797334 0  -0.3603581613661485 0.07576863367241489 0  -0.3661446187379301 -0.05221592690212983 0  -0.4975321090859628 0.3956282682779949 0  0.375 1 0  1 0.125 0  -0.01262976872120148 0.07140644619709191 0  0.06146972449418835 0.3929706282903485 0  -0.172101958949664 -0.1222369639097262 0  -0.2433908524902657 0.7741264460726462 0  -0.625 1 0  0.5335618445085726 0.4548068348201299 0  -0.5757691862995117 -0.8302293140887582 0  -0.2569027664586968 -0.7839939835461506 0  -0.3196182900196528 -0.5090292610783159 0  0.8340865882274821 0.5953066473058971 0  -0.5490039073471755 0.7910604439044893 0  0.125 1 0  -0.06795521393440933 -0.09322782403629071 0  -0.4952790016119972 -0.143446744136626 0  -0.875 -1 0  0.02885495673962402 0.04190028522875939 0  1 0.375 0  -0.875 1 0  0.05707286299910445 0.7944958066251943 0  -0.1962966481584136 -0.3740782892306714 0  -0.07355783804330736 0.5720271230188874 0  0.2362903664537422 0.5188158397039414 0  -0.7927623058940472 0.2295922479253807 0  -0.4953107334085768 -0.3896372072680407 0  -0.0008218399118977718 0.272209480226772 0  0.5100620085213885 0.6405669752344033 0  0.3989389821276996 0.8076275018220742 0  -0.8065081337171521 0.4246671660933863 0  -0.06461167491115273 -0.2206180810306431 0  -0.7102005402169795 -0.01421535982350247 0  0.09003348717592728 0.05310493789195074 0  -0.478641838824308 -0.2517123551487503 0  0.7238948548815515 0.08294103701389226 0  -0.808632304791829 -0.411370212269316 0  0.3374913268706131 0.1543072756328247 0  -0.7946933261412576 -0.2511456480638179 0  0.2360590830776192 0.2553603106351335 0  -1 -0.8750000000000001 0  -1 0.875 0  0.1840757448333195 0.04843054815958847 0  -0.2480204132185375 -0.2293561372303402 0  -1 0.375 0  -0.1718803726151574 -0.04133980325434933 0  -0.6494169605539385 0.4678738167805644 0  0 -0.07736776745332727 0  0.07969068137345016 0.2609917911351053 0  -0.375 1 0  -0.2179039557596921 0.4257649432420822 0  -0.1210516381537032 0.1509227898845484 0  0.1328926635379289 0.55515296151783 0  0.1313270698248453 0.1948144029153874 0  -0.4758188115958397 0.2701132352874164 0  -0.04635743000239896 0.01423370474906339 0  0.8515372232617083 0.3703233030529314 0  -1 -0.125 0  0.2856085666947324 0.8372142296531911 0  -0.1118199445767655 0.3141462801073793 0  -0.125 -1 0  0 -0.7575037395175259 0  0.07821397079968176 0 0  -0.9999999999999999 -0.375 0  -0.375 -1 0  -0.625 -1 0  0.7474787146812756 0 0  0.625 1 0  0 -0.2918843213980812 0  -1 0.625 0  -1 0.125 0  -1 -0.625 0  0.3284075310660084 0 0  0.004929205892015135 0 0  -0.125 1 0  0 -0.006571003003944568 0  1 0.625 0  1 0.8750000000000001 0  0.875 1 0  -0.562418535715087 -0.6767129997949053 0  -0.005675231775536009 0.1610047635349883 0  0.3623728754409675 0.2639797789276782 0  0.6531557854757286 0.2943365327595515 0  -0.8546057145068306 -0.646664952783526 0  -0.8635592354031323 0.7871807839352005 0  0.4305851114495766 0.502114973357571 0  -0.3988394722726468 0.8560979376153441 0  -0.7786157408801745 -0.8748286023826995 0  -0.870390319023128 -0.7843461483771217 0  0.1540878514268375 0.8426342238206236 0  -0.6593333334982708 0.1529732569491454 0  -0.5784336011824963 -0.0642499367180096 0  -0.8548683769959624 -0.06267547887003047 0  -0.29680739976636 0.563024177305291 0  -0.4244652801092383 0.5706147741985431 0  -0.3771669448230123 0.3318840370399735 0  -0.6188444790151383 -0.2167678071898491 0  -0.2737857430138971 -0.08991110515179673 0  -0.639908637551714 -0.588892013561787 0  0.8598144292857244 0.2660909532297614 0  -0.03306362537513031 -0.03273601806179646 0  -0.05560164866636454 0.1151501256968916 0  -0.1347104455275918 0.433176321416625 0  -0.1204564326809245 0.03295551498743187 0  0.5378030793054922 0.06481883117376123 0  0.5794037238476603 0.3599501932567687 0  0.6914636790187005 0.7748944126253284 0  -0.7935498351528952 0.8812444121177277 0  -0.6433578384079615 -0.4296796545360145 0  -0.1171579711141669 -0.3972921801850485 0  0.8722899520180472 0.4888060011953355 0  0.07516858249359769 0.09461642723483922 0  -0.6648253404554135 0.8683160963511417 0  0.4547561578892418 0.3514921180702485 0  -0.02656719546969816 0.03590588076530408 0  -0.409158624468681 -0.4408792234612281 0  -0.3623431059118731 -0.2692465802442445 0  0.3235055512445795 0.482755796126604 0  -0.1972461187214472 0.2024384756292623 0  0.7058356369247214 0.5311932795605734 0  0.2616193927295717 0.3572319283353124 0  -0.37625507421086 -0.8520931546003015 0  0.1088956779868311 0.6828856342467442 0  -0.2845112647717599 -0.6126062773117545 0  -0.4410355030401532 -0.6206000442235038 0  0.2962254264814597 0.6930122774265045 0  -0.8751108453672357 -0.1749898221086884 0  -0.1804083439191164 0.8553409408909209 0  0.4548254007472304 0.1640631682758799 0  0.2802337797324148 0.04706378575388121 0  -0.143022389915094 0.6583777663597362 0  -0.01184237246166912 0.7094824121584963 0  -0.05357236242396649 0.8754076206295845 0  0.004676580837362016 0.4710983136481346 0  -0.3889657056311466 0.1541422686414136 0  0.5492500418751758 0.1336475018656237 0  -0.4764970052876939 0.6829952318358595 0  -0.8518699385972192 0.3330538833681913 0  -0.0920037103092869 -0.536704734773047 0  -0.02741815152275213 -0.5524840335561988 0  -0.2140345897685418 -0.2880310279032987 0  0.8685352254983382 0.1515819631069353 0  -0.1692809797496163 -0.6616071511341405 0  -0.8892337830496938 -0.5286251672554048 0  -0.282912886740818 0.3393578352179675 0  -0.6768153344084357 0.5745929176671318 0  -0.8976645036435803 0.531624513035569 0  -0.8985362293849093 0.6611012677308603 0  -0.6452721750242081 0.07253837028921105 0  -0.8594841690424038 0.0285395345115083 0  -0.8884709407173842 0.1679696423230322 0  -0.1312854031798806 0.2300245686435458 0  0.1600036558308555 0.447439970637567 0  -0.04389187656956532 -0.1257472574240902 0  -0.7537927595066831 0.6703882090350541 0  -0.6029632977553205 0.698417111435274 0  -0.2556157090932987 0.07917940177786779 0  -0.2500995047241887 0.6496443990483138 0  -0.02753353863941194 -0.006186996679660816 0  -0.4947053070020674 0.87724929092991 0  -0.4777942525388279 0.4912999984673037 0  -0.2917550692852676 0.1448243518904822 0  0.001851322421074218 0.02351409369662906 0  0.7796567243696183 0.6837496703339719 0  -0.4696079337245311 -0.824989988577858 0  0.271775510791876 0.1960290544971185 0  -0.1480489331255294 -0.8635250280943061 0  -0.06475040855031231 -0.8299440581421743 0  0.443505761468424 0.7065288387824923 0  -0.117757143624362 -0.2884346044497359 0  -0.2660114748997047 -0.02583218902051828 0  -0.8937766413860134 -0.8964974223140486 0  -0.5739657163825401 0.2377397957644453 0  -0.4773802352238004 0.08797634885177565 0  0.4913360507277112 0.8261133201044596 0  -0.02846767623129544 -0.2604194178615601 0  -0.3104200853679824 0.8756772531486871 0  -0.1439473729925828 0.08121869291140812 0  -0.4703793395221606 -0.0348230956149207 0  -0.3892013918935996 0.0124069096652868 0  -0.2929427372762117 0.02802441457558042 0  -0.3858793114199047 -0.1205286931456054 0  0.8882507824542053 0.6980893179635536 0  0.7926828966245425 0.9107480711284172 0  0.5767708439690631 0.2084950800107963 0  -0.5601195506556511 -0.4699322091705018 0  0.5990648978799483 0.7063315234257133 0  0.6783019268824605 0.888421708198637 0  -0.05208212461954986 0.3044019488381912 0  -0.9022560496783468 0.904724845742171 0  -0.1282352910608717 -0.06675484428011708 0  -0.1696673556641956 -0.1826307407431454 0  -0.2532131268075116 -0.1437215852484566 0  0.03614713279615452 0.2026841807357929 0  0.901
[...]
<PointData  Scalars="w"> 
<DataArray  type="Float64"  Name="w"  format="ascii">1.7237450266028924e-10  1.0356607021557774e-11  4.4332923360944132e-10  2.2917712459795960e-09  6.2400881291495953e-10  1.5661955172149523e-12  8.6702078003422892e-12  7.4166154112172571e-11  4.0055772305594928e-11  2.0944295785222951e-11  1.0717936155202735e-10  9.5578423589480643e-11  4.0536998521196472e-10  2.7517346257042322e-10  9.1002232652671070e-12  5.3782995486541751e-10  9.0661584984860570e-11  7.1856124101717388e-11  1.3103678631319900e-10  3.5039332270987612e-10  6.6756973312318572e-11  1.0425184501954758e-10  5.7527904849435087e-10  3.0617629441753884e-09  5.7742352331010345e-10  1.0692849649101564e-10  8.8453024935614223e-11  1.7007140522765643e-10  7.6054003101777054e-11  1.8685553041591304e-11  4.6891661607293565e-10  9.6638358754209735e-11  2.4099017362003874e-10  1.7859797793734814e-10  4.6016277219610003e-10  2.2693933991052274e-10  7.7225150510190338e-11  4.7620034528303262e-10  5.8873526716197413e-10  3.1142155949429918e-11  5.2483089944504695e-11  1.0741430678366758e-10  9.1690239133086082e-11  1.9515501498306182e-11  1.0537207820474938e-09  8.7435863726073894e-11  3.1865715413593076e-11  9.6018866813245411e-11  1.2423298276882359e-12  5.9598005896713318e-10  2.2337892632881290e-10  2.1756068996582678e-10  8.1931788677171945e-11  2.5178230224146936e-10  2.5677735488757232e-10  2.0117626121023822e-10  3.5177980907528133e-10  8.8416577695508476e-11  5.9106929771270673e-10  2.5086224001819089e-10  3.1310961212180259e-11  3.1570154737708528e-10  3.7802979614979026e-10  1.4304733481976311e-10  5.3940551975045840e-11  1.7751756434752309e-10  6.9722429348736987e-11  1.7672732751179757e-10  2.3183776971251810e-10  4.5577652099767011e-11  6.4230065731668729e-11  4.4759515609697096e-10  5.6333834609039415e-11  8.7895273335440137e-11  1.7176790197634523e-10  1.6852123555679644e-10  2.5687661384613279e-10  2.8724823822378130e-10  1.8226388040401454e-10  1.9252890252106429e-10  6.4587144095074187e-11  2.5205928484558438e-10  2.7092029152474645e-10  1.9870483598736331e-10  2.3481493856359515e-10  1.2323276175164729e-10  4.5971866504156523e-11  1.0940805223098147e-10  9.4343647919094957e-11  2.5288937905718426e-10  6.8999710446092554e-11  9.8755751700302777e-11  7.7395142563915919e-11  9.3249479960291671e-11  3.9364386524828813e-10  2.0801370531417488e-10  2.5508753926262751e-11  6.7360347362908514e-10  2.5553455389625188e-10  3.1424292135576049e-11  2.7268901179652395e-10  4.1249385640538927e-10  7.0861703844229408e-11  9.6553940495752442e-11  1.5493668388564224e-10  6.3682929705808076e-11  2.7380727850702584e-10  8.2526344728443625e-11  1.4532655166936723e-10  6.5347706496247214e-11  3.1441671165254511e-10  2.4382236389395522e-10  2.3771269461849785e-10  6.3965074895612101e-10  1.2107097125244516e-09  1.4834069010107858e-10  1.6683978699433506e-10  1.0169543296853942e-10  4.6132827635246705e-10  2.5967307091863834e-11  2.5567583803647317e-11  2.8386095927465667e-10  9.1933021344525396e-11  6.0485399817732455e-11  5.0453206753057205e-10  5.6701322144396444e-11  6.0923986909163305e-10  1.1862791658741052e-10  7.6264128027938757e-11  8.2011833476520037e-11  3.4357907962637229e-10  1.7063410567847251e-10  4.6723357001280696e-10  1.3349252711370511e-10  6.3809065951257024e-10  4.4104200372727230e-10  1.0799167338955357e-10  5.1678144081720104e-11  1.2965284954548911e-10  2.5613179744583716e-10  3.6092349849486165e-10  6.1688683365152509e-10  9.2106466418648459e-11  1.1982645957707203e-10  6.8687498905274580e-11  6.5667387243897227e-10  8.5637796880269228e-11  3.4164386264490825e-10  1.4597395059722038e-10  1.2257690988379968e-10  2.0016882506245901e-11  2.8474089302842912e-10  1.5508531612330373e-09  5.6472059995667609e-11  9.7910445068688109e-10  7.8759509467011920e-11  2.4500689603669144e-11  2.4275551970338050e-11  1.2130323869760756e-10  5.6727209616647363e-10  4.4635292706425038e-10  1.6120009426690496e-10  1.1464642622897106e-10  1.6559905833651960e-10  1.8695214092195256e-10  5.7964151759956948e-11  7.7793108632788472e-11  2.0404680968447318e-11  5.9394852231807929e-11  2.9053278848504270e-10  9.1807508465667090e-11  1.0495916812167826e-10  8.2115971105133548e-11  9.5121555513819344e-11  5.2947883776864710e-11  9.5226325655140728e-11  4.5567910081523364e-10  5.6844020985485748e-11  1.6388145540468480e-10  1.7383122007389831e-10  4.6750279581732613e-10  1.9619526871251597e-10  2.8498337845180942e-10  1.4359182368625532e-10  1.4465397505800551e-10  1.4938326345323248e-10  2.0998198193957157e-11  2.8533574213748456e-10  6.5655316091178132e-10  2.5457316691190201e-11  2.5619210209875679e-10  8.8411502182109547e-11  1.5777654428319978e-10  1.1514601248506380e-09  1.3665179861743592e-10  1.6437104366245890e-10  2.3275038807592705e-10  2.8637057819972842e-10  1.0559895295733276e-10  2.0461045318458039e-10  4.1916496856976966e-10  2.1707579869612140e-10  2.3867109615205702e-10  1.0947414889588383e-10  1.1192272051202296e-10  1.1184644093873106e-10  7.0335633088463612e-11  2.0881566042529177e-10  8.9367140779144209e-10  7.7156892301526757e-11  1.0703994670796822e-10  7.7462768679769252e-11  9.6257994384630084e-11  1.6147400509991519e-10  3.7815229494999788e-10  7.8693951246121751e-11  8.3800555824048675e-11  8.1186182205190957e-10  1.4800319815652013e-09  2.9200746195296015e-10  1.9986773304414247e-10  7.6765609535191700e-11  8.0536166559648984e-11  3.3289690800716960e-10  5.8073021968346065e-11  8.2596364118515490e-11  4.9948887189138392e-11  9.2540376298898065e-11  4.0824134847537393e-10  8.9560546453066006e-11  1.9689209149504449e-10  1.6488282596020754e-10  9.1359059797806011e-10  6.1366831568133071e-11  1.9634398260753800e-10  1.1546797350167582e-10  1.1076765909070309e-10  7.5575944739562268e-10  7.4343093409630509e-11  8.4339469843472387e-11  1.1754219700034559e-10  1.1648705666576981e-09  4.0881190401028283e-11  7.7801162508394476e-11  2.8157286246941466e-10  2.5200769343007314e-10  3.4479553482277144e-10  1.8082557236267226e-10  2.0407095543256641e-10  4.0364166790007004e-10  2.9492954914767089e-11  1.0458319985978747e-10  1.2703384696769056e-10  3.7425299976907135e-11  2.7485024471838987e-10  4.3443668159539183e-11  3.3689219002423623e-10  1.3540339385799421e-10  1.0996729987789536e-10  1.9198745171471508e-10  5.0051749376563761e-10  7.2967970407190590e-11  2.6951914168073259e-11  1.4498140406603146e-10  8.1875375610210729e-11  5.9212948348243235e-11  7.5882010667914428e-11  1.7877465858561392e-10  4.9018498149434237e-11  2.6590129299246177e-10  2.5512558315981969e-10  1.2964051019014233e-10  1.3047916687405931e-10  1.3742071936974162e-11  7.1543236930140468e-11  1.4899405469887647e-10  1.6630946161036904e-10  5.0846016070027013e-10  3.6721675229633695e-11  8.1984401855176500e-11  3.3483748845850178e-11  2.4222027490290864e-10  1.2452003936244064e-10  1.8293007263818013e-10  7.5298705799907159e-11  8.6544931320603433e-11  1.2103999028410434e-10  2.0065028492482027e-10  2.2506724002941453e-10  2.6090489334354977e-10  4.4294158183251507e-10  2.1263702311986987e-10  2.1184633311396002e-10  1.4376048252641279e-10  7.9960795031117760e-11  1.7233993067298132e-10  1.6608297788431929e-10  6.3730208091870414e-10  1.2934106372013635e-10  6.2196485241282971e-11  4.0888170282512502e-10  1.9345625363991475e-10  2.0573289070203268e-10  1.2554643204341173e-10  3.2696141805056158e-11  4.4656212546631886e-11  9.7836673667291635e-11  6.9083129407219293e-10  2.9798045713398794e-10  1.7967158302529105e-10  1.3461938858066870e-10  3.3528123582185499e-10  6.7341046213228505e-11  1.0982009036635470e-10  3.5603842554045071e-10  1.3798299763057240e-09  9.8645777220307512e-11  2.8633959134848783e-10  6.2593333561788117e-10  1.2468825269705679e-09  2.0216443613592620e-10  1.5548499353846914e-09  4.2205971942704304e-10  2.2626955785618126e-10  1.1679726178721217e-10  4.1327454631134424e-11  6.5229129008563593e-11  1.2630435154472436e-10  1.5574594893117835e-10  6.3082576968635688e-11  9.9640763905848473e-11  1.0714698715352336e-10  1.2690779293955206e-10  1.9562241663261524e-10  5.0770303685236944e-10  3.2022983223485803e-10  1.6544638057200895e-10  9.5312684143062506e-11  6.1504509502675661e-11  5.9237874314339432e-11  7.0364418552411176e-11  1.8006161258510194e-10  2.2551737328895848e-10  1.0463305683455458e-10  1.0375619597136537e-10  2.3625023981832831e-10  1.3605336395596340e-10  6.9382235221836723e-11  5.8943739339619317e-11  1.0517246454052123e-10  3.3991745027629431e-11  1.8380576692338912e-10  3.2829698968338065e-11  1.6097594625066465e-10  1.8023402525000531e-10  1.5165734010897074e-10  3.9916715755709876e-10  7.9068896113879209e-11  8.2351291621993467e-11  1.4344472072934651e-10  3.0601874410411598e-10  1.4449843103709884e-10  2.6312852228696903e-10  1.1012206835339504e-10  1.3398947810777956e-10  1.5445271026472504e-10  2.7850650085973991e-10  1.2867416558850284e-10  3.3524387655029280e-11  1.1633686552232982e-10  1.1154725589538493e-10  1.4613985448113323e-10  2.5033867470376220e-10  1.6986628414334754e-10  3.4727712568222639e-11  1.2819756902257130e-10  2.3207347270987781e-10  2.9183091572095757e-11  3.2885947915465047e-10  1.6529431322725759e-10  3.9943841287006295e-10  1.1287598805367030e-10  2.3489247244133238e-10  3.2259705341401861e-10  7.4892347252412901e-11  1.0533251413599607e-10  2.1711434480557307e-10  7.3432698692567843e-11  4.8508484888516489e-10  1.6078618650191159e-10  9.7053429280729589e-11  1.0763669698849052e-10  2.0868158848264901e-10  5.4484136418815556e-10  4.8624197232253896e-10  1.8045294288250846e-10  1.7030797954861266e-10  2.0560831103096413e-10  3.9597249382640977e-10  4.5338299200366586e-11  2.2387003238690069e-10  8.1601639252673476e-11  1.2629954594940115e-09  1.1761480640109930e-10  4.5716255354034751e-11  5.6334721755264052e-10  3.3358800503378044e-10  2.4645570201505888e-10  2.0782061869708050e-10  6.3513514114856815e-11  1.5183156655428031e-10  3.3146603825098095e-11  4.3607859542892050e-10  8.1373444797030186e-11  1.3559989354271231e-10  1.2612152407620957e-10  6.5443792686794479e-11  3.4613220581098149e-10  4.2799389686307360e-11  1.1648727056325206e-10  2.4473286732761054e-10  1.7856596715802147e-10  7.2155629533755667e-10  9.2208244014255842e-11  5.7732647146324890e-10  1.4720718878232044e-10  3.5876181403975790e-10  5.3781849336765576e-10  2.4508397593268969e-10  1.5412650577921846e-10  2.7550305205915795e-10  4.8829204966165129e-10  3.4220062500075978e-10  7.4875371752834499e-11  4.9199013739008627e-11  1.6453425583455429e-10  3.6262152112445897e-10  1.8363929460425049e-10  1.2675387535504685e-10  1.6904700483857692e-10  8.1170426951713251e-11  7.0708537923546026e-11  1.9818868350894330e-10  5.7454099429438803e-11  2.0497382668215436e-10  9.0152572637590149e-11  4.8177613998563739e-10  4.8842139744607374e-10  8.1400923142294744e-11  4.1538586146313960e-11  3.9591282878943123e-10  6.5227087875843318e-10  2.5789346190388985e-10  1.0099973931155135e-09  2.8872239525253589e-10  3.1667459808045017e-10  2.7951375560179031e-10  2.7026813413536078e-10  9.6790941928825151e-11  3.1365472089677339e-11  1.9221042963473806e-10  1.0419979360949378e-10  2.1244528167739080e-10  7.5437310495975503e-11  1.2219131282763830e-10  2.0574581758330742e-09  1.7685315256666967e-10  8.0798935613694222e-11  8.2155100465074124e-11  4.0842551377589381e-10  2.4262136327187098e-10  1.8907137465017275e-10  2.0755994257460803e-10  4.4407741085249789e-11  7.7154765630745634e-10  2.4066782952462913e-10  5.3127835792894280e-10  2.4803469844408621e-10  2.3934489223570933e-10  3.1055665801095614e-10  9.4698364546616231e-11  3.3115037526954280e-11  3.6178207352822255e-11  3.7405983961541319e-10  3.5714102326803752e-11  1.1541980223672738e-10  1.0264842217312972e-09  7.4992318603603359e-11  3.4873880321758504e-10  2.6183112267668609e-10  6.1849717049854405e-11  5.9802768307677969e-11  1.8181680241812261e-10  2.4552704751105724e-10  4.8310790269554409e-11  1.1268422015200192e-10  1.5965748062887216e-10  7.6135900371125031e-11  1.6857507183608255e-10  2.1589162554259701e-09  3.5330386962449938e-10  3.1994506433636122e-10  1.0765445533537196e-10  1.0733900590524927e-10  1.8580993080071024e-10  8.0072676695624368e-11  1.3351293797497281e-10  4.9398605469872745e-10  8.6091310668839002e-11  2.3815343963130830e-10  2.1267076680458803e-10  1.3993349426378049e-10  5.1349082524394228e-11  7.7175331020276198e-11  5.5016788588322254e-11  4.4070775832588738e-10  1.0509909270221491e-10  2.2109778202975840e-11  5.7171834874449736e-10  3.0620982797729769e-11  6.2112044215385560e-10  1.1700527520304835e-11  1.4481845645760185e-09  1.7514594110189199e-10  2.4984830469943877e-10  1.0359634360596801e-10  2.8685646130454387e-11  8.4384629289843932e-11  2.7728533054547386e-11  2.0589926060509029e-10  3.7235455954754436e-10  2.7118066171878374e-10  3.1774246220245981e-10  1.3233553191543695e-10  9.2998150461638210e-11  6.3056639362174121e-11  3.6734494010979244e-10  5.0122863463916950e-10  1.0525488911427941e-10  9.9846717074100462e-11  1.4524486372384479e-10  7.6404507608719563e-11  4.5241236970185167e-11  5.4195705150580611e-11  3.1857666091531920e-11  8.8627925690205403e-12  1.7819848111706314e-11  9.8654847509800669e-11  2.2454396583858120e-12  1.1030894297660386e-11  1.8812415381067270e-10  3.4806907313006415e-09  2.2067567398947873e-10  4.2432998891257669e-11  2.1935529011130420e-10  9.2081510566187254e-11  1.1211621143078689e-10  4.3886252663599337e-11  1.6992371900018734e-11  8.7254107448146095e-11  7.6331631074015409e-10  7.9758320987380686e-11  1.8430426486591904e-10  3.2449085960275017e-10  4.8407093934866539e-10  9.6459793782476928e-11  1.0205094929554349e-10  5.8155589817783404e-11  7.6622252581933630e-11  1.1106580221872215e-10  5.6873556914548131e-11  6.1037045241801134e-10  5.9295275415012305e-11  2.8114158355635068e-10  8.7489444737556241e-11  1.2775590212639248e-10  3.0685491879189121e-10  4.1339486497934253e-11  6.2234981048654131e-11  2.8104205136026690e-10  1.1838893378888390e-11  1.1258466282572403e-10  8.7983572702298645e-11  7.6411638219734067e-11  5.6337941390399112e-10  1.6185268610977711e-09  2.9734203021732720e-10  2.9165739550396577e-10  9.0267007565554228e-11  6.8947758462749459e-11  2.5131037375341803e-10  1.1728295096395567e-10  9.8969097007696047e-11  1.0384311406736717e-10  1.9584747210026534e-10  7.3336639073978233e-11  5.2691972810196083e-11  7.0570527891710364e-11  3.9739164222737837e-11  8.6470133886313214e-11  1.9266802970500874e-10  1.6222193577342165e-10  1.1197918327369279e-10  2.7628031081471886e-10  4.6738172212578538e-11  1.3581010034884954e-10  5.2813207382708328e-10  6.6070104171149827e-11  1.1702036735146562e-10  1.3573168075791816e-09  5.7719806870981855e-11  3.4063992366094178e-10  5.1715082464541277e-10  1.5783423470831108e-10  1.2790173996621442e-10  1.2540533166140928e-10  9.0034226803232772e-11  2.5566022772195795e-10  2.8780926522750413e-10  1.7720249496247378e-10  4.7247018617157439e-10  4.2566804332496595e-10  1.2005051951027439e-10  2.0803484757744232e-10  6.6354686134616678e-11  8.4113104465229036e-11  6.2342786305395955e-11  2.3715622913200138e-10  4.0107873659172548e-10  3.0818925241738950e-10  3.2386889490355739e-10  8.5201119636907623e-11  2.3093053814069808e-10  4.8321831580693935e-10  1.7049110654506095e-10  4.7223829635536973e-10  1.8158174435604522e-10  1.3862536366299171e-10  1.1139855728139749e-10  5.1006388674947924e-11  5.4114035416534841e-11  3.2967880119384979e-10  6.2160279329900290e-11  6.4512943727920456e-11  1.2921286991737696e-10  3.1883553942753259e-10  3.1786447102714851e-10  1.5709120719227529e-10  1.1758764325259255e-10  6.0844394660148341e-10  6.3420716892923872e-10  1.6568628342958930e-09  2.7357740214281251e-10  2.0209080429383148e-10  4.4990276867649985e-10  4.5329242564139915e-10  1.2016985827667254e-09  3.0009918299388504e-10  2.4515939119537357e-10  3.2769174122710391e-11  1.2749434047123752e-10  3.2330274872218944e-10  5.0711558178858220e-10  2.1525114640848658e-10  6.6309055830452050e-10  3.0098257568878763e-10  2.1415522999666775e-11  4.8388997067456718e-10  3.3582836768924288e-10  3.8573467858103474e-11  3.3414382553538782e-10  4.1362345468973458e-10  5.4325605761026484e-10  1.4497229639746850e-10  6.6744696857850485e-10  1.9344251520052817e-10  4.6945586386107135e-11  1.2654825592366164e-10  1.3136058927032104e-10  3.1572118354922139e-10  7.8066135342245610e-11  2.6097536803503785e-10  1.9400788900432042e-10  8.0999861690155041e-12  2.3674301265242507e-10  5.7831830870097617e-11  8.9715692835122706e-11  1.2352795311858584e-10  6.4294543175752600e-10  4.1710695649078285e-10  3.0876024623899055e-10  1.1661715110990113e-10  1.3110667339816671e-10  9.3671983823491730e-10  5.6051409904414454e-10  1.3390092054363105e-10  1.4241252410947974e-10  9.3416596683998930e-11  4.8604189162728269e-10  1.3656743584196959e-10  1.7226142838917791e-10  9.3911418807458061e-11  7.0402466451857955e-11  6.3249838140097498e-11  1.4841479555671632e-10  9.7144412770194642e-11  1.2811445867975424e-10  4.2470992072881600e-10  7.5801685633659094e-11  6.0553823545347112e-10  1.2552607174692917e-10  2.2353772429060557e-10  2.7739254766239684e-10  5.6424263429892117e-10  1.1532429919701298e-10  4.0640969734082874e-11  6.2322402044451964e-11  1.4147891999285557e-10  1.5821657988807860e-10  5.0987612898778676e-10  8.3870149938515975e-11  1.5910019397433749e-10  2.4928584089000829e-10  1.3709034760095169e-10  2.3510856979260583e-10  3.3043150484980892e-10  3.1287425285989522e-10  1.0321179136474356e-10  1.7403941726284444e-10  1.4842193509557346e-10  2.2658387120548560e-10  5.0042549709449099e-10  3.7595031370136447e-10  2.0240854730964110e-10  2.0152192140183349e-10  1.2335472886182721e-10  1.7179162189413986e-10  3.0360747668256712e-10  3.8222698297479023e-10  3.6364618357336175e-10  1.6548248094113401e-10  2.1946127403493991e-10  1.9467307983346820e-10  1.5179517802097870e-10  3.9778381722332865e-10  3.1458189914863369e-11  1.0506461017074754e-10  1.2729100718351374e-10  1.5756610935511890e-07  4.0489939312678205e-10  1.7537576249770813e-10  6.0756410115265590e-11  2.5812160004378471e-10  1.3712789623052060e-10  6.3707052907500390e-11  1.0453106108182677e-10  2.0341483812120759e-10  2.0409937348989766e-10  1.9218940302813674e-10  1.8711945817118752e-10  3.0564983651798185e-10  6.4216987031403845e-11  7.9630173589290891e-11  1.8933449962210630e-10  1.2228565546237766e-10  3.5393947165526470e-11  3.9776038531800890e-10  6.3968501163075770e-11  6.1585599288475080e-11  1.9380874112028270e-10  9.7918224965028289e-11  2.3672153228742905e-10  2.9164416480937823e-10  3.4746712287453559e-10  7.7955785930458039e-11  1.8510966840743421e-10  9.5661987999576852e-11  3.2685516091049336e-11  9.0450750402804558e-11  5.8111435560250619e-11  7.9052983434981065e-11  2.2919330586851416e-10  4.6882289727867635e-11  6.6061048429927640e-11  9.4267598938637705e-11  9.2791015348375886e-11  9.3180337368723218e-11  2.5544805098870343e-10  8.7484697458210039e-11  1.8426180554995260e-10  2.0246846644183540e-10  9.9525496811295800e-11  1.6116181965147909e-10  3.1510198355493840e-10  1.2293275366372997e-10  6.2861965815038153e-10  1.6904290053510873e-10  1.4800976006981901e-10  1.3942359291873899e-10  2.2462833505068547e-10  4.4060897156645269e-11  3.9862146288201238e-11  7.6224798338519582e-11  4.3365091062990995e-10  2.0197805091389459e-10  6.3484815688475159e-10  4.4502441733938889e-10  1.2013986709149374e-10  5.5103873622418454e-10  3.6416069229448247e-10  1.8687491198262966e-10  6.9930510244924711e-11  9.2652993722579980e-11  1.7446140668051082e-10  1.8813551777102167e-10  4.1373604285414251e-11  4.8007606168559421e-10  2.7749019229903380e-10  3.0198991696680388e-10  5.3493098340370585e-11  3.4856436452317953e-10  2.6593661678553856e-10  5.9482810043094488e-10  7.2791667303340263e-11  6.1101379010958245e-11  2.3946865137700259e-10  7.1988273592227979e-11  4.2210422709411199e-11  1.4571058695451558e-10  2.4193563064580942e-11  6