<?xml version="1.0"?>
<VTKFile type="UnstructuredGrid"  version="0.1"  >
<UnstructuredGrid>
<Piece  NumberOfPoints="4852" NumberOfCells="9430">
<Points>
<DataArray  type="Float64"  NumberOfComponents="3"  format="ascii">-1 0 0  -1 -1 0  0 -1 0  0 0 0  0.9999999999999999 0 0  1 1 0  -1 1 0  0 1 0  -0.5 1 0  -1 0.5 0  -1 -0.5 0  -0.5 -1 0  0 -0.1608775713298009 0  1 0.5 0  0.5 1 0  0.1967448868031411 0 0  -0.3410281828337934 -0.1758414474825975 0  -0.3371742580521527 0.2244330353540835 0  0.1737882499910905 0.3466450420419526 0  -0.1853056972370896 0.5552382273689127 0  -0.5039519670405367 -0.5374841787713921 0  0.4905666676757608 0.2573642294253639 0  -0.06471413120539296 0.2014766548260322 0  0 -0.5061325913258391 0  -0.25 -1 0  -0.561335013121071 0.5774457720033651 0  0.6614870444091507 0.6338658780005426 0  -0.1772218313872196 -0.5377966635248783 0  -0.5392187399105302 0.02545865166235469 0  -1 0.25 0  -0.2065903801860634 0.02391476187485137 0  -0.6546543871219844 0.3093521645875233 0  -1 -0.25 0  0.03887093099859776 0.5920459578989965 0  0.195190802928645 0.1292081201273683 0  -0.1367306254189419 -0.219982244163448 0  0.3709330313989269 0.6147009735862143 0  1 0.25 0  0.5355652144809806 0 0  -0.75 -1 0  -1 -0.75 0  -0.6451738631248906 -0.3230941238001279 0  0.25 0.9999999999999999 0  -1 0.75 0  0.02757118475249542 0 0  -0.25 1 0  -0.75 0.9999999999999999 0  1 0.75 0  0.75 1 0  0 -0.02898318711980711 0  0.05412217827721648 0.1427054723026575 0  -0.07795121064992729 -0.02778122068395241 0  -0.7012614532602112 -0.1324399763532413 0  -0.3220133607050868 -0.3473527700788024 0  -0.3404448939221611 0.4375138798449453 0  -0.10016477919057 0.7644116823115125 0  -0.3832968636209779 0.7026591953333671 0  -0.05519529310054409 0.3993375217874406 0  -0.07923760199853992 0.07222416876703569 0  0.3588896031285838 0.3699109781397801 0  -0.7159007434299586 -0.729899523650225 0  0.4119471496538398 0.09006749573261445 0  0.6900314304750861 0.1916820122242416 0  -0.7473680772993443 -0.5269798838494892 0  -0.3878651862894989 -0.7106375928966822 0  0.7216513064476749 0.4186171950039262 0  -0.7761202574188235 0.09695216817035877 0  0.1965332527854793 0.6988888556607789 0  -0.1990677257808124 0.2887909624332558 0  -0.7988923561939949 0.5773841205823295 0  -0.7166216018523434 0.7663020525928192 0  -0.05381763512874136 -0.3735062038607584 0  0.5846804554226805 0.8164626852046968 0  0.8203177284133302 0.8058244010264181 0  -0.1052037609608647 -0.6973738559977924 0  -0.5148257165359554 0.1627373143683009 0  -0.2022563228454162 0.1258704741933172 0  -0.3595880539395422 0.07543501619329618 0  -0.3655155608870849 -0.05234807622631744 0  -0.4968163970168372 0.3951139420430844 0  0.375 1 0  1 0.125 0  -0.01203360946337322 0.07152507742651666 0  0.06185296107678893 0.3923231046365638 0  -0.1717108830607888 -0.1224810929678805 0  -0.2430004175140118 0.7737697778043754 0  -0.625 0.9999999999999999 0  0.5333749085478436 0.4544262332658289 0  -0.5759830794267115 -0.830059662596186 0  -0.2578996690735127 -0.7836912186847098 0  -0.3202430769185342 -0.5084662135731316 0  0.8339865655453235 0.595229083752716 0  -0.5487108921764673 0.7907585425828226 0  0.125 0.9999999999999999 0  -0.0676227301323859 -0.0935025250202759 0  -0.4947939090164756 -0.1432818319357297 0  -0.875 -0.9999999999999999 0  0.02955084744266404 0.0417982036588686 0  1 0.375 0  -0.875 1 0  0.05712937999492344 0.7941446038568138 0  -0.1967786250909381 -0.3736832209177552 0  -0.07313195668559756 0.5714055192464417 0  0.2362553967448545 0.5183109037528094 0  -0.7923910182313197 0.2294125259422224 0  -0.4953339809493759 -0.3891210193593499 0  -0.0001949564907297806 0.2716560540880325 0  0.5098328997082023 0.6403195123252799 0  0.3987815893025008 0.8074399518714913 0  -0.8062057609721919 0.4243975991079717 0  -0.06463971262577058 -0.2205527834808437 0  -0.7097759508844468 -0.01417791583885136 0  0.09058327034782616 0.05269596856353777 0  -0.4783780323897631 -0.251338196815458 0  0.7238757064257023 0.08288367355180844 0  -0.8085741597991035 -0.4110680834674579 0  0.3376415770467492 0.1538949610224299 0  -0.7945523786735875 -0.2508290985578773 0  0.2363266273360631 0.2548325118459276 0  -1 -0.8750000000000001 0  -1 0.875 0  0.1843922094777679 0.04808089868699224 0  -0.2478585726145265 -0.2292165376247483 0  -1 0.375 0  -0.171448407812469 -0.041748060344381 0  -0.6488841516920298 0.4674939506489122 0  0 -0.07736776745332727 0  0.0802314147551132 0.2604463568249233 0  -0.375 0.9999999999999999 0  -0.2171724125169487 0.4250811169070784 0  -0.12045467248943 0.1505175270481215 0  0.1329618640668166 0.5546090878451351 0  0.1319001206547732 0.1943001812728641 0  -0.4750400915550011 0.2696260326805526 0  -0.0463875942437543 0.014025010306828 0  0.8514799005329499 0.3701765975545863 0  -1 -0.125 0  0.285514718627179 0.8369878589980945 0  -0.1111323106461338 0.3134920993165076 0  -0.125 -1 0  0 -0.7575037395175259 0  0.07821397079968176 0 0  -1 -0.375 0  -0.375 -1 0  -0.625 -1 0  0.7474787146812757 0 0  0.625 1 0  0 -0.2918843213980812 0  -1 0.625 0  -1 0.125 0  -1 -0.625 0  0.3284075310660084 0 0  0.004929205892015135 0 0  -0.125 0.9999999999999999 0  0 -0.006571003003944568 0  1 0.625 0  1 0.875 0  0.8750000000000001 1 0  -0.5626714511909978 -0.6763915947567174 0  -0.004940717033475435 0.1607239924508481 0  0.3624268085384032 0.2635346899180454 0  0.6530550065244315 0.2940777162548973 0  -0.8546543300981093 -0.6465365952571737 0  -0.8633082541641129 0.7869427953968872 0  0.4304054622726919 0.5017153459063898 0  -0.3986402201947378 0.8558518806941298 0  -0.7786367647353873 -0.8747918212812 0  -0.8704423642973017 -0.7842841254928908 0  0.1540182109121948 0.8423984779630493 0  -0.6587624947659372 0.1527201937584449 0  -0.5779065141038854 -0.06414714790474958 0  -0.8546458333363609 -0.06260963394134991 0  -0.2961671766652366 0.5624495488414251 0  -0.4238661305132547 0.5701085668827628 0  -0.3763533165354906 0.331258309334565 0  -0.6185552479207493 -0.2164326246981359 0  -0.2732682003509423 -0.09007805115225573 0  -0.6400341944751855 -0.5885357371933824 0  0.8597667453189425 0.2660202280314934 0  -0.03292189759512597 -0.03294564604319457 0  -0.05506852452732232 0.1149758159868411 0  -0.1340720960294653 0.4324781253530568 0  -0.1201805135803706 0.03256651947966661 0  0.5378043536321799 0.06470232973679786 0  0.5792715020407815 0.3595752327565633 0  0.6913710963594005 0.7747824787398953 0  -0.7932772216386507 0.8810830808276106 0  -0.6433359649926829 -0.4292435248497103 0  -0.1178760971351181 -0.3971506913749957 0  0.872237503605451 0.488677654342223 0  0.07596115035780317 0.09424926008037068 0  -0.6646093485754988 0.8680624108633043 0  0.4546591706982169 0.3510524775009505 0  -0.02647075085192287 0.03601549769802276 0  -0.4094232971380674 -0.44033043012696 0  -0.3621870132876951 -0.2689043132749557 0  0.3234059023512202 0.4822713073145655 0  -0.1965128442065963 0.2018920706591024 0  0.7056891314334188 0.5309781113906257 0  0.2617169972603439 0.3566857165250943 0  -0.3768385210931742 -0.8518676822466075 0  0.1089570452289807 0.6824439730912798 0  -0.2854758094130979 -0.6120642928970786 0  -0.4414998414989103 -0.6201488281036303 0  0.2960483475491738 0.6926715336143628 0  -0.8750030347202089 -0.1748233466848276 0  -0.1801811071236738 0.8550665062434548 0  0.4548394375299366 0.1637328514921969 0  0.2803602714455445 0.04683322501739026 0  -0.1426024487740761 0.6578659528298991 0  -0.01161976027410188 0.7090398849955108 0  -0.05347622062345625 0.8751557451114766 0  0.005064278857371795 0.4704419446702228 0  -0.3881357809807014 0.153699791127317 0  0.5492307941156078 0.1334362732225802 0  -0.4760351851483008 0.6825750299476948 0  -0.8515982969321324 0.3328705441623869 0  -0.09309475458820088 -0.5364181016726912 0  -0.03109939644172178 -0.5523661111865592 0  -0.214161316853561 -0.2877724687010778 0  0.8685203812307944 0.151537009915398 0  -0.1701338705744963 -0.6611289782290025 0  -0.889245701194665 -0.5284854075699812 0  -0.2821220872044112 0.3386866973366173 0  -0.6763700890257872 0.5742379047657339 0  -0.8975155245036238 0.531458602549543 0  -0.8983469891330437 0.6608975310225923 0  -0.6447142255653812 0.07240247890056141 0  -0.8592312435250162 0.02852374514650743 0  -0.8882506847247298 0.1679342696854035 0  -0.1305853834544453 0.229475387128377 0  0.1601351651550784 0.4468358278033797 0  -0.04365830907628247 -0.1258758162772872 0  -0.7534563387986368 0.6701650662460887 0  -0.60252711845991 0.6981286159492834 0  -0.2549401687826396 0.07876946255602929 0  -0.2495678264629259 0.6491365418224283 0  -0.02753648738027949 -0.006338587284350801 0  -0.4944842811601322 0.8770512666284785 0  -0.4771170935567741 0.4907713351159129 0  -0.2909811752780802 0.14434713028253 0  0.002222734441992303 0.02374566991870487 0  0.779538887522218 0.6836896259568064 0  -0.4700211244503433 -0.8247712217690734 0  0.272027620129343 0.1955378864692116 0  -0.1485894671725012 -0.8632418113045881 0  -0.06479253935297474 -0.8294612866073217 0  0.4433174628298638 0.7062707721182351 0  -0.1180854060430241 -0.2883117253845312 0  -0.265423812719685 -0.02612265189795984 0  -0.8937699155640106 -0.8964964142913188 0  -0.5732870918389398 0.2373338041672225 0  -0.4766398583504511 0.08770257272646145 0  0.4911887387944191 0.8259382601690647 0  -0.02864189503746334 -0.2601169332478176 0  -0.3101586737076063 0.8754463526269612 0  -0.1434986605301064 0.08083295422080465 0  -0.4697511294220129 -0.03488480579179317 0  -0.3884859419302318 0.01219868616614174 0  -0.2922667303269583 0.02770144707270178 0  -0.3853577109677177 -0.1204960456126659 0  0.8881660845016839 0.698099010130476 0  0.7926621453789373 0.9106785630593393 0  0.5767112714331242 0.2082239272359258 0  -0.5602444929598553 -0.4694395635241708 0  0.5988819362090793 0.7061595212639671 0  0.6782766835996512 0.8883007057684045 0  -0.05143933940462946 0.3037793024092338 0  -0.902126445811325 0.9046249019452274 0  -0.1278601651840913 -0.0671763314540867 0  -0.1694122541708011 -0.1827023918077852 0
[...]
<PointData  Scalars="w"> 
<DataArray  type="Float64"  Name="w"  format="ascii">1.7410006128082363e-10  1.0384544247517911e-11  4.4454665163507587e-10  2.7332472239792204e-09  6.2406472452040892e-10  1.5719599323732215e-12  8.6852192653242826e-12  7.4682010031694554e-11  4.0460091991332914e-11  2.1076750452757170e-11  1.0733472346589167e-10  9.5652781039543961e-11  4.0494002985769317e-10  2.7668395681131705e-10  9.1485264788961487e-12  5.2903375608858743e-10  9.0583712633452092e-11  7.2061701435222722e-11  1.3045208828653189e-10  3.5319398473791642e-10  6.6868282494618115e-11  1.0441109829570573e-10  5.7360505269590789e-10  1.2185086535847155e-06  5.7670092992660487e-10  1.0778969404811701e-10  8.8833175103505933e-11  1.7063930042529827e-10  7.6240215268654564e-11  1.8813817945647488e-11  4.6766297926031882e-10  9.7348048686138049e-11  2.4177395630987304e-10  1.7948360765363502e-10  4.5598510734783952e-10  2.2573592203075597e-10  7.7541145795734262e-11  4.7687270982708152e-10  5.8765451810568382e-10  3.1314158093840728e-11  5.2650733901255105e-11  1.0747214283364665e-10  9.2212240148600526e-11  1.9806169462431343e-11  1.0624021175157646e-09  8.7875879987197956e-11  3.2122585312865338e-11  9.6224502996183208e-11  1.2460218902504911e-12  5.9424080856882523e-10  2.2235543012907224e-10  2.1541534765535537e-10  8.2138081968535062e-11  2.5092082686208980e-10  2.5954108818193271e-10  2.0244199362181041e-10  3.5398587580772032e-10  8.8866242443417523e-11  5.8335026453106407e-10  2.5076381465478771e-10  3.1138148049611055e-11  3.1481968514737489e-10  3.7823872499210470e-10  1.4357579491225265e-10  5.3970033698551095e-11  1.7799107201219918e-10  7.0379509551580254e-11  1.7682560048092386e-10  2.3218859697593668e-10  4.5942028615595599e-11  6.4230795952318455e-11  4.4477022868296375e-10  5.6583741241133948e-11  8.7943164662278874e-11  1.7535659369967622e-10  1.6953718697523240e-10  2.5660329362870517e-10  2.8893586206598088e-10  1.8198471502518743e-10  1.9373578952292922e-10  6.5022514467644326e-11  2.5220361388940461e-10  2.6573926202155049e-10  1.9973764228931223e-10  2.3418245683781162e-10  1.2399400478091223e-10  4.6628582908351336e-11  1.0985627440587967e-10  9.4106213922580274e-11  2.5254898251907601e-10  6.9000182686972241e-11  9.9245793708399248e-11  7.7915698676974991e-11  9.3954804493235653e-11  3.9147767403150226e-10  2.0834834800663984e-10  2.5536987617020982e-11  6.6213009471322783e-10  2.5640073375103072e-10  3.1671632532823090e-11  2.7446050855513229e-10  4.1077600821364992e-10  7.0955271341185530e-11  9.6928214493936412e-11  1.5641557341639094e-10  6.3523573972443110e-11  2.7313091840830932e-10  8.3010057844647507e-11  1.4571469423952291e-10  6.5808725331371924e-11  3.1419810688163121e-10  2.4506209561551549e-10  2.3431848939702666e-10  6.3936978116654913e-10  1.2092272032692580e-09  1.4929040162578651e-10  1.6589910244259837e-10  1.0242079703532862e-10  4.5787388676721997e-10  2.5944545634089932e-11  2.5746471578851542e-11  2.7931251606831346e-10  9.1199342217899123e-11  6.0993042900717692e-11  5.0295014326181822e-10  5.7297147779911137e-11  6.0423540005177691e-10  1.1868660774302056e-10  7.6815154156360704e-11  8.2412809386072659e-11  3.4207250511182094e-10  1.7201289469037485e-10  4.6408906734193998e-10  1.3480712877126596e-10  6.2856442401545935e-10  4.4283792974361751e-10  1.0878808093071682e-10  5.1984845376963314e-11  1.2971158917119156e-10  2.5940209191900847e-10  2.0857764762699294e-10  6.1129293447906131e-10  9.2566871211969407e-11  1.1858960088589281e-10  6.8763969878911080e-11  6.5637105632207484e-10  8.6136018364317653e-11  3.3973310932040425e-10  1.4737317304647532e-10  1.2379396831705001e-10  2.0058125065078690e-11  2.8385248453061803e-10  1.6063669401040049e-09  5.6903549786968719e-11  9.7784772439702627e-10  7.9097572268082979e-11  2.4571379623672152e-11  2.4391077673989071e-11  1.2136953882897148e-10  5.6146378644743067e-10  4.4550254469386193e-10  1.6101568447385183e-10  1.1472040709259961e-10  1.6702095288337243e-10  1.8738059930198327e-10  5.8558582484741860e-11  7.7714200073239841e-11  2.0473346567052948e-11  5.9866294535994802e-11  2.9261177832071335e-10  9.2118066393572273e-11  1.0549051805634898e-10  8.2850027766691867e-11  9.5964536339170332e-11  5.3276626198329102e-11  9.5533055959774050e-11  4.5445464676957552e-10  5.6842754208636439e-11  1.6398877317700259e-10  1.7299430714241209e-10  4.6558103483654334e-10  1.9702518803842360e-10  2.8352164851770390e-10  1.4314779085490662e-10  1.4467285032591248e-10  1.4974826076463710e-10  2.1048753475162043e-11  2.8494522757882449e-10  6.4615610404197005e-10  2.5596112814127200e-11  2.5275119920098091e-10  8.8848997305576860e-11  1.5755943366901104e-10  1.1282235196970863e-09  1.3640167557606735e-10  1.6306960564921848e-10  2.3274313170203151e-10  2.8649525667637638e-10  1.0594804774956714e-10  2.0398498431421700e-10  4.1738164542332213e-10  2.1727527143494606e-10  2.3880359405128627e-10  1.0940638503452773e-10  1.1219465046643559e-10  1.1243675563917440e-10  7.0872270110322734e-11  2.0804221191399232e-10  8.8741672725832923e-10  7.7668871295446157e-11  1.0797640104874703e-10  7.7609991935340312e-11  9.6482560774835141e-11  1.6204916840617428e-10  3.7724346588555455e-10  7.8856833876231945e-11  8.4640656387586354e-11  7.6237332824529295e-10  7.1024638146316888e-10  2.9197573133416836e-10  1.9986749662784886e-10  7.8502955799230380e-11  8.0757995410617833e-11  3.3411184573142344e-10  5.8567329544331191e-11  8.3042747885808972e-11  5.0190993659895749e-11  9.2969908887617855e-11  4.1160879845230777e-10  9.0306637320997492e-11  1.9725155906511824e-10  1.6522798636715577e-10  9.0474161474603971e-10  6.1703025230885702e-11  1.9788671350897647e-10  1.1528150935876353e-10  1.1162862466793028e-10  7.5745355040608881e-10  7.4850278172503319e-11  8.4868906377583847e-11  1.1789922495940659e-10  1.1371428373159487e-09  4.1065660619556039e-11  7.7739137547090828e-11  2.7966441769318687e-10  2.5660415157962329e-10  3.5187787404122656e-10  1.8140227973783936e-10  2.0584702497593029e-10  4.0282341652444985e-10  2.9508503803511982e-11  1.0513284772788660e-10  1.2762467719194101e-10  3.7590648029142493e-11  2.6564169245845627e-10  4.3985741327967308e-11  3.3350996564525270e-10  1.3573966908031182e-10  1.1009698962373389e-10  1.9151343512524486e-10  5.0024811442641185e-10  7.3111238857266836e-11  2.6958997830613195e-11  1.4488105699066310e-10  8.1721511526986509e-11  5.9422286413707380e-11  7.6103330440531835e-11  1.7866375891125452e-10  4.9597314191767403e-11  2.6420497541788214e-10  2.5420024653566651e-10  1.2891813839800346e-10  1.2910355876500390e-10  1.3690795578682532e-11  7.1540177070167778e-11  1.4716702270593741e-10  1.6771712654195232e-10  5.0146343458983075e-10  3.6892634088527070e-11  8.2341346637494422e-11  3.3581976422718489e-11  2.3995063457120510e-10  1.2547324651535036e-10  1.8408710902206534e-10  7.5279427196473267e-11  8.7352743143641944e-11  1.2033039706452420e-10  2.0175688841269816e-10  2.2360326368340934e-10  2.6062633812953514e-10  4.3845946164222739e-10  2.1315208669354683e-10  2.1024784317061474e-10  1.4460287673872900e-10  7.9798888116052538e-11  1.7016435378127057e-10  1.6621391919998609e-10  6.3220288070183737e-10  1.2889155353142001e-10  6.2528098242483050e-11  4.0768030653606566e-10  1.9140002448701119e-10  2.0726504703973433e-10  1.2421347136897014e-10  3.2732278264174368e-11  4.4846180307245728e-11  9.8616765558538979e-11  6.8167988653793770e-10  2.9536001997827326e-10  1.8037956574463350e-10  1.3565325199271723e-10  3.3403774798168010e-10  6.7049384896090907e-11  1.0910029119080747e-10  3.5361983027641805e-10  4.1872999232715587e-09  9.8851744037462052e-11  2.8287799988956244e-10  6.1886051465379409e-10  1.2418429026684824e-09  2.0004138671022622e-10  1.5421249246004153e-09  4.1917994656144078e-10  2.2594610429234001e-10  1.1733149439226065e-10  4.1789464971159908e-11  6.5840650903680876e-11  1.2602321101096668e-10  1.5637147101827819e-10  6.3734611361862258e-11  9.9026740424540625e-11  1.0669669396813365e-10  1.2732652812684657e-10  1.9389513748574039e-10  5.0134439768026741e-10  3.1955202922299848e-10  1.6551994840073192e-10  9.5829683898727029e-11  6.1691545336341902e-11  5.9292161690181677e-11  7.0381868917985126e-11  1.8113816158242580e-10  2.2581839776781329e-10  1.0538979300467215e-10  1.0473771626775718e-10  2.3770841559161262e-10  1.3660357158985557e-10  6.9614951510243661e-11  5.9412380683592885e-11  1.0542769046348614e-10  3.4237541274987534e-11  1.8517922067922082e-10  3.2856191393016071e-11  1.6058480357062658e-10  1.7926632313985693e-10  1.5107962152133908e-10  3.9675012064362682e-10  7.9425747955571514e-11  8.3138076212971023e-11  1.4401653991531641e-10  3.0568997829594127e-10  1.4293197638148241e-10  2.6327291549771118e-10  1.1071906311114665e-10  1.3471001266903136e-10  1.5585640345573660e-10  2.8137404754108618e-10  1.2778200743669902e-10  3.3683007283656825e-11  1.1683593652127091e-10  1.1177402706701778e-10  1.4725603214743574e-10  2.5131196621934849e-10  1.7028585991461333e-10  3.4953718571952872e-11  1.2909245422019088e-10  2.3053612714129809e-10  2.9369691165572782e-11  3.2858771631843290e-10  1.6379371077087763e-10  3.9431599037256599e-10  1.1224063121730485e-10  2.3546114875212054e-10  3.2390047260572927e-10  7.5499619188167360e-11  1.0581478391817172e-10  2.1768293572309602e-10  7.3687067630796574e-11  4.8328403537767526e-10  1.6019661257822490e-10  9.7810366489593277e-11  1.0814798590002983e-10  2.0927700048837979e-10  5.4129930190231106e-10  4.8060193584959763e-10  1.7882463797571849e-10  1.7093662648162993e-10  2.0658231823360227e-10  3.9921357572322289e-10  4.5564959769324701e-11  2.2436311301737919e-10  8.1897070439183906e-11  1.2430728840295226e-09  1.1785825640015309e-10  4.5885519177985054e-11  5.5368122293661303e-10  3.3127202651339234e-10  2.4594661711397196e-10  2.0893771493382086e-10  6.4068484381583427e-11  1.5303500710195111e-10  3.3350626894607471e-11  4.3580286234672112e-10  8.2058204111271427e-11  1.3732396407155036e-10  1.2679120195702889e-10  6.5753890877595955e-11  3.4705859375570228e-10  4.3193429826924907e-11  1.1735351886203223e-10  2.4323137165377806e-10  1.7829715117637306e-10  7.1389897840637419e-10  9.2594151866421982e-11  5.7506211374604516e-10  1.4765596705996908e-10  3.5717221465696030e-10  5.5815471833554347e-10  2.4370579898846656e-10  1.5476205194121653e-10  2.7321287121109447e-10  4.8331234506416343e-10  3.4754311445856525e-10  7.5500480699341662e-11  4.9180311964058696e-11  1.6384891092984806e-10  3.5896081152501138e-10  1.8477541327408422e-10  1.2639964516230829e-10  1.7041874834016533e-10  8.1112755046040032e-11  7.1076975062277246e-11  1.9850393170784586e-10  5.7835039801429998e-11  2.0618951969415237e-10  9.0400963456887020e-11  4.8001486952191624e-10  4.9026455575532286e-10  8.1808713036714592e-11  4.1865935623668209e-11  3.9442148933910967e-10  6.5037629958661550e-10  2.5801269247208299e-10  9.9647058529642120e-10  2.8788701975178221e-10  3.1677267841835026e-10  2.7620166005330247e-10  2.6746989067113266e-10  9.7297875242488537e-11  3.1408092814883767e-11  1.9304393166464245e-10  1.0539806362340484e-10  2.1394238746932183e-10  7.5247739009912886e-11  1.2228853268907128e-10  2.0881888603222496e-09  1.7692296821884348e-10  8.1101648792372999e-11  8.2098856821121584e-11  4.0056373626355690e-10  2.4239763044502327e-10  1.8928254937790246e-10  2.0753629755081398e-10  4.4511124041359140e-11  7.5926298286794133e-10  2.4096642441465308e-10  5.3589171336415189e-10  2.5098637542869805e-10  2.4125186035856055e-10  3.1118189558799950e-10  9.4612161898110106e-11  3.3129800581159101e-11  3.6221713747802970e-11  3.7227276361967095e-10  3.6240502613325623e-11  1.1677893396607505e-10  1.0225113794394585e-09  7.5110054464093733e-11  3.5044936245215326e-10  2.6256249774840237e-10  6.1947856371184575e-11  5.9971151082915886e-11  1.8089459057336325e-10  2.4529109957412790e-10  4.8331072007752835e-11  1.1308657167306532e-10  1.6027788344622060e-10  7.5720279490438342e-11  1.6910319904984296e-10  2.1478095571487154e-09  3.3044433265693510e-10  3.1974388809858907e-10  1.0721948318617384e-10  1.0757122851297404e-10  1.8725902972296274e-10  8.0517645384331714e-11  1.3383093692225703e-10  4.9643831607942090e-10  8.6710084894118524e-11  2.4011044958774998e-10  2.1321988030775978e-10  1.3888194089479872e-10  5.1205433257340894e-11  7.7912512553299091e-11  5.5485292239886439e-11  2.3493926636058285e-09  1.0607808235956368e-10  2.2113561846304804e-11  5.7119127741356348e-10  3.0777728756273459e-11  6.2092521475724899e-10  1.1778119870912572e-11  1.5034851772799437e-09  1.7411053384492136e-10  2.4981349901368454e-10  1.0433353575180830e-10  2.8853552715134848e-11  8.4732408707209977e-11  2.7949588089487787e-11  2.0603733672186300e-10  3.7241745618246066e-10  2.7147402467539327e-10  3.3405224119204807e-10  1.3635586808738209e-10  9.3870374501701744e-11  6.3683198363077854e-11  3.6557000644684062e-10  5.0216793521520989e-10  1.0524871738933321e-10  1.0037424680055539e-10  1.4641142036184980e-10  7.6352055955561219e-11  4.5626330501389237e-11  5.4988843701841417e-11  3.2300209580780341e-11  8.8689219319077252e-12  1.7866379984310448e-11  9.8788813867266802e-11  2.2643981205712803e-12  1.1132607649234117e-11  1.8651779865049483e-10  3.5011914762495726e-09  2.2302475595400928e-10  4.2492215349085372e-11  2.1946053282598855e-10  9.2564840018516868e-11  1.1179456826794931e-10  4.3816961801552309e-11  1.7167240216034842e-11  8.8324403229483219e-11  7.4466324866007173e-10  7.9760094607643938e-11  1.8351539737886315e-10  3.2372200109493413e-10  4.8206111599126863e-10  9.6500234591890569e-11  1.0189127883096659e-10  5.8391408363386185e-11  7.6962375882001613e-11  1.1212199167419640e-10  5.7094182894895902e-11  5.9335185015622050e-10  5.8943677162311967e-11  2.7827223547505912e-10  8.7947418784045599e-11  1.2781794660818989e-10  3.0886448831781009e-10  4.1586873307886776e-11  6.3055477732733886e-11  2.8429128916963202e-10  1.1908602958151738e-11  1.1274136272159420e-10  8.8322453352459926e-11  7.6881401789769765e-11  5.6205383006544554e-10  1.6171129167344384e-09  3.0056426180455603e-10  2.8930410616939357e-10  9.0503438295984964e-11  6.9267584950354163e-11  2.5302618627388758e-10  1.1710833387352923e-10  9.9406088279364367e-11  1.0435264684056064e-10  1.9706393363347666e-10  7.3725357262015044e-11  5.2647601372102195e-11  7.0648461842988105e-11  3.9763350464723066e-11  8.6443229741458138e-11  1.9151761292093313e-10  1.6164311218240574e-10  1.1148400950116186e-10  2.7322823991357598e-10  4.6954157813619554e-11  1.3606070980678969e-10  5.2445044609644610e-10  6.6641827689643576e-11  1.1766342168342765e-10  1.2735866111513683e-09  5.7847325924083806e-11  3.3609810311086149e-10  5.1334795615836200e-10  1.5779751527492424e-10  1.2815560384435596e-10  1.2542031363402788e-10  9.0202175385017722e-11  2.5226385234772046e-10  2.8589072482660180e-10  1.7686314066480602e-10  4.7003455477599184e-10  4.2323263939773023e-10  1.2091012133258356e-10  2.0916778421071302e-10  6.6583318186040617e-11  8.4580578070958724e-11  6.2615787500219333e-11  2.3823223044811261e-10  4.0043701507367812e-10  3.0776937428282471e-10  3.2301617092688285e-10  8.5659845153503563e-11  2.2911827978132539e-10  4.8178350840834825e-10  1.7052402208123734e-10  4.7663610373957366e-10  1.8256437250927171e-10  1.3752317298384679e-10  1.1128693783891023e-10  5.1089721099865162e-11  5.4278464996836814e-11  3.3340491158390225e-10  6.2600123018971047e-11  6.4518664013392175e-11  1.2900406193263242e-10  3.1959613313786151e-10  3.1761326659247128e-10  1.5691978160780152e-10  1.1762295877826241e-10  5.9626942779163445e-10  6.2763632579563089e-10  1.6253163142470875e-09  2.7103057994102770e-10  2.0051415050746692e-10  4.4652761420693907e-10  4.5237086786930331e-10  1.1870682298975424e-09  2.9709796978802400e-10  2.4612232417239715e-10  3.3089330459504291e-11  1.2861124987370683e-10  3.2820252715585404e-10  5.1461108317574717e-10  2.1314670293189124e-10  6.6188251894769727e-10  3.0289723525541041e-10  2.1606802684844561e-11  4.7980329096281178e-10  3.3635363267089751e-10  3.8683206128821559e-11  3.3327586736899471e-10  4.1376862793732217e-10  5.4250696507350600e-10  1.4525052826008912e-10  6.6786028066543228e-10  1.9446882837453275e-10  4.7250803808007286e-11  1.2712418284010732e-10  1.3206293473034313e-10  3.1826085962263209e-10  7.8646940479424576e-11  2.6230841854242245e-10  1.9499714875635405e-10  8.1924907353694606e-12  2.4127764961879608e-10  5.8016778209681534e-11  9.0036701470121428e-11  1.2377145268266897e-10  6.3557305519451563e-10  4.1452602392341811e-10  3.0630577076123801e-10  1.1679239998507798e-10  1.3148019536430457e-10  9.0904361898704061e-10  5.4708669255591805e-10  1.3394210079957951e-10  1.4161859923479271e-10  9.3080498843949470e-11  4.8488070634810228e-10  1.3758425675611590e-10  1.7367835319977445e-10  9.4589365215772979e-11  7.0703214404733844e-11  6.3427366869280563e-11  1.4924017510266542e-10  9.7770094277886446e-11  1.2855011011198049e-10  4.2861572044639776e-10  7.6491258384531853e-11  6.0308495837986122e-10  1.2597459567621961e-10  2.2370560914502403e-10  2.7816661240762625e-10  5.5577655087294868e-10  1.1598585765876427e-10  4.0772561749278820e-11  6.2855044811410116e-11  1.4163271355083078e-10  1.5845937158165714e-10  5.1213866943141602e-10  8.4294189568250251e-11  1.6106268165234260e-10  2.5071750411807046e-10  1.3683285612504497e-10  2.3510488019794749e-10  3.3225575027378012e-10  3.1116099997055170e-10  1.0396728281955123e-10  1.7427109790669667e-10  1.4817364506233749e-10  2.2695760143898004e-10  5.2622405704754089e-10  3.7305480109173691e-10  2.0146921343427898e-10  2.0356574984961843e-10  1.2436897555393193e-10  1.7244784526612481e-10  3.0040984055632364e-10  3.8088975947509789e-10  3.6191887504892844e-10  1.6574347017806124e-10  2.1949434132377760e-10  1.9435616370301370e-10  1.5317777610040540e-10  3.9825515682275964e-10  3.1771650381845518e-11  1.0498263099740083e-10  1.2615065058759346e-10  1.6205770530221883e-06  4.0452387590925338e-10  1.7611980104920700e-10  6.0880433368912509e-11  2.5631360326963850e-10  1.3732262373684284e-10  6.4142697076578323e-11  1.0516646174016059e-10  2.0241748392292218e-10  2.0522874592900051e-10  1.9367296983244897e-10  1.8798108009859529e-10  3.0777561514580910e-10  6.4907737819929564e-11  8.0009530186047800e-11  1.9015084734671440e-10  1.2174747297719608e-10  3.5363776839715181e-11  3.9973984206337786e-10  6.4479223210366625e-11  6.1870765073317694e-11  1.9295315945140328e-10  9.8703325629392686e-11  2.3704954138834091e-10  2.9109049709932288e-10  3.5248392725935396e-10  7.9148899700799949e-11  1.8645895888134836e-10  9.6171926658725917e-11  3.2645655420919803e-11  9.0518909761199464e-11  5.8336805019297645e-11  7.8716158209218863e-11  2.2811440810928792e-10  4.7136053064269524e-11  6.6167884581612295e-11  9.4497633206528343e-11  9.3382588256599982e-11  9.3598643115081209e-11  2.5365670354452601e-10  8.7726978146072048e-11  1.8362591923065344e-10  2.0167720351359263e-10  9.8814436250274862e-11  1.6089376725065171e-10  3.1473874870650687e-10  1.2373129678808526e-10  6.1795756415010306e-10  1.6992332228144191e-10  1.4869461997089863e-10  1.3858268797158299e-10  2.2661916136943408e-10  4.4180476599626063e-11  3.9954514701149678e-11  7.6682760508696862e-11  4.3143782410710401e-10  2.0034011266789113e-10  6.4060691341193103e-10  4.4230482233840162e-10  1.2068002765248269e-10  5.4774086667045076e-10  3.6436334130066227e-10  1.8772893123625425e-10  7.0550596604525912e-11  9.3237695462371577e-11  1.7416678503996430e-10  1.8759638899081833e-10  4.1669388898719482e-11  4.8664820067301112e-10  2.7857946064855970e-10  3.1300743847882980e-10  5.3431736942840506e-11  3.4888234511221888e-10  2.6545349026893258e-10  5.9084087665286389e-10  7.3040268492141381e-11  6.1620125638829497e-11  2.3848650796971903e-10  7.2468963268103323e-11  4.2562004369511428e-11  1.4706046995702433e-10  2.4377795177806315e-11  6