<?xml version="1.0"?>
<VTKFile type="UnstructuredGrid"  version="0.1"  >
<UnstructuredGrid>
<Piece  NumberOfPoints="4852" NumberOfCells="9430">
<Points>
<DataArray  type="Float64"  NumberOfComponents="3"  format="ascii">-1 0 0  -1 -1 0  0 -1 0  0 0 0  1 0 0  1 1 0  -1 1 0  0 1 0  -0.5 1 0  -1 0.5 0  -1 -0.5 0  -0.5 -1 0  0 -0.1608775713298009 0  1 0.5 0  0.5 1 0  0.1967448868031411 0 0  -0.340481534917429 -0.175835379919167 0  -0.3370953746342355 0.2244868980771837 0  0.1740999276168263 0.3461459059238927 0  -0.1852625701321909 0.5552937643964921 0  -0.504393122421381 -0.5381779421521368 0  0.4904226064719788 0.2572772745003148 0  -0.0643833464379215 0.2009915256708941 0  0 -0.5061325913258391 0  -0.25 -1 0  -0.5636874428933411 0.5779281718849273 0  0.6623306146620778 0.6355155651775203 0  -0.1752594388366221 -0.5379744771734849 0  -0.5387510531983882 0.02513295106049428 0  -1 0.25 0  -0.2060895151204586 0.0236974388743949 0  -0.6550122618895445 0.3112264000157006 0  -1 -0.25 0  0.0392310976336226 0.5918734445479572 0  0.1951424188355081 0.1289340966850643 0  -0.1360951756249206 -0.2199427635216567 0  0.3711667727617809 0.6147683271961603 0  1 0.25 0  0.5355652144809806 0 0  -0.75 -1 0  -1 -0.75 0  -0.645154780830574 -0.3232732187044372 0  0.25 0.9999999999999999 0  -1 0.75 0  0.02757118475249542 0 0  -0.25 1 0  -0.75 1 0  1 0.75 0  0.75 0.9999999999999999 0  0 -0.02898318711980711 0  0.05424231905568015 0.1421400834939947 0  -0.07758849294593584 -0.02788183825700102 0  -0.7012651015708848 -0.1327454671785203 0  -0.3217279608090003 -0.3475536172046985 0  -0.3405760000407417 0.4374735058832408 0  -0.09985295911700653 0.7641617796105082 0  -0.3842493909717525 0.7034333063052456 0  -0.05449181284085555 0.3989256987942115 0  -0.07886148557159474 0.0717899358830924 0  0.3589135058182718 0.3701103931861386 0  -0.7184594790610715 -0.7318947000605007 0  0.4118453737257919 0.09008447878323382 0  0.6898741601657049 0.1923222264492445 0  -0.7484754234705269 -0.5288781879428019 0  -0.3884640061736017 -0.7112428397351394 0  0.7213591522715433 0.4200698703979112 0  -0.7766934977279399 0.09760662086951677 0  0.1976719271690447 0.6992110762664946 0  -0.1985918370957202 0.2886083993222837 0  -0.7998307399330075 0.5797894622966453 0  -0.719999133469849 0.7675226691071122 0  -0.0393409914848807 -0.3739596511623275 0  0.586230582783119 0.8186759823463807 0  0.8220190157306249 0.809275089598671 0  -0.09421967123849387 -0.6970103620682475 0  -0.5142080069075916 0.1636799628302121 0  -0.201777510056186 0.1257272921542018 0  -0.359074802576797 0.07526488334163214 0  -0.3650891793276935 -0.05218202844739187 0  -0.4977821861672266 0.3956912616620479 0  0.375 1 0  1 0.125 0  -0.0117397188114126 0.07114201155294209 0  0.06220300390485702 0.3919334157785493 0  -0.1714823337988108 -0.1223334188866622 0  -0.2443927674909101 0.7738171793123184 0  -0.625 1 0  0.5340040283615517 0.4551408941284201 0  -0.5781314682064507 -0.8308461104252426 0  -0.2571442258441527 -0.7838137031151289 0  -0.3202652632230216 -0.508661764305446 0  0.8343143377295456 0.5970703390021636 0  -0.5507196940658305 0.791669819557543 0  0.125 1 0  -0.06734380609651738 -0.09341676254223315 0  -0.495048725234786 -0.1433301679548922 0  -0.875 -1 0  0.02959215027221732 0.04154747364680358 0  1 0.375 0  -0.875 1 0  0.05769269784380174 0.7944278150221624 0  -0.1957287687253866 -0.3735602910076142 0  -0.07287671163922253 0.5712417766310254 0  0.2366419265192913 0.5181486531997668 0  -0.7920661949878551 0.2309567050218375 0  -0.4953933183021499 -0.3892907447454665 0  0.0003076509436679057 0.2710142215148406 0  0.5108330729400181 0.6412390049933436 0  0.3998799373475088 0.8080323274414085 0  -0.8059338185854769 0.4269663314746838 0  -0.06304274509474059 -0.2215501748778559 0  -0.7097777666480212 -0.01444693816231165 0  0.09057251254653263 0.0523996640404234 0  -0.4784868684901322 -0.2515441709796913 0  0.7240118227867175 0.08322083843798415 0  -0.8091819992021185 -0.4120400880584942 0  0.3375696010584402 0.1540495744033429 0  -0.7944464707118253 -0.2516343887236467 0  0.2364721916931624 0.2541854654814245 0  -1 -0.875 0  -1 0.875 0  0.184428553820886 0.04807569327845762 0  -0.247502131871886 -0.2288937102739469 0  -1 0.375 0  -0.1710521247166915 -0.04191971622132763 0  -0.6502085144869141 0.4686855094523391 0  0 -0.07736776745332727 0  0.08069294762752988 0.2599268787473266 0  -0.375 1 0  -0.2177834156863419 0.4247400880802884 0  -0.1199681163644264 0.1501722219348895 0  0.1338341948137213 0.5541450949967459 0  0.1321146721718937 0.193842933333756 0  -0.4751336525099877 0.2699332068903261 0  -0.04615096869981068 0.01389681345306947 0  0.8507472449092159 0.3717876660743641 0  -1 -0.125 0  0.2859703258697628 0.8376860225880716 0  -0.1108241174318689 0.3129970975107151 0  -0.125 -1 0  0 -0.7575037395175259 0  0.07821397079968176 0 0  -1 -0.375 0  -0.375 -1 0  -0.625 -1 0  0.7474787146812756 0 0  0.625 0.9999999999999999 0  0 -0.2918843213980812 0  -1 0.625 0  -1 0.125 0  -1 -0.625 0  0.3284075310660084 0 0  0.004929205892015135 0 0  -0.125 1 0  0 -0.006571003003944568 0  1 0.625 0  1 0.875 0  0.875 1 0  -0.5640351019362287 -0.677624057009601 0  -0.004470387457297906 0.160166826208279 0  0.3626132729581838 0.2628507360440168 0  0.6530540268030115 0.2942741966432902 0  -0.8550343745605987 -0.6493299089937039 0  -0.8663625762706787 0.7900433691691358 0  0.4303277156457441 0.5021669818795492 0  -0.3987284405934296 0.8564652683814121 0  -0.781394153208835 -0.8752091334149745 0  -0.8712422644092861 -0.7866034750002387 0  0.1555753893982029 0.8424579390673492 0  -0.6586684071035926 0.1537296248924196 0  -0.577681046341723 -0.06491353762252269 0  -0.8548322517884259 -0.06245352613850524 0  -0.2969811320962627 0.5624202400334672 0  -0.4249721265740133 0.5703783004105419 0  -0.3765907251950443 0.3317510585098733 0  -0.618329391688806 -0.2166329581572524 0  -0.272639524275742 -0.09017428224509928 0  -0.6414423304327775 -0.5902672027989804 0  0.8594403672586225 0.2660551679478569 0  -0.03273164720304923 -0.03299689173956405 0  -0.05460706650697519 0.1145157033733472 0  -0.1338386340442254 0.4320942546898315 0  -0.1195703483342003 0.03242937350336036 0  0.5379072285787525 0.06485685278406636 0  0.5797129189254729 0.3605469410282912 0  0.6930489775848285 0.7770744921642149 0  -0.7980443537817909 0.8823558928437911 0  -0.6440793129261349 -0.4296733906859682 0  -0.1133317063379661 -0.3967424875716268 0  0.8717022542338434 0.4907261079364423 0  0.07610645604132808 0.09386474948848186 0  -0.6672595584275365 0.8697627157407433 0  0.4546826418232512 0.3512235916679244 0  -0.02623066340189999 0.03578834437066108 0  -0.4092351325539518 -0.4409993856921703 0  -0.3620686481181009 -0.2689594280552949 0  0.3237765042775455 0.4826112150033487 0  -0.196022020516826 0.2014204508421006 0  0.7061765990143506 0.5321713930191844 0  0.2618918235258323 0.3566170078112677 0  -0.3784926478593543 -0.8516513799087025 0  0.1096176692834544 0.6821752562993499 0  -0.2850444816631155 -0.6120780244356332 0  -0.4422290654886231 -0.6207672144883047 0  0.2968597976617492 0.6932601305826753 0  -0.874513532204676 -0.1752379017533602 0  -0.1809539101653923 0.8556196370974788 0  0.4547537433156061 0.164041445214014 0  0.2803208278703481 0.04689050629229586 0  -0.1427075139987904 0.6574931795579435 0  -0.01152751171156421 0.7086543674816201 0  -0.0533671323096352 0.87577802358713 0  0.005552262522536007 0.4698952997051291 0  -0.3879237474768024 0.153848866755741 0  0.5494194165341991 0.1336951641166501 0  -0.4777160641791223 0.6833174256178466 0  -0.8514246508365009 0.3350018379654391 0  -0.0819888272343892 -0.5364132277255783 0  -0.01474670019887051 -0.5521501873182186 0  -0.2134862275583805 -0.2876964773217462 0  0.8684463310467672 0.1521490960940978 0  -0.166746887602318 -0.6610713701940847 0  -0.8890875362333359 -0.5302217362106303 0  -0.2819633945833608 0.3387743325135407 0  -0.6780633380163792 0.5758775237263546 0  -0.897452747467684 0.5334519282746153 0  -0.8995193240809753 0.6634446781462984 0  -0.6444476358149291 0.07258926235249483 0  -0.8595877366370479 0.02901629778031261 0  -0.8883816855812455 0.1680428111599778 0  -0.1300252613756415 0.2290551065760617 0  0.160860488415693 0.4467522390850365 0  -0.04354085378518689 -0.1258519683058581 0  -0.7557441530740998 0.6715092600718804 0  -0.6054387638845139 0.6987035900795255 0  -0.2544017478247681 0.07863401711208631 0  -0.2506015650032593 0.6493658641142332 0  -0.02737134685759486 -0.006402071720073678 0  -0.4967296108766415 0.8772939843274232 0  -0.4786590017585567 0.491477497537998 0  -0.2903279459988261 0.1442051561286184 0  0.002333859409205245 0.0236064224415131 0  0.7804416422927947 0.6862576504475142 0  -0.4713794686828678 -0.825510284190441 0  0.2719653489415399 0.1954354368312532 0  -0.1454222529296628 -0.8630757504150955 0  -0.05640429785396353 -0.8278883882288243 0  0.4440454681080279 0.7073434406058052 0  -0.1159129478435276 -0.288508586268894 0  -0.2648963774325839 -0.02613828317157615 0  -0.8954462621642323 -0.8975203203694965 0  -0.5730160575690361 0.2386432019007113 0  -0.4759018128909829 0.0877923276435285 0  0.4928911495133516 0.8272626630377083 0  -0.02669921970402663 -0.2630153720768071 0  -0.3117536816332213 0.8762503145239854 0  -0.1428903147621619 0.08053318612830591 0  -0.4692854089516307 -0.03487737194640382 0  -0.3881036359121586 0.01216418487331224 0  -0.2919225965117768 0.02762495834096738 0  -0.3850456359228793 -0.1205596731750641 0  0.888649648925155 0.7004063419098819 0  0.7955704358334935 0.9126497591049372 0  0.5770187424229295 0.2085698222798784 0  -0.5601188564837661 -0.4702495029537844 0  0.6001524977520666 0.7078635052230819 0  0.6797426022842744 0.8900652191274471 0  -0.05105457103633582 0.303335122844434 0  -0.904422791593936 0.9063991167004294 0  -0.1274944140446464 -0.06708136561520074 0  -0.1691311445994029 -0.182460576385777 0  -0.2522188047486103 -0.1438527059656176 0  0.03720476109211692 0.2016912986381707 0  0.903627703076193 0.89810
[...]
<PointData  Scalars="w"> 
<DataArray  type="Float64"  Name="w"  format="ascii">1.6785841377773931e-10  9.6088555231377391e-12  4.4031111166743387e-10  2.5773140359562414e-09  6.2701289617594205e-10  1.4763161202568152e-12  8.3528285648281447e-12  7.2126873656814453e-11  3.8648997944078836e-11  2.1642421929690509e-11  1.1083422299968423e-10  9.6697386746714540e-11  4.1279568224485920e-10  2.6403226760169512e-10  8.6120648665773242e-12  5.3041933366315117e-10  9.1087464196117727e-11  7.2218234554322213e-11  1.3130909779339145e-10  3.6288222668246942e-10  6.6470202941855367e-11  9.9273479009799010e-11  5.8093977468162045e-10  1.3395938058740528e-09  5.9155455059246521e-10  1.0976099249715529e-10  8.9677254487402242e-11  1.7745627638020659e-10  7.7741877872617319e-11  1.8944819235891429e-11  4.7902394530301452e-10  9.9340948078759195e-11  2.4797345215757157e-10  1.8416881729577885e-10  4.6304359795203485e-10  2.2719683292038340e-10  7.9226806904463398e-11  4.8612929143906782e-10  5.9214385864543531e-10  2.9367991896483576e-11  4.7009767804657463e-11  1.1096388127296894e-10  8.9808938719848505e-11  1.6391965472428802e-11  1.0512530064351823e-09  8.8395571839816994e-11  3.0243746156452697e-11  8.8491300296292603e-11  1.4582974528670719e-12  5.9273236759908789e-10  2.2022294446541786e-10  2.1172553377033669e-10  8.3099909386188690e-11  2.5574150901045075e-10  2.5211582261131918e-10  2.1809999097233474e-10  3.7153137456661529e-10  8.8596752244597225e-11  5.7351452150916258e-10  2.5310559321682069e-10  3.1382566984306162e-11  3.1804260224271109e-10  3.7531536820974836e-10  1.4120819237993131e-10  5.2451612525093843e-11  1.7814942960496369e-10  6.8650473328838827e-11  1.8770507837385773e-10  2.3971542003701596e-10  4.2728433449955128e-11  6.5443073101590205e-11  3.6488942416804029e-10  5.5652673985020130e-11  8.5219326990109721e-11  2.0906140120747610e-10  1.7249936373052675e-10  2.5450043186490015e-10  2.8964836896789274e-10  1.8677470058949467e-10  2.0480002301372786e-10  6.2196084219807832e-11  2.4808983013888046e-10  2.6215701011100161e-10  2.0207357814751349e-10  2.3165346031639555e-10  1.2693400729354005e-10  4.0365183938324551e-11  1.0942605177349670e-10  9.6517684137191007e-11  2.6512955303237801e-10  6.6561555706203910e-11  1.0042052492860701e-10  7.7708734119072056e-11  9.1974460181950573e-11  3.8308272942309565e-10  2.1266923537938146e-10  2.3448519406912301e-11  6.4782059570042481e-10  2.6064599486861867e-10  2.7977744935574919e-11  2.8212476093710274e-10  4.3197048275283307e-10  7.1243055388240223e-11  9.3439422121463814e-11  1.5465576163471465e-10  6.2228528583298782e-11  2.8071498667672553e-10  8.5005388080477732e-11  1.5405363222056996e-10  6.4522897474945639e-11  3.0899512999671236e-10  2.6109823734235800e-10  2.2954586388971246e-10  6.6599784929916555e-10  1.2413224823602121e-09  1.3974206128158766e-10  1.6463338543466280e-10  9.6790917961357220e-11  4.6281705260006245e-10  2.4518247250712846e-11  2.3223227943327269e-11  2.7692525381650798e-10  9.0231711902591277e-11  6.0515798705261214e-11  5.0250910682279784e-10  5.5139739660585249e-11  5.9364628575814154e-10  1.1560525556229475e-10  7.5142803736462727e-11  8.1148906445214456e-11  3.4356850345349056e-10  1.6897338398836041e-10  4.7626874490061357e-10  1.2949984797803133e-10  6.2501125449825954e-10  4.5231734233355099e-10  1.0638215891635195e-10  4.9497008354446688e-11  1.3148335924446504e-10  2.7731917057825902e-10  3.1730559136286832e-10  6.0477097298090307e-10  9.3603395659680087e-11  1.1628732290519925e-10  6.1533770762701171e-11  6.5854850103626447e-10  8.1204427444198824e-11  2.6466881489539450e-10  1.4164654984367823e-10  1.2101538307319436e-10  1.8786627804610542e-11  2.8437137533741074e-10  1.5711926720252586e-09  5.4386009530296556e-11  9.6507581865607897e-10  7.2812711356211837e-11  1.9667316697992213e-11  2.0623263888943619e-11  1.2746566206128084e-10  5.6179551515148525e-10  4.3528671814767540e-10  1.6093175063990177e-10  1.1207691311873367e-10  1.5702900253582165e-10  1.9156737053713763e-10  5.6072933518547532e-11  7.5321794861897467e-11  1.8374423343919799e-11  5.6921761049673764e-11  3.0606844952918201e-10  8.8428331516931736e-11  1.0626857802468217e-10  7.8252991526270597e-11  9.6798737190214349e-11  5.1580359347750373e-11  9.4117557451294619e-11  4.6213093999249575e-10  5.5572612613915586e-11  1.6370448030709046e-10  1.6884756043696108e-10  4.6949297805605105e-10  2.0380347033747949e-10  2.8458117388747488e-10  1.4196390672414579e-10  1.4666270635582537e-10  1.5593313061434917e-10  2.1215184240408785e-11  3.0458678878561139e-10  7.5705719698066855e-10  2.3960765642108915e-11  2.4831910191173759e-10  8.9347796132753016e-11  1.6017713042849708e-10  1.1104930316851944e-09  1.3734015171898837e-10  1.6267348554347773e-10  2.4211282803144073e-10  2.9065505844666454e-10  1.0570985339742167e-10  2.0547049356488147e-10  4.1722617376611436e-10  2.3041771176748681e-10  2.4435658771772140e-10  1.1416058871232842e-10  1.1225452216719471e-10  1.1248227016333985e-10  7.1004945335344829e-11  2.1129907516585708e-10  8.9214626534449743e-10  7.7200381486994685e-11  1.0347851248355965e-10  7.8183707621320700e-11  9.8243962165116108e-11  1.6115148799141114e-10  3.7999830055872525e-10  8.2764995805752643e-11  8.4995452954840213e-11  1.1094294603864807e-09  3.3399525722582453e-10  2.9410511953396934e-10  1.9835617772137706e-10  8.6795165657336788e-11  8.0027275706761227e-11  3.5072306103718201e-10  5.7548995546963266e-11  8.4016216992159638e-11  4.7726923365281725e-11  9.5244930917833741e-11  4.1774983472677585e-10  8.8540584366421030e-11  1.9525490746936556e-10  1.6929639921469966e-10  9.1534728250913124e-10  5.9629772581810437e-11  2.0444422005755055e-10  1.1585939165137416e-10  1.1160424708431436e-10  7.5565521967387821e-10  7.6155303320044691e-11  8.6490890929457204e-11  1.1637629307970510e-10  1.1099803703109274e-09  3.9466754000861335e-11  7.4039459235667286e-11  2.7861407017535853e-10  2.9488519770502495e-10  3.8155073295819653e-10  1.9182757287076966e-10  2.0382263760481582e-10  4.1293692749825117e-10  2.7112225679737448e-11  1.0565208575831766e-10  1.3079547224141052e-10  3.6367485423153395e-11  3.1509932808904941e-10  3.9452826409046739e-11  3.4674207958079505e-10  1.3385095821673575e-10  1.0988934325367811e-10  1.8823015689693147e-10  5.1926123646338088e-10  7.4770557911706576e-11  2.5011784125670143e-11  1.4162234200412284e-10  8.3949322898731517e-11  5.9601965949659511e-11  7.2055098572838894e-11  1.7806888791102694e-10  4.2180750213589191e-11  2.6756616733342519e-10  2.5484970913796686e-10  1.2563713391367089e-10  1.2875503633185854e-10  1.1773750431319196e-11  7.0112134029944928e-11  1.4685440422143134e-10  1.6945312980521071e-10  4.9923010891604083e-10  3.5828480057972774e-11  8.1316531931449189e-11  3.0722898164458838e-11  2.3686648979456857e-10  1.2408781650586557e-10  1.8926603410804512e-10  7.5053926985893146e-11  8.8747385412488592e-11  1.2061043926132289e-10  2.0208079812043695e-10  2.2609305408331765e-10  2.5688088009164250e-10  4.4571792462867645e-10  2.2057461511694791e-10  2.0792545490879726e-10  1.4823990049937709e-10  8.0321032370562880e-11  1.6936000044356818e-10  1.7197949220058347e-10  6.2778350650533893e-10  1.3464062452112935e-10  5.9016479593350880e-11  4.1025199480586459e-10  1.8603166742214314e-10  2.0957044086397958e-10  9.4993311988904534e-11  3.0401033463031151e-11  4.4041325685144072e-11  9.5762775197983566e-11  6.9444811999935316e-10  2.9270303804738570e-10  1.7915095951087754e-10  1.3946408694335373e-10  3.4439229916005749e-10  6.6981446711728138e-11  1.0748495338858200e-10  3.6323449088984874e-10  8.3928840314578629e-10  9.9319716943350779e-11  2.7995099773208454e-10  6.1293883681789446e-10  1.2345246854645534e-09  1.9674173017354258e-10  1.5279095475963323e-09  4.2496128378210712e-10  2.2650076529224673e-10  1.1524518038376716e-10  3.9819530910008932e-11  6.4193372437899821e-11  1.2767872559433971e-10  1.5232309897129700e-10  6.0642193305919388e-11  9.5565412098579741e-11  1.0705529670863001e-10  1.2369429009830074e-10  1.8892595286336235e-10  5.0441676267682847e-10  3.1809125636047087e-10  1.6872546350357936e-10  9.5075418735262249e-11  6.0193972571050979e-11  5.9733099842433354e-11  7.2106810551192115e-11  1.8412679255116546e-10  2.3956965315653536e-10  1.0608593463403020e-10  1.0640962007995095e-10  2.3645939489371569e-10  1.3700541786126540e-10  6.8878749236274443e-11  5.8389847456624417e-11  1.0430700315911303e-10  3.2783069184420625e-11  1.9255319761747611e-10  3.3623489317658785e-11  1.6120465699977358e-10  1.8094912336964558e-10  1.5799993296161350e-10  4.0333418888582809e-10  7.8362924652882396e-11  7.9298122781971820e-11  1.4991174611607145e-10  3.3026882310323575e-10  1.4811219816618731e-10  2.6290186891836410e-10  1.0977487173527508e-10  1.3974247542853597e-10  1.6245048626296964e-10  3.0009065622039929e-10  1.2625413636049179e-10  3.3222402622182451e-11  1.2121903437871174e-10  1.1294161580725202e-10  1.4776885000043801e-10  2.5564032243270400e-10  1.7362940047542352e-10  3.3929204402440014e-11  1.3041790141572789e-10  2.4266446372528718e-10  2.4447951143341162e-11  3.3407382085809496e-10  1.6357493523824533e-10  3.8371562725891641e-10  1.1796456880078130e-10  2.4422072985697593e-10  3.2457697177724715e-10  7.4399433117797885e-11  1.0640768768783391e-10  2.2767243881738170e-10  6.6681688298757308e-11  4.8775124096590153e-10  1.5336231541465659e-10  9.8226195376815692e-11  1.1251808831531374e-10  2.1421661726534955e-10  5.6009429729461337e-10  4.7361110035181493e-10  1.7482669182699327e-10  1.8002890636077177e-10  2.1633382593647464e-10  4.0432744896349730e-10  4.4286716996378921e-11  2.3213721940572409e-10  7.8936016140125612e-11  1.2525112888879549e-09  1.1607230317990449e-10  4.5673669500813730e-11  5.5071077963885503e-10  3.3940478352616521e-10  2.4681632336122208e-10  2.2550659670681581e-10  6.1962114992730011e-11  1.5325003255402299e-10  3.4195629314080071e-11  4.4497675916641105e-10  7.9819470787079846e-11  1.3043365453196795e-10  1.3063605055268373e-10  6.7210377331557342e-11  3.5015648130086165e-10  3.9859363656105890e-11  1.1567976976511567e-10  2.5003055514174785e-10  1.7805874173040334e-10  7.2237237037085202e-10  9.4741440493629664e-11  5.8608905398807151e-10  1.4840024878316748e-10  3.5126495702214292e-10  5.5045929286356799e-10  2.4100163887459251e-10  1.5333569461663701e-10  2.7238057781836660e-10  4.8362395337575949e-10  3.7499743732256439e-10  7.1590545557168976e-11  5.0421766923509947e-11  1.6381436002866032e-10  3.6141492611143835e-10  1.9248801875629134e-10  1.2297007882608868e-10  1.6709781639338466e-10  8.1151575008300134e-11  7.1535113474485387e-11  2.0294049478401064e-10  5.8392276146829406e-11  2.1243216900068549e-10  9.2116372899562678e-11  4.9258351031272400e-10  5.2730427943697038e-10  8.3198174185936334e-11  3.8973877232075135e-11  4.1955149073603263e-10  6.5582116042757970e-10  2.5741434207544480e-10  9.9081504233538701e-10  2.8893843579495375e-10  3.2003563669868788e-10  2.7006348375968218e-10  2.6456327203772837e-10  9.8957482764332509e-11  2.8411278286247709e-11  1.9804566853647330e-10  1.0113576623052035e-10  2.1410069607964333e-10  7.5639997763634919e-11  1.2952577373651353e-10  2.0473002493568992e-09  1.7624697866661062e-10  7.9372707503004535e-11  8.5561533929176802e-11  4.0652856418003189e-10  2.3980388687343389e-10  1.8994355443927805e-10  2.0779582088533861e-10  4.4202232744843192e-11  7.5932759473923198e-10  2.4788424510502352e-10  5.7080511770987426e-10  2.7482709124241249e-10  2.3552703106188744e-10  3.1575765829543566e-10  9.3574207032399306e-11  3.1291346300237622e-11  3.3442710424409748e-11  3.7058432500715817e-10  3.1656688043282405e-11  1.0836159051707699e-10  1.0453746629277272e-09  7.4257609877518411e-11  3.4204680839830860e-10  2.6555696022263511e-10  6.2976866898013121e-11  5.8908300572760168e-11  1.7364950935213643e-10  2.4794906524575053e-10  4.7098044057552170e-11  1.1057099017502339e-10  1.6383690777232756e-10  7.4304968432326958e-11  1.7662267713690056e-10  2.1128078610530103e-09  3.4740469351985442e-10  3.1877744219422027e-10  1.0686028686816881e-10  1.0791118850879125e-10  1.8203620857050542e-10  7.3777224472122113e-11  1.3382293554763485e-10  4.9590465062976057e-10  8.5249935007998459e-11  2.4108465904612787e-10  2.2554411177881607e-10  1.3941064217835568e-10  4.6860350433404606e-11  7.0519308033239601e-11  4.9593065223024183e-11  1.0541288958935963e-10  1.0702462272876509e-10  2.1585878429120453e-11  5.7338223847423619e-10  2.8472607677530381e-11  6.2730618092519213e-10  1.1819610114406204e-11  1.6110440157477466e-10  1.8889197223541791e-10  2.6566006325430120e-10  1.0390300787053546e-10  2.5907995711093439e-11  8.4772250989016963e-11  2.7075647086769511e-11  2.0935635646434262e-10  3.7501875475533161e-10  2.6594332557906162e-10  3.2637680500586611e-10  1.3393482057883808e-10  8.9495849536069688e-11  5.7782685845567440e-11  3.6403163789697518e-10  5.1226843647258848e-10  1.0853129006293648e-10  1.0008108451287436e-10  1.4449543362898409e-10  7.6034379987460113e-11  4.5152640982075978e-11  4.7505547904817957e-11  2.7622621498028391e-11  8.6570401730665886e-12  1.6356142498347767e-11  8.8386110852117776e-11  1.7899349229893148e-12  8.8623904054046810e-12  1.8630277926803986e-10  3.5156738004755806e-09  2.1516234202863979e-10  3.7367625506815437e-11  2.2350496565169062e-10  9.6585926681007717e-11  1.1543366627326411e-10  4.3760513772563684e-11  1.4949232640321520e-11  7.7023373733639253e-11  7.2678039683971829e-10  7.7388947377286147e-11  1.8580709064847730e-10  3.2928678292911178e-10  5.1744238456696309e-10  9.4192618827208645e-11  1.0151865786582055e-10  5.6787238890459542e-11  7.5074049579085440e-11  1.0605743332400438e-10  5.7460429964107480e-11  7.0537730668581899e-10  5.9552848804209697e-11  2.7789803479293335e-10  8.4802936127096129e-11  1.2572055940917383e-10  3.1574659325531282e-10  4.0957322048732931e-11  5.7729625470134803e-11  2.8065353426073503e-10  1.1101444634417148e-11  1.1658664032321310e-10  8.5194231395355690e-11  7.3013569775266900e-11  5.6641208050517716e-10  1.6385072621485884e-09  3.6347688495175035e-10  2.8687562883045101e-10  8.8988392752850017e-11  7.1497298574774012e-11  2.5961325336369868e-10  1.1971085674767994e-10  9.6554796001736699e-11  1.0231244381605332e-10  2.0750607777591862e-10  7.5456576977494185e-11  5.0039078551776482e-11  6.5389557771426988e-11  3.8227916243104329e-11  8.6104922911466042e-11  1.8991544385251466e-10  1.6493049278041352e-10  1.1092891754369695e-10  3.1542868077255394e-10  4.6142334595463708e-11  1.3859020394178277e-10  5.2343372996044670e-10  6.4019230886683653e-11  1.1099558689414394e-10  1.8078749291416960e-09  5.9954485593994787e-11  3.4115533204990185e-10  5.1523990204663358e-10  1.5699602148081545e-10  1.2611321413648400e-10  1.2589623399399757e-10  8.3518987838265999e-11  2.4477765477455989e-10  2.8695679457468322e-10  1.7926944099496539e-10  4.6592270634614735e-10  4.2992111056018060e-10  1.2516637294541876e-10  2.1531350661355426e-10  6.6575781620282545e-11  8.5510377704430850e-11  6.1983311420409616e-11  2.4203158371546504e-10  4.0132869931854628e-10  3.0894511962547777e-10  3.3161133937836785e-10  8.6513919536711592e-11  2.2311480336790430e-10  4.7124392702344511e-10  1.7695528298461819e-10  4.9630180644943292e-10  1.8001889102915011e-10  1.3765835374209898e-10  1.1129727225400960e-10  5.0346079355703410e-11  5.3464542049986137e-11  3.5748838451269690e-10  6.3298194001385910e-11  6.4271304912292617e-11  1.3162138469110674e-10  3.2362762470641025e-10  3.3575282160571820e-10  1.5780734055262539e-10  1.1514578394436919e-10  5.9656843524627534e-10  6.3827881248466182e-10  1.6134636860041637e-09  2.6861032888592781e-10  1.9555266693627637e-10  4.4220485320553072e-10  4.6058435246885952e-10  1.1727147889521204e-09  2.9945114576689312e-10  2.4838788469837918e-10  3.1214361056118025e-11  1.2926878444212230e-10  4.0888677877161394e-10  6.4431195200016596e-10  2.1942566126191248e-10  6.9789629009241030e-10  3.0827478585942642e-10  1.8982099470641905e-11  5.0374830775379318e-10  3.2753056474375412e-10  3.8183790581965170e-11  3.3243289007523291e-10  4.1012118457715683e-10  5.4534723847555017e-10  1.4586881784325396e-10  6.9268410205058694e-10  1.9503784121835482e-10  4.6139135685012531e-11  1.2610311628045856e-10  1.3291569169238390e-10  3.0012508274735207e-10  7.5763073400102237e-11  2.7825581885900389e-10  1.9036215976423570e-10  6.9512534449886659e-12  1.4580037316022908e-10  5.7003575539384922e-11  8.9517109966711490e-11  1.2421668344515970e-10  6.2561657690483193e-10  4.1574636965503182e-10  3.0382481646805573e-10  1.1567738861526331e-10  1.3561457862695467e-10  8.9852623625665266e-10  5.3997651969550307e-10  1.3803918286190798e-10  1.4226921208989173e-10  8.9900715844437901e-11  4.9814853344841924e-10  1.4434839022018864e-10  1.7909188973018427e-10  9.6588703558442227e-11  6.8960260322888215e-11  6.3578297863323333e-11  1.5449094686383137e-10  9.4594603542527596e-11  1.3342503980270414e-10  4.5654437701572351e-10  7.4864327661213166e-11  6.0563636034234845e-10  1.3116146101572556e-10  2.2496492214580462e-10  2.9174561401390001e-10  5.5129307065269140e-10  1.1347810070845579e-10  4.0514985058866340e-11  6.0532847763794297e-11  1.3993521175004767e-10  1.5530976930709749e-10  5.3444604865667506e-10  8.1404618495258056e-11  1.5576285611439834e-10  2.4488191848759668e-10  1.3606727133094753e-10  2.4191618296130873e-10  3.4220826534301047e-10  3.1697160072594145e-10  1.1023584371103361e-10  1.8058566096497789e-10  1.5210086041478659e-10  2.3024334044628872e-10  3.7294744125118627e-10  3.7971484870382284e-10  2.0312739992037614e-10  2.0862579683787082e-10  1.2507997565401884e-10  1.6536358450771241e-10  3.0119525380145563e-10  3.8887011287170995e-10  3.6589193294749188e-10  1.6475505535593179e-10  2.1780548137006612e-10  1.9839827627198308e-10  1.5212038780132185e-10  4.0372384070342123e-10  2.9274174875482815e-11  1.0809357605258499e-10  1.2922766352029542e-10  4.0614046052034018e-08  4.1349144044518591e-10  1.8077019582015925e-10  6.1216314638894480e-11  2.6116329306080549e-10  1.4153097552948227e-10  6.3876777804056388e-11  1.0554483341293435e-10  2.0435305615370963e-10  2.0821543481751534e-10  1.9377035382715588e-10  1.9350744913180953e-10  3.0533496139943040e-10  6.2879430982218145e-11  7.9830688279803878e-11  1.9843242295855460e-10  1.2309988649439548e-10  3.4542924407413502e-11  4.1314537218029431e-10  6.2939292800977582e-11  6.1027855108030025e-11  1.9412943062894624e-10  9.7093310347135529e-11  2.4067477284241267e-10  3.0063513818869616e-10  2.3506790174161342e-10  8.3636363569036719e-11  1.8525070830513158e-10  9.5642204640377818e-11  2.9433523546379413e-11  8.6600555261525953e-11  5.4827689129539428e-11  7.5465608287216079e-11  2.2270086439876012e-10  4.6025256127139408e-11  6.4896014545861672e-11  9.1820564831886018e-11  9.0957151196012846e-11  9.3345211297044565e-11  2.8298627044785099e-10  8.6306815061924718e-11  1.8285813946199776e-10  2.0376231874497782e-10  9.9814451195108454e-11  1.5925093640532617e-10  3.1643309020462068e-10  1.2345503315014820e-10  6.1747704591701035e-10  1.7635877120944916e-10  1.5069176325190285e-10  1.4001545262149441e-10  2.2632157676469749e-10  4.2226113617699821e-11  3.8422103164305089e-11  7.6213211179646168e-11  4.6235765508091444e-10  1.9575534191601161e-10  6.8074009182440480e-10  4.4836349414311967e-10  1.2187916223760085e-10  5.5878522362401878e-10  3.6739289976864679e-10  1.9449884917257568e-10  7.0227220533303863e-11  9.1550778447749563e-11  1.7170321732081102e-10  1.8841451708519951e-10  3.8153446075666932e-11  5.2502290557752068e-10  2.8705118149177804e-10  4.0576294095914846e-10  4.8564632016156760e-11  3.6989615176569363e-10  2.6392304273319846e-10  5.7631997700279805e-10  7.5456331782388290e-11  5.9435197626551047e-11  2.4368147621702932e-10  7.1949556343117319e-11  4.0571487231159339e-11  1.4420982591934413e-10  2.2833574019833593e-11  6