<?xml version="1.0"?>
<VTKFile type="UnstructuredGrid"  version="0.1"  >
<UnstructuredGrid>
<Piece  NumberOfPoints="4852" NumberOfCells="9430">
<Points>
<DataArray  type="Float64"  NumberOfComponents="3"  format="ascii">-1 0 0  -1 -1 0  0 -1 0  0 0 0  1 0 0  1 1 0  -0.9999999999999999 0.9999999999999999 0  0 1 0  -0.5 1 0  -1 0.5 0  -1 -0.5 0  -0.5 -1 0  0 -0.1608775713298009 0  1 0.5 0  0.5 1 0  0.1967448868031411 0 0  -0.3402377831783034 -0.1756453489144107 0  -0.3361578258268165 0.2237926165985973 0  0.1739131793868976 0.3455994706181658 0  -0.1844722368218309 0.5544411107320562 0  -0.5034346243056429 -0.5370701863138551 0  0.4904543634860255 0.2566346837414252 0  -0.06407212340181313 0.2006383373493386 0  0 -0.5061325913258391 0  -0.25 -1 0  -0.560567492074459 0.57684361238764 0  0.6612432221898298 0.6332538148207632 0  -0.1771633343905578 -0.5374732252486196 0  -0.5383383820924195 0.02526641648837057 0  -0.9999999999999999 0.25 0  -0.2057163993732782 0.02368355244316509 0  -0.6539800368012338 0.3087683397159776 0  -1 -0.25 0  0.03927668411960714 0.591162936536608 0  0.1950980465477577 0.1285562587430407 0  -0.1363331408413399 -0.2196940469385941 0  0.3708069683822006 0.6139111792189333 0  1 0.25 0  0.5355652144809806 0 0  -0.75 -1 0  -1 -0.75 0  -0.6446389552259862 -0.3227552053288406 0  0.25 1 0  -1 0.75 0  0.02757118475249542 0 0  -0.25 1 0  -0.7500000000000001 1 0  1 0.75 0  0.75 1 0  0 -0.02898318711980711 0  0.05430051596821687 0.1419606181912783 0  -0.07753745492166761 -0.02779496163340158 0  -0.7007099980521816 -0.1323353652405515 0  -0.3214146504393784 -0.3470006377448677 0  -0.3394409616652772 0.4367523366335086 0  -0.0996640877851853 0.7638895589588223 0  -0.3824603617608904 0.7022003086169704 0  -0.05452456225763978 0.3983371199771971 0  -0.07867141614313174 0.071802363226566 0  0.3588205865881926 0.3689893091679129 0  -0.7155522682659139 -0.7295540332273682 0  0.4118270599477995 0.08970561928899767 0  0.6899660637232881 0.191329600955136 0  -0.7470828061973048 -0.5265293573472787 0  -0.3874888330659428 -0.7103810242453555 0  0.7215701860007337 0.4180410780684633 0  -0.7756723388798665 0.09673845104062617 0  0.1965622159538483 0.6981991464166902 0  -0.1981317484849486 0.2879639465440398 0  -0.7985014537299425 0.5769371185913527 0  -0.7161958358445263 0.7659757022230085 0  -0.05383251200230135 -0.3731995223326529 0  0.5843827505751896 0.8161438003144184 0  0.8201122657067011 0.8054762627313069 0  -0.1075960454460519 -0.6973038531408045 0  -0.5138828433653668 0.1622498364673271 0  -0.2013408674358385 0.1253375122793075 0  -0.3585830868359088 0.07508932123887554 0  -0.3645854849901858 -0.05239426911382547 0  -0.4959104043733965 0.3944249954138643 0  0.3749999999999999 1 0  1 0.125 0  -0.01175758518076712 0.07108039982374373 0  0.06222789094130377 0.3912770227982908 0  -0.1710895343660336 -0.1223143657884832 0  -0.2423609183763734 0.7733645597980493 0  -0.625 1 0  0.5332298669264326 0.4536504666636299 0  -0.5756152393390875 -0.8298864099057554 0  -0.2579028643159799 -0.7835502425954578 0  -0.3197769579853944 -0.5080937548281024 0  0.8339146547411447 0.5947746296566508 0  -0.5480472752991077 0.7904788595422899 0  0.125 1 0  -0.06732770090059355 -0.0933818755795657 0  -0.4940159605770182 -0.1431751818588274 0  -0.875 -1 0  0.02959188945440527 0.04151991540819967 0  1 0.375 0  -0.875 0.9999999999999999 0  0.05733000587302516 0.793641866078266 0  -0.1963830770559044 -0.3733257201535437 0  -0.07248464981032686 0.5705496406271484 0  0.2363144592349858 0.5173696915839209 0  -0.7919548678904655 0.2290006261636655 0  -0.4947414005773711 -0.388738905059687 0  0.0003030274199347887 0.2706652338235402 0  0.5095885065001524 0.6396440191098631 0  0.3985752255796339 0.8070070199221336 0  -0.8058170926064174 0.4239233830737352 0  -0.06450607075973983 -0.2203426896670429 0  -0.7091912539570318 -0.01425592959158131 0  0.09053000113023837 0.05234842451892118 0  -0.4776820477229268 -0.2510745619216822 0  0.7238547769618108 0.08273884596613558 0  -0.8083367636507166 -0.4107277067487454 0  0.3375100239699603 0.1532593859167849 0  -0.7942108803957509 -0.2506128433757143 0  0.2362935787708361 0.2539009095550227 0  -0.9999999999999999 -0.8749999999999999 0  -0.9999999999999999 0.875 0  0.1843173923899383 0.04776178136234301 0  -0.247219376535568 -0.228925947984118 0  -1 0.375 0  -0.1707245355798897 -0.04175984758954884 0  -0.6482055026011466 0.4668728864893451 0  0 -0.07736776745332727 0  0.0804922442879078 0.2594526021579233 0  -0.375 1 0  -0.216240482234229 0.4242328824057667 0  -0.1196894184412571 0.1498579149030122 0  0.1331746033450034 0.55365790363725 0  0.131965222732898 0.1934290042968256 0  -0.4740728344745005 0.2689891817470184 0  -0.04606236159908072 0.01388064102315129 0  0.8514866372028675 0.3698245036748372 0  -1 -0.125 0  0.2853939501455061 0.836624184337964 0  -0.1103368652944883 0.3125593724867234 0  -0.125 -1 0  0 -0.7575037395175259 0  0.07821397079968176 0 0  -1 -0.375 0  -0.375 -0.9999999999999999 0  -0.625 -1 0  0.7474787146812756 0 0  0.625 1 0  0 -0.2918843213980812 0  -1 0.625 0  -1 0.125 0  -0.9999999999999999 -0.625 0  0.3284075310660084 0 0  0.004929205892015135 0 0  -0.125 1 0  0 -0.006571003003944568 0  1 0.625 0  1 0.8750000000000001 0  0.875 1 0  -0.5621966926836789 -0.6760404932484446 0  -0.004538892483767136 0.1599374725911755 0  0.3623207669493757 0.2626751754777915 0  0.6529605203066299 0.2935132616612323 0  -0.8544572733668591 -0.6461869668139932 0  -0.8631704986945306 0.7867940204221672 0  0.4302750035242885 0.500866702913175 0  -0.3980849002645331 0.8556480037558098 0  -0.7784154096804659 -0.8746109087552759 0  -0.870251991577499 -0.7840430181103701 0  0.1540389607830977 0.8420020198102843 0  -0.658067121797793 0.1523184631877858 0  -0.5771276408883741 -0.06416501294020913 0  -0.854356114052033 -0.06258579203066519 0  -0.2952341590318809 0.5617434161994208 0  -0.4229410698328505 0.5694748313790465 0  -0.3753555676519331 0.3305411357099114 0  -0.6179116361596954 -0.2162126213393994 0  -0.2724202642818918 -0.09001395164277137 0  -0.6395958937305247 -0.5881014650364256 0  0.8597516332991851 0.2658079641972354 0  -0.0327538679274816 -0.03293448925310596 0  -0.05453705521005807 0.114365316834428 0  -0.1332483294378878 0.4315519520257815 0  -0.1195128579005416 0.03231588163208025 0  0.5377549681819314 0.06450581587276184 0  0.5791571223035425 0.3588615962012245 0  0.6910539823482577 0.7743821742522168 0  -0.7931033958176193 0.8809893060582475 0  -0.6428775408686149 -0.4288202340513035 0  -0.1177327476618975 -0.3967786317955667 0  0.8722488982390276 0.4883152538625027 0  0.07599425277739197 0.09369524913793981 0  -0.6642423267411438 0.8679530596503527 0  0.454546111100002 0.3502192024147058 0  -0.02619867787449572 0.03576145770715621 0  -0.4088587147461375 -0.4399418711358066 0  -0.3614954364078854 -0.2686055221637883 0  0.3233753428742258 0.4813550455771268 0  -0.195581814464388 0.2011793831727413 0  0.7055416875509894 0.5303551977090595 0  0.2617300106338561 0.3556872393502231 0  -0.3765877274453347 -0.8517674775676469 0  0.1091489383160721 0.6816973263472741 0  -0.2851738875692079 -0.6117397107403632 0  -0.4410338656315055 -0.6197928252703706 0  0.2959740251046982 0.6920017890639907 0  -0.8747476748991055 -0.1747034770616815 0  -0.179767279175974 0.8548069681810806 0  0.4547226673949218 0.1631605053457893 0  0.280279367596419 0.0466050490358302 0  -0.1419010308146123 0.6571641821317463 0  -0.01119549150193708 0.7083666598092165 0  -0.05324228025942222 0.8748887790165982 0  0.005591006423684317 0.4694344456831357 0  -0.3871291968177622 0.1531881059235394 0  0.5491445827069218 0.1330496184964096 0  -0.4752124625630265 0.6820959442475176 0  -0.8513074997800056 0.3324657261769975 0  -0.0935026117064843 -0.536069957611327 0  -0.03197433657488345 -0.5519699941697982 0  -0.2136518304509388 -0.287432232561631 0  0.8685246161375111 0.1514196488822165 0  -0.1707368104093592 -0.6608872210134087 0  -0.8891029530601967 -0.5281674574771875 0  -0.28112068623697 0.3379088127529092 0  -0.6757563439479474 0.5736941323344696 0  -0.8973228443737076 0.5311551877194145 0  -0.8982084011749428 0.6606722325484278 0  -0.6439795500289497 0.07214890828136768 0  -0.8589404493115638 0.02844702239065573 0  -0.8879952776138373 0.1677368346368148 0  -0.1297663266044854 0.2286525682178777 0  0.1603116681701171 0.4458264598599496 0  -0.04349867391672638 -0.1257558386280496 0  -0.7530174195742907 0.6697146209129606 0  -0.6018590946674623 0.6976514108918382 0  -0.253973484389344 0.078384447051151 0  -0.2487489487731762 0.6485132576277963 0  -0.02737104380841117 -0.006371255279494684 0  -0.4939875548055593 0.8769099160234285 0  -0.4762258859345596 0.4901096410308804 0  -0.2899626694355008 0.1438122777091214 0  0.002314522110475841 0.02357824134877952 0  0.7793538118131843 0.6831813087571621 0  -0.4696673207644637 -0.8246298260189174 0  0.2719260443005121 0.1947575249431518 0  -0.1492187693564907 -0.8633104995912089 0  -0.06635061124653391 -0.8298660523916398 0  0.4430791962602375 0.7056799934017949 0  -0.1178516759464458 -0.2879774675604733 0  -0.2645151089760318 -0.02621138932081923 0  -0.8936607348249888 -0.8963695777544914 0  -0.5724389794566073 0.2367681336859561 0  -0.4756697338029302 0.08735358370362324 0  0.4909294834811335 0.8255910608550497 0  -0.02873373815658568 -0.2599874672151324 0  -0.3097164299717231 0.8752828566433063 0  -0.1427158004392224 0.08039978201761831 0  -0.4688529725279808 -0.03496826006840482 0  -0.3875163417035296 0.01201636887978418 0  -0.2913016039673274 0.02746789514492325 0  -0.3844981410242637 -0.120413894584486 0  0.8880984085188861 0.6977504082697277 0  0.7924531403961864 0.9105443120300122 0  0.576615966538391 0.207707804661206 0  -0.5597006450148121 -0.4690174856925404 0  0.5985804320227601 0.7056152265118358 0  0.6780129743080755 0.8881356182064801 0  -0.05078547303310006 0.3028016939710367 0  -0.9020595519885409 0.9045622210080075 0  -0.1272955354308264 -0.06710081942851108 0  -0.168873
[...]
<PointData  Scalars="w"> 
<DataArray  type="Float64"  Name="w"  format="ascii">1.7552850870405305e-10  1.0398902059872356e-11  4.4558214443259088e-10  2.5827270056553310e-09  6.2390811946740877e-10  1.5706857527531689e-12  8.6930075141233194e-12  7.5113478512953856e-11  4.0742617296533604e-11  2.1150601718976484e-11  1.0851091970614906e-10  9.6184010174824802e-11  4.0303551808754554e-10  2.7855674970371188e-10  9.1830241975331521e-12  5.2335584584818267e-10  9.0816225559963277e-11  7.2408259397359467e-11  1.3063264393076963e-10  3.5671225115959156e-10  6.7038159303322283e-11  1.0429739660493987e-10  5.7326974229299502e-10  2.0048512727316238e-07  5.7571513862870372e-10  1.0891278036709494e-10  8.9296592088307542e-11  1.6989988171964525e-10  7.6666011878897750e-11  1.8840449862274549e-11  4.6784481704349186e-10  9.8238728760659708e-11  2.4416390217910229e-10  1.8139480197879476e-10  4.5321603589002993e-10  2.2499354924176208e-10  7.8321873385454478e-11  4.7873675504657612e-10  5.8613579621758824e-10  3.1419113811702162e-11  5.3111801466746662e-11  1.0825017761801870e-10  9.2990599275095738e-11  1.9924744236320137e-11  1.0469448661896244e-09  8.7993558335114489e-11  3.2176645047960702e-11  9.7078153074104477e-11  1.2348795311871177e-12  5.8775114750180186e-10  2.2032884284328302e-10  2.1325914107252403e-10  8.2726463078751499e-11  2.5146914089536941e-10  2.6092230866786204e-10  2.0570179388383932e-10  3.5860193302342124e-10  8.9336366631400902e-11  5.7726310256824183e-10  2.5153585598208914e-10  3.1430243857827001e-11  3.1410450446219399e-10  3.7879389169597653e-10  1.4435986987181492e-10  5.4140268463659115e-11  1.7833867931215764e-10  7.1025973274928347e-11  1.7862028542867630e-10  2.3317958772204401e-10  4.6374574766260842e-11  6.5093876940377610e-11  4.2441797622954695e-10  5.7132813011912457e-11  8.8709427687085383e-11  1.7032632709255303e-10  1.7079238093787311e-10  2.5651956248397661e-10  2.9099591926671266e-10  1.8279494206992666e-10  1.9604696377925976e-10  6.5432692555930335e-11  2.5231960000578178e-10  2.6180517273472010e-10  2.0132329064653988e-10  2.3397268518518510e-10  1.2539313167986512e-10  4.7072139339490762e-11  1.1013625659261545e-10  9.4742678660427188e-11  2.5108660133936445e-10  6.9201553420464141e-11  9.9837502161660903e-11  7.8814938344271709e-11  9.4855013634528212e-11  3.8900453789229454e-10  2.0980072077372359e-10  2.5703995379871915e-11  6.5113139870563526e-10  2.5699321171162672e-10  3.1846600083362397e-11  2.7811784162592478e-10  4.1062146332395965e-10  7.1054059234819464e-11  9.7335562051718467e-11  1.5772900866194247e-10  6.3647456528178589e-11  2.7349500163769456e-10  8.3596075833781556e-11  1.4738735714203228e-10  6.6510759211280039e-11  3.1212983666666536e-10  2.4799513388773341e-10  2.3129467273431929e-10  6.4364253141029421e-10  1.2084687380455133e-09  1.5003609760543205e-10  1.6476402394272302e-10  1.0285516860318421e-10  4.5800735876433659e-10  2.6136438447953972e-11  2.5834321005189214e-11  2.7754270826623097e-10  9.1060359315765705e-11  6.1621229226495902e-11  5.0123337944086892e-10  5.7878836276256500e-11  5.9561613175237735e-10  1.1854568047732000e-10  7.7301336796925257e-11  8.2804466373892365e-11  3.4156044787194712e-10  1.7352256465370798e-10  4.6426224671887628e-10  1.3585074819558320e-10  6.1798433501656837e-10  4.4659085374581205e-10  1.0969253308386047e-10  5.2353654054674979e-11  1.2989250605501675e-10  2.5649369281138725e-10  4.4909329489420716e-10  6.0204274548084521e-10  9.3737967136050531e-11  1.1900692337127552e-10  6.9322674976872856e-11  6.5556385725042454e-10  8.6993446629240906e-11  3.3577450053185083e-10  1.4882755952456753e-10  1.2472721514531004e-10  2.0217171785985132e-11  2.8283873380066739e-10  1.5702094194121715e-09  5.7091970343427981e-11  9.5800631342922383e-10  7.9722384252769351e-11  2.4866275720887001e-11  2.4538978878489083e-11  1.2195009530796644e-10  5.5927438552379048e-10  4.4404813780932296e-10  1.6097661252262593e-10  1.1602963996199574e-10  1.6840983799171063e-10  1.8774868787650402e-10  5.9015453844755653e-11  7.8444350654324570e-11  2.0578159802615350e-11  6.0397857556139534e-11  2.9637478914593014e-10  9.2437919175024968e-11  1.0637226850461768e-10  8.3089491755229759e-11  9.6883406582730628e-11  5.3544900865419222e-11  9.6171320949620780e-11  4.5528907349475525e-10  5.7208755314173808e-11  1.6404724786296443e-10  1.7131141723909380e-10  4.6255947360871596e-10  1.9851204132653335e-10  2.8203509082552236e-10  1.4266816264746936e-10  1.4491784789862628e-10  1.5122709555619411e-10  2.1199495504760623e-11  2.8796248238039336e-10  6.4503638251306867e-10  2.5746853579250870e-11  2.5090546717525224e-10  8.9877084610095127e-11  1.5781149759688981e-10  1.1042190705813241e-09  1.3682102319153153e-10  1.6307907792380415e-10  2.3398912420008669e-10  2.8733961276642872e-10  1.0653194810135597e-10  2.0447905110941615e-10  4.1963758458540648e-10  2.1917054355615725e-10  2.3941008532253444e-10  1.0984234656160734e-10  1.1301079231036795e-10  1.1342627225208317e-10  7.1722492694724184e-11  2.0809319896592108e-10  8.8254854863807377e-10  7.8274160542989222e-11  1.0890283008937759e-10  7.7828575146743640e-11  9.7056254034555542e-11  1.6256451208419062e-10  3.7698400650553838e-10  7.9631142279405869e-11  8.5938501531637197e-11  7.8479975094552880e-10  8.2474785426735200e-10  2.9165986312070182e-10  1.9967582012727101e-10  7.5762918474938941e-11  8.1504498462521970e-11  3.3683049605220450e-10  5.9227540967263029e-11  8.4155287172925193e-11  5.0552821566194449e-11  9.3706835144787259e-11  4.1660641792330393e-10  9.1063239017305183e-11  1.9733704743534355e-10  1.6644272245944034e-10  8.9825096993067922e-10  6.2355011277670315e-11  2.0020180283525385e-10  1.1527470258242810e-10  1.1282900922038536e-10  7.4401869897047548e-10  7.5842901844654875e-11  8.5745283530163046e-11  1.1825561454932594e-10  1.1053319093161830e-09  4.1393407894819812e-11  7.7995765208568519e-11  2.7850039354398844e-10  2.5023701960218043e-10  3.4549045680671582e-10  1.8345505485463314e-10  2.0544191952963366e-10  4.0393578459641469e-10  2.9722015445428936e-11  1.0595665751104832e-10  1.2849632408001111e-10  3.7852259190048399e-11  2.6457880880281530e-10  4.4274528575446678e-11  3.3266950332853637e-10  1.3616307035279111e-10  1.1051828051692022e-10  1.9152362901941416e-10  5.0263814641792027e-10  7.3566969587173433e-11  2.7213543221907241e-11  1.4478788858220872e-10  8.2142627508780220e-11  5.9878688423355196e-11  7.7010598322134811e-11  1.7899151072039366e-10  4.9824188324428175e-11  2.6318049893407626e-10  2.5396389972864146e-10  1.2854753469018745e-10  1.2839941564496717e-10  1.3867140405276437e-11  7.1458939216984357e-11  1.4624134630068769e-10  1.6963957831503765e-10  4.9599007300340271e-10  3.7024876480515101e-11  8.2468074277994763e-11  3.3674777609056377e-11  2.3816978732302476e-10  1.2639987056211292e-10  1.8615842531524215e-10  7.5244184332177719e-11  8.8641510842959906e-11  1.2045493709567257e-10  2.0335763276683710e-10  2.2368051916930980e-10  2.6159729077274415e-10  4.3649640911261716e-10  2.1420606453259418e-10  2.0961301565133848e-10  1.4538745923974017e-10  7.9709222625548610e-11  1.7019806998564281e-10  1.6487502801716565e-10  6.2360262809506046e-10  1.2974701402301967e-10  6.2627110243272300e-11  4.0626927320019200e-10  1.8943635972582575e-10  2.0990649439926409e-10  1.2730491098933631e-10  3.3034735948576251e-11  4.5063602661572368e-11  9.9559292216298096e-11  6.7690749274712749e-10  2.9266723686056166e-10  1.8119957639178274e-10  1.3704149158456987e-10  3.3494379262579279e-10  6.7239751305800165e-11  1.0919505476500907e-10  3.5192367417164297e-10  9.7908111926741175e-10  9.9469219694675030e-11  2.8212412119385872e-10  6.1221113420567850e-10  1.2263480124045938e-09  1.9711154123037930e-10  1.5235592500849370e-09  4.1751046325156155e-10  2.2588600157204049e-10  1.1617274546393545e-10  4.2219961180712805e-11  6.6423143182665998e-11  1.2646662031417580e-10  1.5738156734720972e-10  6.4217947596327877e-11  9.8816559015472683e-11  1.0690123642123551e-10  1.2794630288948094e-10  1.9224015061065311e-10  4.9584230423744096e-10  3.1844607032102615e-10  1.6635742070885387e-10  9.6400837213400316e-11  6.1966406597387215e-11  5.9343685517754602e-11  7.0909823906651394e-11  1.8259427611004607e-10  2.2836209041098798e-10  1.0656629657645452e-10  1.0633253374686497e-10  2.3979737640560437e-10  1.3705535317413963e-10  7.0276856993148906e-11  5.9782437188962978e-11  1.0562569356498313e-10  3.4516565234242559e-11  1.8781171599450334e-10  3.3155593821460013e-11  1.6092951375028526e-10  1.7931259175746444e-10  1.5127558350135958e-10  3.9988802862538538e-10  7.9729885048997640e-11  8.3680690817581065e-11  1.4557561941195170e-10  3.0864044865405474e-10  1.4274288890176018e-10  2.6341919760393100e-10  1.1128396965415432e-10  1.3619244404668120e-10  1.5832143892560729e-10  2.7720681656367146e-10  1.2741998027978663e-10  3.3963599500634162e-11  1.1827311002445259e-10  1.1246009855242100e-10  1.4863185096172697e-10  2.5480948618524136e-10  1.7187859631626134e-10  3.5225274776341681e-11  1.2994257222833585e-10  2.3123779479731141e-10  2.9495070206814177e-11  3.3019224245290580e-10  1.6342731377168286e-10  3.8824957486350077e-10  1.1232030183522558e-10  2.3812637186247945e-10  3.2588675947635067e-10  7.6192724251720618e-11  1.0607641527953642e-10  2.1880948333912951e-10  7.4435014424230713e-11  4.8233144484313445e-10  1.5977395659555581e-10  9.8787376936381649e-11  1.0903211904559462e-10  2.1042210560284409e-10  5.3974230682029693e-10  4.7620982819808508e-10  1.8003295891236947e-10  1.7255153576213656e-10  2.0912319451387406e-10  4.0307252528508657e-10  4.5775099679050586e-11  2.2647314614047790e-10  8.2418748570442012e-11  1.2381893754452135e-09  1.1838055148721323e-10  4.6175951658006200e-11  5.4781597256753234e-10  3.2999353993069795e-10  2.4681373530149435e-10  2.1141348848983635e-10  6.4577605405673495e-11  1.5423657316434211e-10  3.3711307499750322e-11  4.3767186174340723e-10  8.2830659544973819e-11  1.3871143538742817e-10  1.2766813119879921e-10  6.6376529262286514e-11  3.4882549247066482e-10  4.3589124354518540e-11  1.1877158958288890e-10  2.4323756866649294e-10  1.7859896404745466e-10  7.1051995829135398e-10  9.3125886267321363e-11  5.7477596520445575e-10  1.4896046633034315e-10  3.5345310585205593e-10  5.4728474026903803e-10  2.4346268592803308e-10  1.5527874740116103e-10  2.7180693669490394e-10  4.7931253451554368e-10  3.4404918700557064e-10  7.6055440758667308e-11  4.9625416575887528e-11  1.6327460815768939e-10  3.5575788448316510e-10  1.8715014495856153e-10  1.2741237307942296e-10  1.7251847848143615e-10  8.1857073979422299e-11  7.1860078642995089e-11  1.9955158539326268e-10  5.8406924679884978e-11  2.0776220723855233e-10  9.0770876492692298e-11  4.7876773265957283e-10  4.9730200020815974e-10  8.2294989230707276e-11  4.2073993736510671e-11  3.9534181549107895e-10  6.4740482047917200e-10  2.5890733711179190e-10  9.8215138143208509e-10  2.8753798062999065e-10  3.1653314419434531e-10  2.7200099250877418e-10  2.6549401080783012e-10  9.7943795872147391e-11  3.1563005851651059e-11  1.9437251969258559e-10  1.0651404060466472e-10  2.1584208618514192e-10  7.5402155320093503e-11  1.2428324114510755e-10  2.0360023146533576e-09  1.7677743169964736e-10  8.1383588606342735e-11  8.2744927884530309e-11  3.9830498820106586e-10  2.4268699206194253e-10  1.8972265125916355e-10  2.0798847397985325e-10  4.4935694521963430e-11  7.5450644628227005e-10  2.4189081797836475e-10  5.3444310221945940e-10  2.4818125531339337e-10  2.4328192069944923e-10  3.1272280357760820e-10  9.4537214149193990e-11  3.3266690098502768e-11  3.6390400260773872e-11  3.6709099821213801e-10  3.6400171456921646e-11  1.1784652022382563e-10  1.0182040242505470e-09  7.5283020596153665e-11  3.5287814018175010e-10  2.6349349833272092e-10  6.2148545074032762e-11  6.0371265244819865e-11  1.7959393764450883e-10  2.4494977784036312e-10  4.8881591123658019e-11  1.1348296440229700e-10  1.6166435357864149e-10  7.5809475565325069e-11  1.7063767454999581e-10  2.1188093311612799e-09  3.5716048914487469e-10  3.1933466721151774e-10  1.0680980070036194e-10  1.0840725198292692e-10  1.8929767792761908e-10  8.1210743556071229e-11  1.3458061535491680e-10  4.9944159041132800e-10  8.7234908258039272e-11  2.4322208024668219e-10  2.1595666470241159e-10  1.3897977096033658e-10  5.1720964943802776e-11  7.8723910942967283e-11  5.6252690018916032e-11  3.9847299943445992e-10  1.0684363839449053e-10  2.2157102858112626e-11  5.7014708630159814e-10  3.1005026573300022e-11  6.2043581521728675e-10  1.1751836493521704e-11  7.1105689090449731e-10  1.7360624390796094e-10  2.4720403724703957e-10  1.0551800774749363e-10  2.8942234078133603e-11  8.5948759633906010e-11  2.8152744008311183e-11  2.0821557313303487e-10  3.7225199284305513e-10  2.7168791875804214e-10  3.2739212654071333e-10  1.3422811382753705e-10  9.4637448536772953e-11  6.4022497334739912e-11  3.6040890240186197e-10  5.0364239009636140e-10  1.0620988587858224e-10  1.0124063725314741e-10  1.4745903987441443e-10  7.6962232654217891e-11  4.5796433682250396e-11  5.5412912127861941e-11  3.2449798837941303e-11  8.9051477445021136e-12  1.7949687338353215e-11  9.9757297859247468e-11  2.2673238170397698e-12  1.1150426344558504e-11  1.8591488274352881e-10  3.4884237152866193e-09  2.2597586535108460e-10  4.2925568655255570e-11  2.2000467463035406e-10  9.3538982344334301e-11  1.1244938720186265e-10  4.4179557691890447e-11  1.7252881457443846e-11  8.8829564941103118e-11  7.2533809800527289e-10  8.0231165072462661e-11  1.8337272831209238e-10  3.2383131147688130e-10  4.8378023480521993e-10  9.6482217217408248e-11  1.0187508420094054e-10  5.8628617959809090e-11  7.7158339493100121e-11  1.1324347075935298e-10  5.7908271166707926e-11  6.0567590799191380e-10  5.9110797451541952e-11  2.7718804243535296e-10  8.8431385020445750e-11  1.2804352321630825e-10  3.1300266892221583e-10  4.1748072161828358e-11  6.3728416687707996e-11  2.8872117985749146e-10  1.2033808410661685e-11  1.1366112677796801e-10  8.8570208981985824e-11  7.7191917881132391e-11  5.6069044842621691e-10  1.6135892711783883e-09  2.9110295198096570e-10  2.8864250353477945e-10  9.0887551422166331e-11  6.9706065312003952e-11  2.5535955230813066e-10  1.1796453835669876e-10  1.0046928753765521e-10  1.0510518320584517e-10  1.9937507747309128e-10  7.4392078127721790e-11  5.3159916238077551e-11  7.1161634363113913e-11  4.0062641257909662e-11  8.7106228477579671e-11  1.9089257777948172e-10  1.6188407095157635e-10  1.1157873350221843e-10  2.7383002783380134e-10  4.7550841402459054e-11  1.3626890475721938e-10  5.2076842285389538e-10  6.7192531482545643e-11  1.1813022045413000e-10  1.3176668327332146e-09  5.8403979892410657e-11  3.3463422846231191e-10  5.0962960197446855e-10  1.5782518840914904e-10  1.2884498519442598e-10  1.2568262884198411e-10  9.0775315852524133e-11  2.4736540301512439e-10  2.8539454003924852e-10  1.7750748199114022e-10  4.6663045270160932e-10  4.2225996931759969e-10  1.2216960541736158e-10  2.1156446972141955e-10  6.7043570935446859e-11  8.5317871010413766e-11  6.2948487222636630e-11  2.4001771195834638e-10  4.0039476054075594e-10  3.0750870186731754e-10  3.2331768753937696e-10  8.6262621461868524e-11  2.2711504861187876e-10  4.7844700340810263e-10  1.7219843211458032e-10  4.8235088378737101e-10  1.8372931901184352e-10  1.3792871831888754e-10  1.1158196651657750e-10  5.1432004745973736e-11  5.4803370707706110e-11  3.3020558625742979e-10  6.3124924251481476e-11  6.4887215549928047e-11  1.2974347179107460e-10  3.2098626639003303e-10  3.1866076834841865e-10  1.5741981472513446e-10  1.1767961188765883e-10  5.8866037403979719e-10  6.2582396932797254e-10  1.5932551432347436e-09  2.6713767068250758e-10  1.9864606289226607e-10  4.4204308749631270e-10  4.5399708165707790e-10  1.1623286936404109e-09  2.9569901865259537e-10  2.4782252574776957e-10  3.3277059887938168e-11  1.3006193271892029e-10  3.1661590778079970e-10  4.8422280065782394e-10  2.1239197973619471e-10  6.5889940908021779e-10  3.0637236119796951e-10  2.1710799564823933e-11  4.7974917556801383e-10  3.3451716185342903e-10  3.8825104675224730e-11  3.3365998369903463e-10  4.1392066009815252e-10  5.4306080180345994e-10  1.4560112457016122e-10  6.7067414161929234e-10  1.9562478455723481e-10  4.7552792951353686e-11  1.2763023108740612e-10  1.3292513413587436e-10  3.1734748833505410e-10  7.9437853034320325e-11  2.6536371559941101e-10  1.9627527315529385e-10  8.2399976567389733e-12  2.5937878529367513e-10  5.8390740888647272e-11  9.0470111386485244e-11  1.2446035064143561e-10  6.3007122911405108e-10  4.1114928280843852e-10  3.0332434718464569e-10  1.1708717591120653e-10  1.3270502187138549e-10  8.9601662047008924e-10  5.3793081505256943e-10  1.3457164412834666e-10  1.4195548032910481e-10  9.3203806694628614e-11  4.8633277161090813e-10  1.3920743898290624e-10  1.7541697027690372e-10  9.5545870822552772e-11  7.0855680955152189e-11  6.3595268612234009e-11  1.5007494872486216e-10  9.8403095978725892e-11  1.2958404146479465e-10  4.3686263556449424e-10  7.7206603486899984e-11  5.9433783162362484e-10  1.2794737014654727e-10  2.2401716152063681e-10  2.8182710521328648e-10  5.4763541725034944e-10  1.1656710868655854e-10  4.1310120877634302e-11  6.3427077011132785e-11  1.4194142310863635e-10  1.5909715626386078e-10  5.1759333072959761e-10  8.4829515868834640e-11  1.6324256287917387e-10  2.5271493042076361e-10  1.3728856277266557e-10  2.3586140871041191e-10  3.3131950778065414e-10  3.1093670427114259e-10  1.0532871116509959e-10  1.7487988307284715e-10  1.4879291770322631e-10  2.2820006975555050e-10  4.3984872258317139e-10  3.7317791166490922e-10  2.0171066314366348e-10  2.0705597245823235e-10  1.2571166791791549e-10  1.7304238972634244e-10  2.9963344766670076e-10  3.8057931701183714e-10  3.6118247422945293e-10  1.6581162959392142e-10  2.1996099858136260e-10  1.9410963038216139e-10  1.5511835554781038e-10  3.9913854464772669e-10  3.1931624022963704e-11  1.0552236230728710e-10  1.2627355804327881e-10  1.6767283416262733e-08  4.0632640885571470e-10  1.7731948924690824e-10  6.1120132974696426e-11  2.5652040934210275e-10  1.3828868613483925e-10  6.4738718750254403e-11  1.0597756635123753e-10  2.0245335100040435e-10  2.0648734624812532e-10  1.9530366888722427e-10  1.8962678799756724e-10  3.0970103944073534e-10  6.5673048185055315e-11  8.0362926189290528e-11  1.9176624282548747e-10  1.2203290730639276e-10  3.5666567989743840e-11  4.0275677531850834e-10  6.5019275544474164e-11  6.2277369970545569e-11  1.9334140083181573e-10  9.9489413102248960e-11  2.3754658610777843e-10  2.9231472333985255e-10  1.0211573002024607e-09  7.7742748058858635e-11  1.8829710856411156e-10  9.6752201096677974e-11  3.2983184120265355e-11  9.1328301050405405e-11  5.8397299197210726e-11  7.8626559535630532e-11  2.2478510683772508e-10  4.7640303505668204e-11  6.6763327796370124e-11  9.4987223688082366e-11  9.4258869299464203e-11  9.4179184439020810e-11  2.4818864135357213e-10  8.7727459206053512e-11  1.8375347638641986e-10  2.0065890372591711e-10  9.8298166928018298e-11  1.6075413642992531e-10  3.1499713836127086e-10  1.2466640310607802e-10  6.1379616514840434e-10  1.7140985880344527e-10  1.4962371553658235e-10  1.3839731948486543e-10  2.2994391569385533e-10  4.4396098170439589e-11  4.0248699849726184e-11  7.7359222272797699e-11  4.3281640272185450e-10  1.9957754749143142e-10  6.3462209847177810e-10  4.4158357432645748e-10  1.2148387333628005e-10  5.4649084031069220e-10  3.6501111213590674e-10  1.8915201097327828e-10  7.1137886642242447e-11  9.3986357545781213e-11  1.7423615031804776e-10  1.8762492146749385e-10  4.1937760630395623e-11  4.7969953431784669e-10  2.7727269506378661e-10  2.9597005515860981e-10  5.4035343110901276e-11  3.5117880441672473e-10  2.6621295809251262e-10  5.7682600571353566e-10  7.3616246470682614e-11  6.2041350379561366e-11  2.3900046537501454e-10  7.3072635523829095e-11  4.2928008184113506e-11  1.4881631499725080e-10  2.4493618907105439e-11  6