<?xml version="1.0"?>
<VTKFile type="UnstructuredGrid"  version="0.1"  >
<UnstructuredGrid>
<Piece  NumberOfPoints="4852" NumberOfCells="9430">
<Points>
<DataArray  type="Float64"  NumberOfComponents="3"  format="ascii">-1 0 0  -1 -1 0  0 -1 0  0 0 0  1 0 0  1 1 0  -1 1 0  0 1 0  -0.4999999999999999 0.9999999999999999 0  -1 0.5 0  -1 -0.5 0  -0.5 -1 0  0 -0.1608775713298009 0  1 0.5 0  0.5 1 0  0.1967448868031411 0 0  -0.3401910164639214 -0.1757438955458636 0  -0.3363060091445105 0.2236901330723056 0  0.1738310789997687 0.3456379446953149 0  -0.1846389532630695 0.5544732829361622 0  -0.5035032247363338 -0.5371361692245515 0  0.490410720709916 0.2565081165210961 0  -0.06420351803895467 0.2007177463391893 0  0 -0.5061325913258391 0  -0.25 -1 0  -0.5608933420685197 0.5768255533775376 0  0.6613156213052586 0.6333012140433448 0  -0.176829267557322 -0.5374582013174892 0  -0.5383429539886502 0.02504033600918655 0  -1 0.25 0  -0.2057757296662091 0.02359975047585763 0  -0.6540939828575323 0.3088050378841445 0  -1 -0.25 0  0.03918669428741622 0.5912231802609583 0  0.1950476515414153 0.1285824638503631 0  -0.1361230028979416 -0.219770687627991 0  0.370807350001759 0.6138693423704182 0  1 0.25 0  0.5355652144809806 0 0  -0.75 -1 0  -1 -0.75 0  -0.6446468543343516 -0.3228455948313692 0  0.25 1 0  -1 0.75 0  0.02757118475249542 0 0  -0.25 1 0  -0.75 1 0  0.9999999999999999 0.75 0  0.75 1 0  0 -0.02898318711980711 0  0.05423246920546144 0.1420501727758225 0  -0.07756808852581613 -0.02778410318988605 0  -0.7007225020416373 -0.132498363157337 0  -0.3213546211520555 -0.3470436065590307 0  -0.3396178500017258 0.4366931877377417 0  -0.0997430773029342 0.7638888038203981 0  -0.3826752640744487 0.7022505044692604 0  -0.05463942441964115 0.3983993594290182 0  -0.0787616031123287 0.07184648465845327 0  0.358752695304609 0.3689605612236053 0  -0.7158623118804873 -0.7297594807763853 0  0.4117895419206584 0.08965999684491724 0  0.6899555030030393 0.191253550460883 0  -0.7472329883789801 -0.5267216503326403 0  -0.3875390130489251 -0.7104060072663519 0  0.7215519248304898 0.4180125859288833 0  -0.7757523074046091 0.09666465181056663 0  0.1966149821107077 0.6982525533843498 0  -0.1982819995867068 0.2879627802296248 0  -0.7986442845852205 0.5771321115340619 0  -0.7166050948552083 0.7660995931125028 0  -0.04782460337214933 -0.3734935837682237 0  0.5845373610930218 0.8163290694825532 0  0.8203013437486516 0.8058533116401356 0  -0.1055688266989516 -0.6971425794865829 0  -0.51392016584456 0.162146138625806 0  -0.2014557987589366 0.1252972307402245 0  -0.3586411202916158 0.07491580953193003 0  -0.3645863517661865 -0.05254020377970711 0  -0.4961204494654089 0.3943639249344562 0  0.375 1 0  1 0.125 0  -0.01181224627854857 0.07116639637466571 0  0.06211632554212465 0.3913563524437936 0  -0.1710737444738724 -0.1223552321702576 0  -0.2426030818576163 0.7733732675007342 0  -0.625 1 0  0.5332561390348409 0.4535742026921611 0  -0.5758601799529978 -0.8299496404830357 0  -0.2578080548131517 -0.7834995802104929 0  -0.3197401378730028 -0.508097229056063 0  0.8339448036791473 0.5948681520918296 0  -0.5483009425092417 0.7905561214210474 0  0.125 1 0  -0.06732564999870475 -0.0933821989480396 0  -0.4940463931004512 -0.1433330047846225 0  -0.875 -1 0  0.02956548874531633 0.0415758774595745 0  1 0.375 0  -0.8749999999999999 1 0  0.05732761718648553 0.7936951648425511 0  -0.19606208179176 -0.3733348299195954 0  -0.0726205170962711 0.5706054319564968 0  0.2362715724022445 0.5173837577000491 0  -0.7919686037525735 0.2290148675950695 0  -0.4947610431924816 -0.3887920505975075 0  0.0001946367306064086 0.2707479374644864 0  0.5096696389330069 0.6396310074505817 0  0.3986928478404206 0.8070287597691147 0  -0.8058442504196067 0.4240857643312112 0  -0.06400103622889286 -0.2206491178620295 0  -0.7092122354536197 -0.01443737858707158 0  0.09051148233313253 0.05239155455338111 0  -0.4776969952680041 -0.2511820479450654 0  0.7238699522274689 0.08270204425660223 0  -0.8084225555920275 -0.4108493549196601 0  0.3374536808633813 0.1532405294221112 0  -0.7942190429420043 -0.2507672965261413 0  0.2362254270184357 0.2538936961273831 0  -1 -0.875 0  -1 0.8750000000000001 0  0.1842961627775275 0.04778553550085475 0  -0.2471470484848374 -0.2289648906048685 0  -1 0.375 0  -0.1707477995427502 -0.04182289749921347 0  -0.6484081018393256 0.4668935757826376 0  0 -0.07736776745332727 0  0.08041171436147795 0.2595410573325354 0  -0.375 1 0  -0.2164761930429057 0.4242125408755222 0  -0.1198144460303699 0.1498959631250913 0  0.1331507508668819 0.5536790491860778 0  0.1319030266936347 0.1934954265363593 0  -0.4742009405216075 0.2688697523321515 0  -0.046107901029438 0.01393200273709808 0  0.8514472057614805 0.3698532369260566 0  -1 -0.125 0  0.2854398729807421 0.8366868599280186 0  -0.110496369535819 0.3125988587588561 0  -0.125 -1 0  0 -0.7575037395175259 0  0.07821397079968176 0 0  -1 -0.375 0  -0.375 -1 0  -0.625 -1 0  0.7474787146812756 0 0  0.625 1 0  0 -0.2918843213980812 0  -1 0.625 0  -1 0.125 0  -0.9999999999999999 -0.625 0  0.3284075310660084 0 0  0.004929205892015135 0 0  -0.125 1 0  0 -0.006571003003944568 0  1 0.625 0  1 0.875 0  0.875 1 0  -0.5623672684820371 -0.6761492035019879 0  -0.004619860050046997 0.1600391374131349 0  0.3622759493629284 0.2625764350136899 0  0.6529560630777672 0.2933734030328188 0  -0.8545338714264948 -0.6464747616919315 0  -0.8635424185580305 0.7871748031520619 0  0.4302354847556649 0.5008227370333687 0  -0.3981695606253107 0.8557114928959498 0  -0.7787474719870746 -0.8746577470235894 0  -0.870376689947109 -0.7843043717554715 0  0.154155080162137 0.8420255842858614 0  -0.6581175810895532 0.1522377476004473 0  -0.5771215393837457 -0.06440540872692863 0  -0.8543757980687481 -0.06266331147276048 0  -0.2954635573443534 0.5617224683666096 0  -0.4231793719147808 0.5694501369727528 0  -0.3755350680454029 0.3304916416995784 0  -0.6178851986113473 -0.2163483634936409 0  -0.2723931278837063 -0.09012728911830228 0  -0.639767658777296 -0.5882730377423926 0  0.8597376046456402 0.2657417439980954 0  -0.03277315876767711 -0.03291363496410574 0  -0.05462858578781869 0.1144457182384869 0  -0.1334144023872668 0.4315765663012954 0  -0.1195729820200384 0.03231981467572854 0  0.5377537017148896 0.0644651844704336 0  0.5791722403101729 0.3587797936479106 0  0.6912188012245465 0.7745667693001087 0  -0.7936690006725631 0.8811401207742021 0  -0.6429664284560074 -0.4288991923879774 0  -0.1162814644545119 -0.3967182945929728 0  0.8722155614500434 0.4884086687591195 0  0.07596064180681017 0.09376859429691674 0  -0.6645560486824427 0.8681516187739088 0  0.4545027688649747 0.3501255263104484 0  -0.02624721996311664 0.03582853398112873 0  -0.4088481647461272 -0.4400050541773208 0  -0.3614710068265058 -0.2686725869958123 0  0.3233413703019445 0.4813637244993547 0  -0.1957186108845572 0.2011403896516814 0  0.7055797231264996 0.5303309575341784 0  0.2616549440999614 0.3557059715044368 0  -0.3767184547683249 -0.8517192307201951 0  0.1091235767026888 0.6817219046157735 0  -0.2850744383503066 -0.6117168865558789 0  -0.4411179330368015 -0.6198342669203435 0  0.2960321672795468 0.6920412481846262 0  -0.8747031999753667 -0.1748088833036822 0  -0.1799203769591041 0.8548826980570073 0  0.4546812687184671 0.1630915454884173 0  0.2802562778548519 0.046605742910498 0  -0.1420522985083626 0.6571570777838557 0  -0.0112875373935624 0.7083706288764473 0  -0.0532837024238567 0.8749732040499941 0  0.005482260550290545 0.4694802029835194 0  -0.3872362036944119 0.153045382052006 0  0.5491416442128462 0.1329703769928309 0  -0.4754793767704492 0.682126357989986 0  -0.8513382561686099 0.3325752458871193 0  -0.09068996785983907 -0.5361127202569573 0  -0.02355102256663183 -0.5520636410920373 0  -0.2134689354882949 -0.2874798496004487 0  0.868533900437604 0.1514103164426213 0  -0.1702712248330732 -0.6608366514061864 0  -0.8891260115635925 -0.5283357785353997 0  -0.281285057365056 0.3378770013530355 0  -0.6759837474101402 0.5737961442792917 0  -0.8973568794011425 0.5313134200568372 0  -0.8983771735936481 0.6609383391295739 0  -0.6439956453776942 0.0719830366894379 0  -0.8589828920592963 0.02839726295419795 0  -0.8880206857552692 0.1676741730779263 0  -0.1299026562493578 0.2286845135699806 0  0.1602600646411217 0.4458924897621764 0  -0.04348677826182989 -0.12577081664006 0  -0.7533007776958267 0.6698253887077975 0  -0.6022139502743387 0.6976577790836981 0  -0.2540524547370047 0.07828093250387569 0  -0.2489833117339499 0.6485249237314038 0  -0.02739284983226777 -0.006333650867908276 0  -0.4942409717265405 0.8769408520386293 0  -0.4764985266676987 0.4900959675937874 0  -0.2900546013937093 0.1436996841681199 0  0.002285707507398198 0.02362325814708417 0  0.7794356398032722 0.6833666246158467 0  -0.4698116642530228 -0.8246722541052143 0  0.2718587998661737 0.1947631423816366 0  -0.1489519085039882 -0.8632380326450309 0  -0.06495740267350338 -0.8294427721563465 0  0.443147069456071 0.7057160636810231 0  -0.1170527735612507 -0.288132032335278 0  -0.2645313673522144 -0.02632694505986674 0  -0.8938916442912243 -0.8964878287005996 0  -0.5725081424975168 0.2367185227418555 0  -0.4756856561813613 0.08716674698280436 0  0.4911041096769966 0.8256799116421853 0  -0.02785946658268315 -0.2608902445108442 0  -0.3099387802366933 0.8753748710082652 0  -0.1428069570274983 0.0803941041695376 0  -0.4688502070494032 -0.03515646091420093 0  -0.3875487023988361 0.01183727324143546 0  -0.2913584054912702 0.02733145869296331 0  -0.3844828909124181 -0.120559071399818 0  0.8881466229422839 0.6979445831997819 0  0.7927976360957498 0.9108433700033842 0  0.5766222723697314 0.2075990064118838 0  -0.5597140570211706 -0.469109984134078 0  0.5986980039054862 0.7056904612192149 0  0.6781667421562895 0.8883462860362568 0  -0.05092526447746859 0.3028784497278752 0  -0.9023329941388496 0.9047732038939841 0  -0.1273048315904255 -0.06711878135774701 0  -0.1688040340337783 -0.1824829791892847 0  -0.2520101921757806 -0.1437009848180419 0  0.0370851205622687 0
[...]
<PointData  Scalars="w"> 
<DataArray  type="Float64"  Name="w"  format="ascii">1.7488361768363987e-10  1.0270611564949523e-11  4.4448931485694116e-10  2.6445781684631579e-09  6.2399293941033200e-10  1.5516629370082532e-12  8.6483026456423250e-12  7.4829334828799397e-11  4.0515950013962816e-11  2.1146128461972992e-11  1.0852619187926139e-10  9.6302567968843314e-11  4.0457418376007783e-10  2.7785582141887852e-10  9.1182022842197633e-12  5.2379983691466988e-10  9.0835184268500363e-11  7.2405106332122171e-11  1.3066511787215452e-10  3.5701965709591560e-10  6.7018260572862274e-11  1.0382951772073943e-10  5.7262837025364242e-10  2.6075709990224680e-09  5.7745969570289835e-10  1.0905885518232473e-10  8.9498925128038325e-11  1.7114576898538907e-10  7.6713472388311421e-11  1.8804387617624739e-11  4.6751485823613858e-10  9.8426941253827209e-11  2.4459277885864912e-10  1.8167001949099913e-10  4.5335737903587714e-10  2.2554344353689037e-10  7.8490332082630448e-11  4.7977905336635417e-10  5.8603439668093805e-10  3.1194798613844336e-11  5.2288827763172449e-11  1.0855778757192479e-10  9.2749015782201681e-11  1.9473008086965446e-11  1.0491866933769774e-09  8.7997750107175194e-11  3.1954485786743624e-11  9.6351404819231670e-11  1.2471175219910681e-12  5.8824884803745615e-10  2.2020487149794926e-10  2.1309736987482316e-10  8.2795923276353772e-11  2.5207153945260596e-10  2.6004087083988333e-10  2.0702106295642774e-10  3.6014980488245495e-10  8.9182687362313874e-11  5.7648818824517577e-10  2.5161488082273488e-10  3.1485970331436233e-11  3.1395678562305996e-10  3.7875919586808053e-10  1.4408187987865375e-10  5.4078559789889305e-11  1.7853256446924044e-10  7.0856879606988316e-11  1.7961487869839914e-10  2.3361053062141475e-10  4.6089628911358762e-11  6.5317670038933866e-11  4.3820333631941973e-10  5.7212937491328176e-11  8.8625317807052749e-11  1.7903537805411066e-10  1.7087115213409928e-10  2.5577852218526848e-10  2.9057615783305201e-10  1.8299561759322634e-10  1.9697287805952367e-10  6.5101530460796862e-11  2.5201953001918459e-10  2.6168660079185349e-10  2.0102733789626827e-10  2.3354196401380867e-10  1.2575593027306667e-10  4.6322858412244448e-11  1.1025100096151171e-10  9.5059070540885737e-11  2.5249173997639999e-10  6.9041049893654636e-11  1.0017752750376598e-10  7.8858955450862493e-11  9.4604511125782597e-11  3.8831046802375421e-10  2.0999575839606805e-10  2.5444402460236371e-11  6.5195262987663722e-10  2.5743160883453307e-10  3.1385091786460202e-11  2.7846981646971696e-10  4.1441710725105332e-10  7.1053595178918421e-11  9.6974242839963224e-11  1.5742166595124143e-10  6.3505500292903449e-11  2.7359996021263287e-10  8.3892901649180180e-11  1.4830635993692205e-10  6.6466739743581089e-11  3.0996192386755161e-10  2.4932450108753159e-10  2.3128878246313211e-10  6.4559207026663532e-10  1.2101832297497561e-09  1.4898558305422889e-10  1.6466383175200057e-10  1.0216551316757182e-10  4.5788504652597402e-10  2.5906290021796854e-11  2.5492262447992497e-11  2.7752992605766942e-10  9.1037886112629853e-11  6.1518226097806916e-11  5.0037323003634871e-10  5.7650423592721775e-11  5.9534939924914244e-10  1.1817082993534396e-10  7.7077226905534761e-11  8.2618756645728090e-11  3.4101735064188793e-10  1.7304218193082468e-10  4.6429012137615994e-10  1.3526289281939601e-10  6.1922815780129098e-10  4.4830940431409978e-10  1.0936528022030973e-10  5.2179058164860902e-11  1.2989261413999947e-10  2.5883671644486652e-10  2.8782620612156057e-10  6.0281125021306600e-10  9.3656125764659622e-11  1.1903540231890827e-10  6.8558605229679192e-11  6.5534199633824695e-10  8.6289613952799178e-11  5.6843146784233774e-10  1.4788317485539517e-10  1.2429557930432126e-10  2.0043491936449777e-11  2.8276787559951289e-10  1.5801853047098269e-09  5.6817982577896780e-11  9.6048569878247031e-10  7.9219493059865824e-11  2.4168132939653614e-11  2.3886496255723614e-11  1.2251977553335746e-10  5.5823291096475355e-10  4.4287984347609675e-10  1.6105690539061844e-10  1.1581181196830637e-10  1.6704822074241434e-10  1.8841197951378823e-10  5.8750533887552927e-11  7.8216702610286617e-11  2.0329539029607561e-11  6.0152234867780308e-11  2.9736815024475386e-10  9.2044546685008247e-11  1.0628925974425445e-10  8.2614620990028762e-11  9.6966788572920449e-11  5.3386358043536203e-11  9.6054363066497320e-11  4.5542276345071954e-10  5.7113348885266700e-11  1.6403673113474099e-10  1.7138975951820005e-10  4.6216251531339275e-10  1.9877256036868374e-10  2.8142466700224102e-10  1.4249726323742648e-10  1.4525101669836314e-10  1.5234043928556396e-10  2.1220376046152555e-11  2.8988078920565281e-10  6.7768881266436968e-10  2.5638573105851313e-11  2.5038404441411681e-10  8.9961628719345847e-11  1.5816208173546984e-10  1.1066034146759471e-09  1.3703214562866293e-10  1.6285444979068017e-10  2.3482437599104558e-10  2.8711689783642068e-10  1.0663102181732919e-10  2.0449831785754486e-10  4.2014218061610651e-10  2.2025995007978101e-10  2.4003385387151270e-10  1.1033120396855689e-10  1.1312743150447511e-10  1.1333550825017699e-10  7.1761820175599752e-11  2.0827201464635669e-10  8.8219356267934178e-10  7.8133622255111370e-11  1.0830976958914944e-10  7.7948812015318195e-11  9.7086877204995801e-11  1.6244200677960738e-10  3.7723562967456709e-10  7.9977859178338191e-11  8.6032910504984354e-11  8.7721792390751274e-10  8.3008975000293328e-10  2.9284609892912849e-10  1.9949447894141199e-10  7.7185840136406384e-11  8.1428162258526107e-11  3.3783791528628572e-10  5.9117806012753340e-11  8.4298724019210568e-11  5.0348606431164685e-11  9.3911253132457137e-11  4.1697856574418468e-10  9.0914551891592879e-11  1.9702350226855724e-10  1.6663551694637530e-10  9.0112511724197960e-10  6.2209702501625465e-11  2.0070127426278351e-10  1.1522605704068722e-10  1.1275593514820979e-10  7.4738812569533191e-10  7.5998798622442852e-11  8.5911543633486950e-11  1.1803991099861584e-10  1.1119191344443683e-09  4.1302252673167431e-11  7.7751489780722443e-11  2.7832492132258660e-10  2.5584449854128602e-10  3.5583147991317993e-10  1.8455802331970009e-10  2.0445697908425745e-10  4.0410536715405513e-10  2.9453151913484607e-11  1.0602319122798300e-10  1.2856301049412951e-10  3.7800238297081733e-11  2.8566801182446919e-10  4.3787027649657269e-11  3.3303287014121524e-10  1.3585698130099533e-10  1.1040004901522992e-10  1.9114072154720703e-10  5.0367910299123790e-10  7.3808821695838031e-11  2.7080054635041863e-11  1.4460534522452104e-10  8.2320278859913802e-11  6.0025922473652029e-11  7.6921562372034783e-11  1.7869426820949744e-10  4.8846961530693996e-11  2.6318738449853885e-10  2.5395251679294910e-10  1.2826053476940597e-10  1.2837255508372169e-10  1.3668267492985508e-11  7.1310715893867800e-11  1.4622731637707964e-10  1.6964884078722929e-10  4.9576711255167371e-10  3.6882937252530398e-11  8.2489782697762513e-11  3.3369849758865685e-11  2.3768735023457893e-10  1.2617809793738610e-10  1.8652411890238659e-10  7.5208438586105978e-11  8.8799593410074463e-11  1.2063278345028806e-10  2.0313004681575077e-10  2.2390355424997894e-10  2.6096636409997623e-10  4.3702363607732620e-10  2.1435131272480532e-10  2.0937315297015499e-10  1.4584907309420043e-10  7.9894800226863666e-11  1.7040047174690676e-10  1.6559472443190694e-10  6.2412283320910799e-10  1.3037086602184941e-10  6.2407541874498565e-11  4.0613793336861900e-10  1.8922154526516156e-10  2.1029631981040654e-10  1.2508802114650717e-10  3.2828804177617946e-11  4.5015826711890225e-11  9.9233335344201907e-11  6.8052671159207965e-10  2.9268217896250728e-10  1.8096012142556734e-10  1.3729979407024540e-10  3.3551816528195262e-10  6.7306770717740282e-11  1.0917921527005288e-10  3.5427514229754280e-10  1.1254654722839457e-09  9.9534423489255339e-11  2.8174420704924465e-10  6.1303378517610252e-10  1.2269787540072538e-09  1.9777758521024523e-10  1.5238484018694263e-09  4.1729276616448985e-10  2.2595007992629472e-10  1.1658340892549873e-10  4.2029654747931911e-11  6.6209775068690890e-11  1.2647150775279624e-10  1.5697839583031448e-10  6.3931755355257572e-11  9.8517211221352173e-11  1.0690647810571856e-10  1.2754046279497943e-10  1.9205237543000194e-10  4.9595541324010786e-10  3.1807676505358627e-10  1.6652941608191618e-10  9.6267971561001251e-11  6.1849329863746486e-11  5.9449195739891635e-11  7.1045069445583319e-11  1.8262539898154240e-10  2.2889324569235661e-10  1.0658958659166785e-10  1.0637373794980614e-10  2.3934759117962410e-10  1.3726324216890467e-10  7.0317996590724859e-11  5.9622751083970918e-11  1.0552972580884547e-10  3.4381187311309148e-11  1.8840396357177333e-10  3.3282129388796209e-11  1.6076663478247402e-10  1.7953627996653605e-10  1.5229220127415939e-10  4.0072372807325498e-10  7.9609792801123395e-11  8.3316657659109098e-11  1.4589691591321266e-10  3.1101772313379811e-10  1.4349137536863093e-10  2.6340102962210448e-10  1.1122475131974795e-10  1.3649075160456538e-10  1.5889493320912706e-10  2.7988722600516635e-10  1.2735118876324197e-10  3.3960011929641231e-11  1.1878403792463578e-10  1.1244756897078371e-10  1.4839908843818819e-10  2.5560769500186465e-10  1.7247721075370618e-10  3.5139124249088005e-11  1.2986293852342224e-10  2.3295811729330683e-10  2.8905729516638260e-11  3.2994471721834348e-10  1.6310280294903837e-10  3.8829821632434817e-10  1.1278511262547544e-10  2.3900414559339498e-10  3.2568907626213963e-10  7.6070259917032360e-11  1.0624564689561146e-10  2.1983624811847356e-10  7.3791630749675646e-11  4.8337929757041723e-10  1.5911783074397815e-10  9.8807236089725522e-11  1.0937769616143759e-10  2.1113977323439807e-10  5.3999514067744392e-10  4.7571708062960677e-10  1.7987617393732802e-10  1.7326398039933884e-10  2.0992295623344690e-10  4.0299100655342663e-10  4.5652755715953616e-11  2.2706411629338379e-10  8.2073611797981258e-11  1.2391334452644285e-09  1.1812425261123684e-10  4.6103079931962917e-11  5.4665556654967702e-10  3.3291628798939208e-10  2.4688564159921230e-10  2.1281043582492736e-10  6.4408120959914305e-11  1.5419360822604065e-10  3.3772955080633265e-11  4.3833060582350734e-10  8.2647672097131083e-11  1.3781657674677414e-10  1.2779549470209054e-10  6.6397482068617868e-11  3.4867335097162876e-10  4.3280020594778083e-11  1.1854166437719463e-10  2.4413979141512575e-10  1.7856294883156942e-10  7.0994878306721483e-10  9.3448228691426117e-11  5.7466160268846464e-10  1.4929764557858595e-10  3.5311472705180692e-10  5.4953762923589432e-10  2.4316495464794016e-10  1.5504409773487516e-10  2.7175350706312392e-10  4.7995667358065437e-10  3.4759547683325395e-10  7.5759562971927705e-11  4.9767364227552433e-11  1.6310976842228903e-10  3.5601578839776712e-10  1.8775085153399428e-10  1.2720009383717128e-10  1.7223722744637439e-10  8.1905119947531512e-11  7.1987284349682317e-11  1.9971526705711891e-10  5.8430345734468772e-11  2.0806967296102325e-10  9.0901413934398134e-11  4.7886925213313160e-10  5.0000511333150367e-10  8.2481634723004228e-11  4.1785404326172827e-11  3.9854351680966939e-10  6.4724540845490120e-10  2.5854334774865183e-10  9.8317159311660198e-10  2.8713655324968253e-10  3.1634632045199831e-10  2.7229686415392661e-10  2.6522203702650503e-10  9.8147246179290071e-11  3.1241776953539157e-11  1.9454248155093906e-10  1.0584414535260952e-10  2.1558460078484852e-10  7.5346728575437992e-11  1.2529489543591356e-10  2.0485552180459901e-09  1.7664835302777058e-10  8.1313807147898971e-11  8.3155911933026668e-11  3.9861250196168488e-10  2.4209398983444128e-10  1.8967527469475780e-10  2.0774187152785696e-10  4.4961893119775991e-11  7.5302049775015963e-10  2.4212816660309253e-10  5.3616354351983465e-10  2.5147816789375999e-10  2.4259595505700096e-10  3.1351450964902883e-10  9.4540568169273474e-11  3.3024332728935789e-11  3.5952423836910298e-11  3.6726717152529807e-10  3.5742844688683951e-11  1.1683626248272483e-10  1.0187233768314720e-09  7.5256466972132870e-11  3.5270648748446992e-10  2.6391490998841102e-10  6.2285173304369958e-11  6.0261808561259950e-11  1.7905686920531214e-10  2.4506822351647759e-10  4.8986579468482218e-11  1.1318467502857928e-10  1.6209092156723535e-10  7.5714225189655252e-11  1.7143794736773228e-10  2.1178491284335864e-09  3.8071496568282654e-10  3.1909171704790488e-10  1.0681397237967153e-10  1.0860414200711558e-10  1.8865670533154937e-10  8.0737913518303773e-11  1.3455072636576552e-10  4.9867484082803793e-10  8.7024411236305410e-11  2.4305200561366363e-10  2.1703499526964102e-10  1.3889543065244405e-10  5.1294061124001931e-11  7.7856965441866534e-11  5.5519872295834015e-11  7.1645951344178553e-10  1.0670349170814158e-10  2.2089703213499970e-11  5.6996066322322662e-10  3.0698283979599606e-11  6.2052575811125163e-10  1.1673180195185162e-11  3.8376839008488010e-08  1.7788209739654160e-10  2.4824098955287835e-10  1.0556966641961664e-10  2.8570808935828510e-11  8.6101413601304083e-11  2.8008601090565154e-11  2.0790497677035083e-10  3.7228590028445718e-10  2.7129963345034414e-10  3.2959278296110902e-10  1.3514491011231274e-10  9.4073604457402306e-11  6.3290678717101122e-11  3.6098619293970032e-10  5.0463131480548735e-10  1.0650057835726763e-10  1.0118738596882797e-10  1.4716822415906828e-10  7.6868463924051837e-11  4.5710755776907256e-11  5.4415006354940956e-11  3.1715156104883868e-11  8.8611776368242975e-12  1.7749047357875029e-11  9.8510006570431228e-11  2.1794193472406960e-12  1.0711113617052205e-11  1.8592663053992749e-10  3.4875135232124631e-09  2.2473067486622646e-10  4.2353068094447523e-11  2.2028319716471282e-10  9.3838381775218728e-11  1.1276594798869619e-10  4.4198134104830397e-11  1.6969099748300295e-11  8.7365525271305469e-11  7.2837659899575546e-10  7.9929263534632418e-11  1.8375889937189517e-10  3.2458049074011685e-10  4.8621222652671020e-10  9.6309381505359817e-11  1.0203332179040262e-10  5.8516684767968692e-11  7.6937770019177446e-11  1.1237473089302387e-10  5.7979021179257186e-11  6.3056736841781607e-10  5.9218395819237818e-11  2.7669535907982882e-10  8.8106004851900505e-11  1.2798207845858302e-10  3.1340617814241244e-10  4.1700233705663768e-11  6.3126695655991867e-11  2.8793600072721998e-10  1.1935040667366430e-11  1.1402961986731375e-10  8.8304459844851042e-11  7.6906984924508170e-11  5.6053925078000483e-10  1.6138994564746727e-09  3.1703824010539092e-10  2.8835501461215910e-10  9.0711592884398367e-11  7.0073842221552267e-11  2.5559523183691293e-10  1.1824058779083130e-10  1.0028153209969940e-10  1.0485305448635816e-10  2.0026777205588794e-10  7.4610548361662358e-11  5.2858401046532761e-11  7.0604953866391510e-11  3.9904201776508964e-11  8.7058184311049087e-11  1.9062040862390898e-10  1.6195413447522396e-10  1.1143313393555808e-10  2.8235319721812268e-10  4.7524004547473875e-11  1.3662983740233778e-10  5.2042881622753357e-10  6.6989935395739504e-11  1.1738350803872748e-10  1.4650382153069776e-09  5.8570451056180860e-11  3.3550148206639023e-10  5.0879359720216991e-10  1.5754461683684142e-10  1.2863360151008067e-10  1.2563345873791317e-10  9.0003678777148195e-11  2.4815721780080083e-10  2.8502144206597019e-10  1.7773450318262942e-10  4.6578115278021936e-10  4.2249484618962772e-10  1.2259879041033120e-10  2.1210675007154614e-10  6.7224409358309794e-11  8.5391394362829469e-11  6.2904125506900706e-11  2.4003848048237320e-10  4.0044068257728184e-10  3.0750786255482682e-10  3.2443088579330131e-10  8.6243848099379976e-11  2.2653333441677766e-10  4.7742260974904688e-10  1.7288799220518397e-10  4.8305430561743806e-10  1.8328553036877065e-10  1.3812867282530222e-10  1.1174503900425599e-10  5.1417696043296278e-11  5.4910616301078209e-11  3.3243974715590548e-10  6.3208443992879423e-11  6.4856913876905907e-11  1.2997879720925586e-10  3.2071693724807306e-10  3.2018396309928392e-10  1.5727300375028148e-10  1.1753012173169698e-10  5.8838774798108371e-10  6.2508150138929413e-10  1.5977063701504664e-09  2.6746117237012088e-10  1.9873438383580469e-10  4.4234862809661055e-10  4.5497996295743455e-10  1.1653647699083665e-09  2.9593081427177763e-10  2.4835056862248427e-10  3.3091918766281567e-11  1.3005134443246492e-10  3.4084339375183575e-10  5.3950381420624915e-10  2.1389579340034800e-10  6.7095416667112909e-10  3.0676050544403578e-10  2.1392010539424437e-11  4.8249671761856439e-10  3.3185905763269783e-10  3.8769275057465840e-11  3.3282048231873683e-10  4.1364414501196872e-10  5.4229234957189786e-10  1.4555055404823611e-10  6.7114290888421324e-10  1.9520075726602291e-10  4.7433272011174997e-11  1.2738793103654509e-10  1.3283254473113025e-10  3.1227054284404844e-10  7.9158882771804233e-11  2.6657703707196279e-10  1.9561105697807306e-10  8.0699105603615933e-12  1.6244420049818070e-10  5.8357222559966409e-11  9.0412621463268094e-11  1.2465064536853477e-10  6.2873593671988482e-10  4.1140268208103333e-10  3.0311811845959979e-10  1.1700410461604382e-10  1.3299356240462930e-10  8.9557058686371222e-10  5.3831213557669417e-10  1.3498170860869999e-10  1.4202058647122557e-10  9.3075198014109798e-11  4.8799527712687607e-10  1.3974776384370984e-10  1.7561325943513361e-10  9.5787683559923261e-11  7.0792177204291515e-11  6.3688573727569338e-11  1.5087914528888227e-10  9.8022605483412414e-11  1.3023692727712817e-10  4.3925220647581202e-10  7.6910881306023100e-11  5.9513609024908396e-10  1.2861555164214738e-10  2.2380709603927826e-10  2.8294348238039150e-10  5.4807984249417066e-10  1.1624222194282649e-10  4.1338731083501783e-11  6.3125720169529895e-11  1.4164330905259396e-10  1.5863677849132406e-10  5.1901250314177106e-10  8.4530395596633181e-11  1.6231467891987696e-10  2.5191362252111804e-10  1.3737621439086827e-10  2.3672398257319995e-10  3.3257970094702317e-10  3.1093506564529756e-10  1.0581268730461681e-10  1.7553372750547474e-10  1.4924575481237237e-10  2.2806254890453558e-10  4.9159702751461368e-10  3.7353190048230982e-10  2.0187886351413600e-10  2.0743155398828346e-10  1.2553622416423767e-10  1.7256535945858962e-10  2.9927090904011848e-10  3.8129752367324061e-10  3.6163469251138220e-10  1.6550122497649153e-10  2.1961018065825656e-10  1.9467591304989171e-10  1.5507790482115008e-10  3.9974929364655070e-10  3.1650501791710074e-11  1.0584830300878329e-10  1.2675711832334114e-10  1.5608043302941850e-08  4.0701629406066475e-10  1.7811443449477170e-10  6.1126230506081579e-11  2.5629675986279703e-10  1.3876820679754238e-10  6.4665714847468628e-11  1.0607552475340804e-10  2.0252179827959085e-10  2.0659574407469029e-10  1.9482318893130516e-10  1.9004509896222476e-10  3.0906690497362252e-10  6.5409957573720018e-11  8.0383435172428109e-11  1.9220453969177289e-10  1.2222969916751740e-10  3.5519138883004600e-11  4.0313774643845488e-10  6.4876556101714874e-11  6.2301167201772528e-11  1.9356148584500770e-10  9.9260551181995790e-11  2.3815524383165236e-10  2.9307500425648619e-10  1.0498697944301825e-10  7.8944049246003196e-11  1.8809426296029717e-10  9.6783095752392199e-11  3.2701646450683703e-11  9.0832151841733814e-11  5.8189410277379486e-11  7.8273085273839197e-11  2.2503184497820234e-10  4.7600368578088718e-11  6.6592170972826437e-11  9.4739880473474482e-11  9.4007528032552079e-11  9.4032596790162028e-11  2.6084290600489444e-10  8.7618719485374663e-11  1.8401177030342437e-10  2.0246813170308619e-10  9.9225918615239865e-11  1.6065127726222180e-10  3.1511420355509205e-10  1.2459730277996721e-10  6.1363116311996726e-10  1.7179955570489765e-10  1.4961766637895773e-10  1.3830684817639270e-10  2.2990115947164544e-10  4.4246312956954452e-11  4.0153954390452106e-11  7.7334433894818305e-11  4.3497491538968295e-10  1.9916464180139318e-10  6.3910878253085796e-10  4.4105795376788926e-10  1.2154077443282975e-10  5.4590765190719984e-10  3.6540560659819059e-10  1.8959146255361727e-10  7.0997729725692907e-11  9.3928757533409465e-11  1.7403533976661174e-10  1.8751097248265355e-10  4.1509798155999343e-11  4.8500371638982906e-10  2.7820774600838259e-10  3.1060724633950512e-10  5.3644927312462147e-11  3.5218991852360235e-10  2.6585809190093340e-10  5.7966622426779436e-10  7.3836015003442591e-11  6.1767322970634257e-11  2.3884021923546878e-10  7.3087735064586942e-11  4.2716419780593338e-11  1.4858302420427572e-10  2.4297008308737620e-11  6