<?xml version="1.0"?>
<VTKFile type="UnstructuredGrid"  version="0.1"  >
<UnstructuredGrid>
<Piece  NumberOfPoints="4852" NumberOfCells="9430">
<Points>
<DataArray  type="Float64"  NumberOfComponents="3"  format="ascii">-1 0 0  -1 -1 0  0 -1 0  0 0 0  1 0 0  1 1 0  -1 1 0  0 1 0  -0.5 1 0  -1 0.5 0  -1 -0.5 0  -0.4999999999999999 -0.9999999999999999 0  0 -0.1608775713298009 0  1 0.5 0  0.5 1 0  0.1967448868031411 0 0  -0.3410088946519068 -0.1760945509771855 0  -0.337294146852365 0.2245398464619671 0  0.1740271451633393 0.3468491528793892 0  -0.1853716002047628 0.5553317253980529 0  -0.504149170586775 -0.5376759092701622 0  0.4906634624203653 0.2579744019822942 0  -0.06465024849138834 0.2014964739181203 0  0 -0.5061325913258391 0  -0.25 -1 0  -0.5615288623860653 0.5775237058413755 0  0.6615751336512108 0.6343467770253147 0  -0.1771900279593024 -0.5380664172501662 0  -0.5392971653283809 0.02551827803076467 0  -1 0.25 0  -0.2066115545108869 0.02383894160844498 0  -0.6547973832393613 0.3095123041054595 0  -1 -0.25 0  0.03895987607676538 0.592161696215279 0  0.1953257441593737 0.1293961377617704 0  -0.1364502581851901 -0.2202919556647672 0  0.3711268537137665 0.6150146875398292 0  1 0.25 0  0.5355652144809806 0 0  -0.75 -1 0  -1 -0.75 0  -0.6452639891345561 -0.3232243026706018 0  0.25 0.9999999999999999 0  -0.9999999999999999 0.75 0  0.02757118475249542 0 0  -0.25 1 0  -0.75 1 0  1 0.75 0  0.75 1 0  0 -0.02898318711980711 0  0.05429520392060673 0.1427280160868053 0  -0.07790511705846073 -0.02790361688410141 0  -0.701368750879092 -0.1324163679959629 0  -0.3219299001081221 -0.3477150174628212 0  -0.3405498671275833 0.437610664650635 0  -0.1001517679312474 0.7644139383610087 0  -0.3833534311463714 0.7027777882611641 0  -0.05514353757463476 0.3994121618053866 0  -0.07920765774967739 0.07216357647807392 0  0.3591320556629176 0.3703916203846192 0  -0.7161059519563645 -0.7300327073213587 0  0.412036538110452 0.09035850182368572 0  0.6899974970706222 0.1922623530908743 0  -0.7476018959562714 -0.527090882900518 0  -0.3881042578131499 -0.7107502221551095 0  0.7215987263005675 0.4193707828656422 0  -0.7762401224782888 0.09706539283588171 0  0.1967068813568165 0.6990558975879574 0  -0.1991277591090042 0.2888700010840191 0  -0.7989900277314167 0.5775205358950795 0  -0.7168319466397111 0.766400007956636 0  -0.05064874074147058 -0.3738104697338656 0  0.5847405781541503 0.8168288067220191 0  0.8204116156814054 0.8060478879940026 0  -0.1065828363230639 -0.6974354993485323 0  -0.5149066913314716 0.1628967410650129 0  -0.202297160680756 0.1258788273725435 0  -0.3596765524979368 0.07547281449784057 0  -0.3655803186302167 -0.05240625511908809 0  -0.4969876794072269 0.3952436925151458 0  0.375 1 0  1 0.125 0  -0.01189568349313706 0.07150253959215119 0  0.06200666987461952 0.392454699245983 0  -0.1716377971339396 -0.1226912435774662 0  -0.2430929275595376 0.7738172342274185 0  -0.625 1 0  0.5335285132359375 0.4551194314688129 0  -0.5761143308332989 -0.8301505612809899 0  -0.2582205124132879 -0.7837635744834278 0  -0.3203388218683739 -0.508714795854983 0  0.8340220051706722 0.5955609957374435 0  -0.5487506628705415 0.7908957210850776 0  0.125 1 0  -0.06755979993160473 -0.09359143609638022 0  -0.4949115285225779 -0.14337476591928 0  -0.875 -1 0  0.0296943252837666 0.04175772471155286 0  1 0.375 0  -0.875 1 0  0.057187616447404 0.7942231397620344 0  -0.1964516878950683 -0.3740800144951353 0  -0.07314719747235253 0.5715034767787194 0  0.2365068070680421 0.5185667730393602 0  -0.7924520908368708 0.2294852916380301 0  -0.4954460522649496 -0.3893646417064463 0  -6.928143609629233e-05 0.2717109483356461 0  0.510000684696206 0.6407563481839301 0  0.3988654847948926 0.807655937765673 0  -0.806266586045567 0.4245216893603336 0  -0.06435618071360638 -0.2208050268452747 0  -0.7098683106851927 -0.01409950218872216 0  0.09068967826108247 0.05270602785608221 0  -0.4784668673218281 -0.2515639874122813 0  0.7238419185198077 0.08315639064484126 0  -0.8087327957243654 -0.4111329490206334 0  0.3377824036986809 0.1542600431038693 0  -0.7946560440005613 -0.250877137988702 0  0.2365377868699548 0.2550996096374579 0  -0.9999999999999999 -0.875 0  -1 0.875 0  0.1844702488916028 0.04818629400632753 0  -0.2477084649724217 -0.2295719428599407 0  -1 0.375 0  -0.1714349133887661 -0.0418882245780343 0  -0.6490297130503314 0.4675932547955004 0  0 -0.07736776745332727 0  0.08042252134852987 0.2605506294672422 0  -0.375 1 0  -0.217297757561663 0.4251676000517283 0  -0.1204397378825482 0.1505162097226398 0  0.133172508671506 0.5547487266072576 0  0.1320806533135852 0.1944374649542918 0  -0.4751579643710518 0.2697545092918055 0  -0.04637473761563089 0.01391890165480723 0  0.8513721121232364 0.3706859554984796 0  -1 -0.125 0  0.2855507873038567 0.8371585050295234 0  -0.1111353207324644 0.3135578610362049 0  -0.125 -1 0  0 -0.7575037395175259 0  0.07821397079968176 0 0  -1 -0.375 0  -0.375 -1 0  -0.625 -0.9999999999999999 0  0.7474787146812756 0 0  0.625 0.9999999999999999 0  0 -0.2918843213980812 0  -1 0.625 0  -1 0.125 0  -1 -0.625 0  0.3284075310660084 0 0  0.004929205892015135 0 0  -0.125 1 0  0 -0.006571003003944568 0  1 0.625 0  1 0.875 0  0.875 1 0  -0.562878192313122 -0.6765369413810508 0  -0.004796763871209789 0.1607306390512221 0  0.3626051608500154 0.263962316045864 0  0.6530380403567265 0.2948041277281391 0  -0.8547267517592114 -0.6466455900996466 0  -0.8635548729952187 0.787193421953528 0  0.4306102430073103 0.5022205364056902 0  -0.3985884553475238 0.8559977301585522 0  -0.7787773565437239 -0.8748176500779512 0  -0.8704850295577298 -0.7843915224843712 0  0.1541127780340758 0.8424768852884105 0  -0.6588616992683974 0.1528763687595373 0  -0.5779692369016417 -0.06415449181323163 0  -0.8547014980633367 -0.06253248620044465 0  -0.296276136844537 0.5625420408152864 0  -0.4239871430417747 0.5702247269857819 0  -0.3764942336737641 0.3314026497341223 0  -0.61859117497716 -0.2165196741457341 0  -0.2732637552636189 -0.09025407123222781 0  -0.6402432461524494 -0.588713699439713 0  0.8596935873686192 0.2663807929060251 0  -0.03287179758239962 -0.03302780060940113 0  -0.05498512739214021 0.1149487355701896 0  -0.1341187563537157 0.4325542752134563 0  -0.120172719116218 0.03247276197356903 0  0.5378147216567569 0.064945413372026 0  0.5793450277650523 0.3603704398758219 0  0.6914404327091151 0.7751170601716399 0  -0.7935877857903179 0.8812243412642142 0  -0.6435095793808814 -0.4293837937768941 0  -0.1169460487458646 -0.3974425361438339 0  0.8721708832522438 0.4890824845841086 0  0.0761124738444045 0.09427205983459203 0  -0.6647287859535074 0.868280182156729 0  0.4548243873559751 0.3516834015989821 0  -0.02641462334691356 0.03597021360950198 0  -0.4095072820720244 -0.4406140794125944 0  -0.362158519644777 -0.2692305964981931 0  0.3236743187064016 0.4826692669195771 0  -0.196553217804141 0.2019261909249096 0  0.7057286696565925 0.5315756827698195 0  0.261979360578755 0.3570122908251703 0  -0.3770135887700127 -0.8519012920011649 0  0.1090557736599399 0.6825363015299064 0  -0.2856748954292673 -0.6122255924564983 0  -0.4417460118407441 -0.6203048505630698 0  0.2962405879005702 0.6929103955254303 0  -0.8749964207819132 -0.1747966421777851 0  -0.1802288125849577 0.8552020946581793 0  0.4549318995379589 0.1642433879669911 0  0.2804236789393656 0.04695331669527461 0  -0.1426352992660807 0.6578770719189607 0  -0.01160331542591861 0.7090582501740574 0  -0.05346370890328024 0.8752748646009352 0  0.005162651041002366 0.4705299439018828 0  -0.388255493424339 0.1537993822135195 0  0.5492628245874062 0.1339035437385862 0  -0.4761227014752488 0.6826885881956073 0  -0.8516760246163224 0.3329442979259549 0  -0.09149403698391929 -0.5366502585692641 0  -0.02641381858367618 -0.5524361389663741 0  -0.2138808577182131 -0.2881815291331074 0  0.8684366366827883 0.1518083628966436 0  -0.1707604315985758 -0.6612506636702418 0  -0.8892861371771017 -0.5285281014707273 0  -0.2822297242449763 0.3388061083147534 0  -0.6765001906169013 0.5743628639692201 0  -0.8975709848973139 0.5315473808076426 0  -0.89848828421365 0.66106538036866 0  -0.6447822773081014 0.07252542413304268 0  -0.8592898359379036 0.02861068528095915 0  -0.8882960938164451 0.1679431105882275 0  -0.1305809266205805 0.229509866059521 0  0.160382074367472 0.4470663094135958 0  -0.04360925790694503 -0.1259321014072594 0  -0.7536164315554291 0.6702335528465344 0  -0.6026822870210216 0.6981763608385876 0  -0.2549887204276731 0.0787654394815711 0  -0.2496603016371343 0.6491911571348821 0  -0.0275155440635728 -0.006446087672041702 0  -0.4945272751103274 0.8771839935110015 0  -0.4773111607658141 0.4909197060723551 0  -0.2910472323596398 0.1443961244579215 0  0.002342853096738649 0.02372997566225404 0  0.7796177350317018 0.684006715857321 0  -0.4701507411045173 -0.8248623817822849 0  0.2722040362983983 0.1958538402576965 0  -0.1491736441002082 -0.863379236256078 0  -0.06573448689602102 -0.829714884240585 0  0.4434391453629064 0.7066275445639304 0  -0.117542504504661 -0.2886509167540174 0  -0.2654520507843671 -0.02621631893465319 0  -0.8938624642733349 -0.8965293554677792 0  -0.5733902626988255 0.2375025537460385 0  -0.4767187250611212 0.08779602585711196 0  0.4912680716750159 0.8262279455131599 0  -0.02845515604499772 -0.2605545130793628 0  -0.3102350483625479 0.8756150238371636 0  -0.1435029573481697 0.08078011247443785 0  -0.4698377526929146 -0.03487275798169555 0  -0.3885796436343567 0.01221051970810693 0  -0.292328290006462 0.02767447302081418 0  -0.3854080091378873 -0.120638823619153 0  0.8882316060757024 0.6982565910815238 0  0.7927888103069408 0.9108783988184352 0  0.5767440581395821 0.2088671924335606 0  -0.5603562351560283 -0.4696476227037159 0  0.5989904280685182 0.7065735095912572 0  0.6783071730207136 0.8885624279723461 0  -0.05138597131559372 0.3038445986818982 0  -0.9022820822740938 0.9047471212988836 0  -0.1278105165377346 -0.06731609912047684 0  -0.1692428635547927 -0.1829877572285263 0  -0.2527513115847806 -0.1440472243918077 0  0.03701
[...]
<PointData  Scalars="w"> 
<DataArray  type="Float64"  Name="w"  format="ascii">1.7353542537902278e-10  1.0318809375637315e-11  4.4494285351251917e-10  2.6514173302241219e-09  6.2458116313890902e-10  1.5604498913325473e-12  8.6622182810730640e-12  7.4283139533574751e-11  4.0128910782893271e-11  2.1008115556612087e-11  1.0742467977329456e-10  9.5428788986130901e-11  4.0566443769700779e-10  2.7429048711915720e-10  9.0933200736866786e-12  5.3093736097363858e-10  9.0990253122024196e-11  7.2104358009765394e-11  1.3045037108921095e-10  3.5323133048458924e-10  6.6600154782050950e-11  1.0418727834007382e-10  5.7626632583147945e-10  3.4966871486399581e-09  5.7334633125131362e-10  1.0758389873837272e-10  8.8296246273602795e-11  1.7035294154048014e-10  7.6281226645047336e-11  1.8756837073535618e-11  4.6941274136216271e-10  9.7182951173636557e-11  2.4212277412096182e-10  1.7969532239557430e-10  4.5790662353939651e-10  2.2643820707320290e-10  7.7361016428335056e-11  4.7545103313946939e-10  5.8971401210420655e-10  3.1112280312250982e-11  5.2206778251527815e-11  1.0783865112762246e-10  9.1896676986446738e-11  1.9492107493296561e-11  1.0645362491054813e-09  8.7234794771946681e-11  3.1871245104057806e-11  9.5637080963475149e-11  1.2491585227072050e-12  5.9381204626640664e-10  2.2261916902177634e-10  2.1533268341915263e-10  8.2423518604274230e-11  2.5167722213450982e-10  2.5828093420476737e-10  2.0405841917061801e-10  3.5471160811195988e-10  8.8997151921479700e-11  5.8537785543782914e-10  2.5049482007231812e-10  3.1172322113537489e-11  3.1603403519625395e-10  3.7767660678193621e-10  1.4271602342693178e-10  5.3687940271001937e-11  1.7725301608660591e-10  7.0042437688013577e-11  1.7753850685546902e-10  2.3292493917178401e-10  4.5773787738615996e-11  6.4599410243309901e-11  4.3404744254387133e-10  5.6249338998968350e-11  8.7797558894946889e-11  1.7462000857892093e-10  1.6947838886444305e-10  2.5738844525716640e-10  2.8912763715069299e-10  1.8249366199997610e-10  1.9436153888160148e-10  6.4551375861341904e-11  2.5224993661492120e-10  2.6643105453330173e-10  1.9998545487093342e-10  2.3463601911427592e-10  1.2452626169511238e-10  4.6065621021236325e-11  1.0901812417456248e-10  9.4100050532728089e-11  2.5016358834650427e-10  6.8812174623020593e-11  9.8426969616819269e-11  7.7977528694290189e-11  9.3550196080550744e-11  3.9117076786284620e-10  2.0882494559671177e-10  2.5426525074454152e-11  6.6166490193993487e-10  2.5572471407587505e-10  3.1400704935109622e-11  2.7465902871413490e-10  4.1337121486989858e-10  7.0942387666744491e-11  9.6593136438399986e-11  1.5573933482821688e-10  6.3222777237981009e-11  2.7395991266516349e-10  8.2508334703070513e-11  1.4570870293117086e-10  6.5754545283620237e-11  3.1372579589790414e-10  2.4625282615259607e-10  2.3446034402346926e-10  6.4225559488526678e-10  1.2129840121089778e-09  1.4768524774149479e-10  1.6652798858519437e-10  1.0164571691464036e-10  4.5861540020911539e-10  2.5885319418371500e-11  2.5540889456748722e-11  2.7947264074345447e-10  9.1498595098096593e-11  6.0778152065920739e-11  5.0441812232398782e-10  5.7014193677096202e-11  6.0344711689037332e-10  1.1871857726823583e-10  7.6372629285845472e-11  8.2354014217189759e-11  3.4356213086182317e-10  1.7119363190232706e-10  4.6572256357436670e-10  1.3430580358415881e-10  6.2923584690184311e-10  4.3854067809006907e-10  1.0872429041549623e-10  5.1670692444431735e-11  1.3011902753458442e-10  2.5723236226501844e-10  4.0414958958220661e-10  6.1307321112655233e-10  9.2682429863475782e-11  1.1805130375933539e-10  6.8287203043154864e-11  6.5807654950942110e-10  8.5216796951509842e-11  3.3747270792829601e-10  1.4649715557389101e-10  1.2344731406899447e-10  1.9981027812285436e-11  2.8461285215266278e-10  1.6022669575389261e-09  5.6408002021339340e-11  9.7618078164979601e-10  7.8454932552414091e-11  2.4249731191142250e-11  2.4055331105063055e-11  1.2122390061804242e-10  5.6399122869191171e-10  4.4517295069508673e-10  1.6092835512417914e-10  1.1452903242820278e-10  1.6602668356940086e-10  1.8600854635306864e-10  5.8320633711371846e-11  7.7595015871960921e-11  2.0310987582167560e-11  5.9598431486944423e-11  2.9325013432597382e-10  9.1969661092287583e-11  1.0526423772352504e-10  8.2372261024989335e-11  9.5756137279922947e-11  5.3107143337575804e-11  9.5676335305087200e-11  4.5576667654121594e-10  5.6758166566683118e-11  1.6404900635135592e-10  1.7231445027691085e-10  4.6819141459241317e-10  1.9751503231239159e-10  2.8459655207107638e-10  1.4365524578356450e-10  1.4426834027897018e-10  1.4928666545954468e-10  2.1067303060547215e-11  2.8664495693490894e-10  6.6520560609097842e-10  2.5346314879214574e-11  2.5302827361308175e-10  8.8913454098672834e-11  1.5706731241620676e-10  1.1288145383614583e-09  1.3669155186034558e-10  1.6345433460143185e-10  2.3261806947004389e-10  2.8744037231682535e-10  1.0547407427730091e-10  2.0404601547842546e-10  4.1588993591842310e-10  2.1784464524390310e-10  2.3787225874920398e-10  1.0928673583658034e-10  1.1193177186713083e-10  1.1203259610166775e-10  7.1118827905312704e-11  2.0838830809425922e-10  8.9125760972184231e-10  7.7343453976461314e-11  1.0748204268368931e-10  7.7717523467645786e-11  9.6678864649037625e-11  1.6206435732592114e-10  3.7747259600405925e-10  7.9094393899651332e-11  8.4639536824456935e-11  8.4044819388922915e-10  7.5728049765666252e-10  2.9322043940191868e-10  2.0022229036151505e-10  7.6948031103545743e-11  8.0596736136636810e-11  3.3508938065307156e-10  5.8463405363532236e-11  8.3096022798378733e-11  5.0066976782440482e-11  9.3159550227771785e-11  4.1063136900098715e-10  9.0038339401768898e-11  1.9772027084078813e-10  1.6548561274157330e-10  9.0634192853300905e-10  6.1663078475233721e-11  1.9787504874853968e-10  1.1551976256489485e-10  1.1130299650961842e-10  7.5409746606891194e-10  7.5017492673842126e-11  8.4943764318285523e-11  1.1803123720677002e-10  1.1327862153669737e-09  4.0791028028588009e-11  7.7354922707797778e-11  2.8023333346918057e-10  2.5238191834180260e-10  3.4932702899842736e-10  1.8110551830678911e-10  2.0506409119357161e-10  4.0416189350597165e-10  2.9397282877972150e-11  1.0512012897287728e-10  1.2767506142734878e-10  3.7404169629249550e-11  2.7577574415993690e-10  4.3601477454665694e-11  3.3564773343383372e-10  1.3573638568025179e-10  1.1028029189549423e-10  1.9172084063048113e-10  5.0235227211992888e-10  7.2992390003250388e-11  2.6878047926571642e-11  1.4455078788680718e-10  8.1673674157015142e-11  5.9126846337619824e-11  7.5569598079185953e-11  1.7903446411220627e-10  4.8953950853668308e-11  2.6488065828450280e-10  2.5505666971281985e-10  1.2942340764131123e-10  1.2920799359838270e-10  1.3655467638260841e-11  7.1724174761795130e-11  1.4749181551266358e-10  1.6752999686231538e-10  5.0210559870838010e-10  3.6667258412578588e-11  8.1718468307485805e-11  3.3342752422837782e-11  2.4078668798662139e-10  1.2529954811475424e-10  1.8432093089775013e-10  7.5407740655476285e-11  8.7592069860561748e-11  1.1994590529532937e-10  2.0171114586486218e-10  2.2364214061892963e-10  2.6059108702052761e-10  4.3964743253401094e-10  2.1387895174113771e-10  2.1064146419252430e-10  1.4364818464114950e-10  7.9398991055091958e-11  1.6900076081810182e-10  1.6433273601962922e-10  6.3100995173781554e-10  1.2889451112058257e-10  6.1951816196276561e-11  4.0889885245302003e-10  1.9111660869133803e-10  2.0727751631750327e-10  1.2366419475911851e-10  3.2605003484016414e-11  4.4797179952813066e-11  9.8224115028551162e-11  6.8480464946792319e-10  2.9509964445134001e-10  1.8030840480946176e-10  1.3566758782737016e-10  3.3290085273404862e-10  6.6977261996005358e-11  1.0889720103003329e-10  3.5486360188981081e-10  1.3082372356294388e-09  9.8517983395893777e-11  2.8315547187584852e-10  6.1869060297390863e-10  1.2450444041012651e-09  1.9918914428826829e-10  1.5471823989442323e-09  4.2033060458800035e-10  2.2609286857747688e-10  1.1653538624876059e-10  4.1654771035747412e-11  6.5513448784016999e-11  1.2657440795249540e-10  1.5621610474511830e-10  6.3369144913168396e-11  9.8909475942790747e-11  1.0685694767694547e-10  1.2681643794337313e-10  1.9350803447470608e-10  5.0282065905559587e-10  3.2073391927709887e-10  1.6562228892549865e-10  9.5296695823750328e-11  6.1454345222810196e-11  5.8963009627161562e-11  7.0625781332706977e-11  1.8146694845512283e-10  2.2638081076443497e-10  1.0525611827664148e-10  1.0484658270035817e-10  2.3712984292051563e-10  1.3586577596952021e-10  6.9218364906811009e-11  5.9148522881734787e-11  1.0551900400453367e-10  3.4129588633945823e-11  1.8584725629516100e-10  3.2768795661006990e-11  1.6077137601594866e-10  1.7907068491074929e-10  1.5201207614254761e-10  3.9627238578091872e-10  7.9291950535243597e-11  8.2620050911785639e-11  1.4438661902884738e-10  3.0708504682300688e-10  1.4281559938579678e-10  2.6335977022461580e-10  1.1042936655762046e-10  1.3513068105947300e-10  1.5674960673896298e-10  2.7886897925584505e-10  1.2780916706474176e-10  3.3671188244307393e-11  1.1724614579808009e-10  1.1195886762529667e-10  1.4666763193135696e-10  2.5082524998454841e-10  1.7003826013067584e-10  3.4748328366939259e-11  1.2891654064424104e-10  2.3169765118117182e-10  2.8925315686933607e-11  3.2949290919045876e-10  1.6417580845691198e-10  3.9443777884763646e-10  1.1193927224742057e-10  2.3680861514818213e-10  3.2445160174936503e-10  7.5275588842063308e-11  1.0519316983513066e-10  2.1689604952949654e-10  7.3082050678054452e-11  4.8412561522184019e-10  1.6034806542780104e-10  9.7644350327370300e-11  1.0828498337042420e-10  2.0803255841030298e-10  5.4454201440755799e-10  4.8139613284100262e-10  1.7815721222343624e-10  1.7150981890462071e-10  2.0680887944868540e-10  3.9857902828263957e-10  4.5364384969155460e-11  2.2447447293037193e-10  8.1183649434881965e-11  1.2441652604419364e-09  1.1763748368737682e-10  4.5896014627017636e-11  5.5637320950807367e-10  3.3289579323906223e-10  2.4663744462059958e-10  2.1004462428796128e-10  6.3892869289837631e-11  1.5288376813178770e-10  3.3347356923856660e-11  4.3796660517455751e-10  8.1809415206149789e-11  1.3617277263923600e-10  1.2695494061295556e-10  6.5657300987160563e-11  3.4655116997297973e-10  4.2886730032289764e-11  1.1693002126208179e-10  2.4508119422387990e-10  1.7903152327750261e-10  7.1694920750265290e-10  9.2128561243521726e-11  5.7708879587000854e-10  1.4688930132927868e-10  3.5882507287071724e-10  5.5897402430874514e-10  2.4444590834743014e-10  1.5467934273367092e-10  2.7392808680683135e-10  4.8338207279689034e-10  3.4459692260462286e-10  7.5161477035552541e-11  4.9528029872821300e-11  1.6432608839040563e-10  3.5916983734076087e-10  1.8537645227954236e-10  1.2596906911445497e-10  1.6953281276438473e-10  8.1024334911237623e-11  7.1161519915030587e-11  1.9881883758342306e-10  5.7789181097693514e-11  2.0646914888817767e-10  9.0375253368315166e-11  4.8295123603709640e-10  4.9207221994133584e-10  8.1813398923897643e-11  4.1653053215039150e-11  3.9732911111018689e-10  6.5303693724082106e-10  2.5845923773955752e-10  9.9787927045340905e-10  2.8900028923824098e-10  3.1815830448000771e-10  2.7611474151091892e-10  2.6835687071042118e-10  9.7283966556345964e-11  3.1167621694095625e-11  1.9351086977847970e-10  1.0426754861664389e-10  2.1348031190258531e-10  7.5317631284660030e-11  1.2320031837213614e-10  2.0825551090388796e-09  1.7740118122057831e-10  8.0752798358024079e-11  8.2153762407124477e-11  4.0071294965081911e-10  2.4304564804753277e-10  1.8978415062974836e-10  2.0775978200697570e-10  4.4582138991119030e-11  7.6271361867383007e-10  2.4183060082939380e-10  5.3485586908673321e-10  2.4937499459542819e-10  2.4020377704685286e-10  3.0977702621007360e-10  9.4290756281156301e-11  3.3034841431336281e-11  3.6042481052902792e-11  3.7310297189976227e-10  3.5693383200648351e-11  1.1575481061376785e-10  1.0244773860727544e-09  7.5130047316043493e-11  3.4746997010236961e-10  2.6170932740394435e-10  6.1806100615828601e-11  5.9682632794914509e-11  1.8092722211896561e-10  2.4613998612278826e-10  4.8204597050208205e-11  1.1305316657451701e-10  1.5995466905179472e-10  7.5330642442338977e-11  1.6966974598758879e-10  2.1472745324627122e-09  3.6436041152150272e-10  3.2055418689530475e-10  1.0704387730051745e-10  1.0734683746343688e-10  1.8607760033339972e-10  7.9675448748206305e-11  1.3416929784895122e-10  4.9606035440971778e-10  8.6567325952661306e-11  2.3998219279842922e-10  2.1374436296672971e-10  1.3902245378780572e-10  5.0914151040012930e-11  7.7205016128109264e-11  5.4892990290026924e-11  4.6649908008373345e-10  1.0566818307132370e-10  2.2097499291098652e-11  5.7269323814978936e-10  3.0481103541311114e-11  6.2269860386481809e-10  1.1662932306474706e-11  9.5569174596394836e-10  1.7581182415273702e-10  2.4661094387052113e-10  1.0415523983135536e-10  2.8644910332792436e-11  8.4901230400994631e-11  2.7804573523846335e-11  2.0591542664066341e-10  3.7314027123974979e-10  2.7141181683385003e-10  3.2930450175525495e-10  1.3409013194386380e-10  9.3103683228828330e-11  6.3093267444260500e-11  3.6509371380922127e-10  5.0110540860304204e-10  1.0544898413278630e-10  1.0034905073127808e-10  1.4621545549071095e-10  7.6371451236648445e-11  4.5253790566092945e-11  5.4236837295676345e-11  3.1801577980625558e-11  8.8501494415056495e-12  1.7758096849330698e-11  9.8153242503942717e-11  2.2175330090406041e-12  1.0891667218720758e-11  1.8619421417063820e-10  3.5088437651855331e-09  2.2148138687115129e-10  4.2158575720329038e-11  2.1903321039029630e-10  9.2703382390023647e-11  1.1176795833221819e-10  4.3829736126974197e-11  1.6980315523051559e-11  8.7274942292388439e-11  7.4662378771455485e-10  7.9482296420459719e-11  1.8331279831083993e-10  3.2280146009082071e-10  4.8448281285563383e-10  9.6509927900367228e-11  1.0134467746466404e-10  5.8005665639991598e-11  7.6816351536001837e-11  1.1144922451501716e-10  5.7235640682538264e-11  6.1793564233021602e-10  5.8808396268834442e-11  2.7943717096791694e-10  8.7665978346377498e-11  1.2752376643137268e-10  3.0945996135661540e-10  4.1522887527938819e-11  6.2548052763923933e-11  2.8291343956817928e-10  1.1868866556707735e-11  1.1289258128707111e-10  8.7701551963498209e-11  7.6557829928750920e-11  5.6448539509333869e-10  1.6177857260760445e-09  3.0250901123766424e-10  2.8923391112662345e-10  9.0277473909237232e-11  6.8904633839529548e-11  2.5288995888081069e-10  1.1702238695838303e-10  9.8684542325824750e-11  1.0386783803927843e-10  1.9764771567423305e-10  7.3683132958872906e-11  5.2541928486754466e-11  7.0347008253627818e-11  3.9699564135379645e-11  8.6408239390623818e-11  1.9203756057856820e-10  1.6234651821201811e-10  1.1181088794736992e-10  2.7812328188599682e-10  4.7009336444160794e-11  1.3535101075419984e-10  5.2680846933063477e-10  6.6408516257732744e-11  1.1701055070914722e-10  1.4014235067524221e-09  5.7960686938370639e-11  3.3753775519314443e-10  5.1611067867282812e-10  1.5831003906950163e-10  1.2786854944917458e-10  1.2563700891115374e-10  8.9692179292476861e-11  2.5025096525634740e-10  2.8673700179975829e-10  1.7700911679147608e-10  4.7270283707384452e-10  4.2436741731342701e-10  1.2087862618474339e-10  2.0923852397452485e-10  6.6340401288870656e-11  8.4511018594545740e-11  6.2509964760002113e-11  2.3813433076870296e-10  4.0057026027949137e-10  3.0837297227720852e-10  3.2453734587407778e-10  8.5629032695214469e-11  2.2979283259201396e-10  4.8344481813305863e-10  1.7133631814312678e-10  4.7624403553905363e-10  1.8175928248077421e-10  1.3721392876536841e-10  1.1078226042271941e-10  5.1011384042053776e-11  5.4005539692026867e-11  3.3012882970011103e-10  6.2526350976344958e-11  6.4532103662847110e-11  1.2883517374264481e-10  3.2046894224741453e-10  3.1767699487515744e-10  1.5707718015003158e-10  1.1751154188057607e-10  5.9841370020462313e-10  6.3116215003064951e-10  1.6272233360110967e-09  2.7061764221392081e-10  1.9956142457965780e-10  4.4585231756520779e-10  4.5350175397874999e-10  1.1891793421585251e-09  2.9821402701984207e-10  2.4449311865467375e-10  3.2951748195556193e-11  1.2837034926761074e-10  3.3395210981074522e-10  5.1501828225287348e-10  2.1392537489093337e-10  6.6657453541922583e-10  3.0267601210717586e-10  2.1399616910122688e-11  4.7644220987290771e-10  3.3480676165634749e-10  3.8613815184024475e-11  3.3403100676433692e-10  4.1396586715009621e-10  5.4398610947500092e-10  1.4562786115466798e-10  6.7084751417520250e-10  1.9472537389860742e-10  4.7126962375981997e-11  1.2706688937392598e-10  1.3212586152737846e-10  3.1642835560772280e-10  7.8205479369911837e-11  2.6349913944034879e-10  1.9367255490013001e-10  8.0886654911764918e-12  2.3470276368762589e-10  5.7764788871350688e-11  8.9624919794318458e-11  1.2327206675886901e-10  6.3723409218196897e-10  4.1465518788695215e-10  3.0771531276884384e-10  1.1645205327388277e-10  1.3153113386001613e-10  9.1262421835684219e-10  5.4817022169810174e-10  1.3379779617153393e-10  1.4138481021072644e-10  9.2952939827774111e-11  4.8681795742863978e-10  1.3759093345086723e-10  1.7336259903119264e-10  9.4606707347312113e-11  7.0183150895938223e-11  6.3173609007499694e-11  1.4802572598046647e-10  9.7337717402453215e-11  1.2940759013133626e-10  4.3226365611865726e-10  7.5998095313394592e-11  6.0394635927005869e-10  1.2665627526433860e-10  2.2432920033403028e-10  2.7869567157271377e-10  5.5665319310012485e-10  1.1572335439288705e-10  4.0887069420653325e-11  6.2595061905285185e-11  1.4171025393378104e-10  1.5811446786691533e-10  5.1351988210478432e-10  8.3693173675014496e-11  1.5979457709585743e-10  2.4930007129855999e-10  1.3678785396831569e-10  2.3447918217620597e-10  3.3091641362516118e-10  3.1226871583557253e-10  1.0410161447840860e-10  1.7365375715350503e-10  1.4811503397941994e-10  2.2758516214121322e-10  4.8173649162197743e-10  3.7342935204224490e-10  2.0138587541025614e-10  2.0405470618836314e-10  1.2403127325113065e-10  1.7158229554846149e-10  3.0093161598224872e-10  3.8096866323121098e-10  3.6186228490867365e-10  1.6606125803364633e-10  2.1994428139994938e-10  1.9335640907624176e-10  1.5313405897413922e-10  3.9771611069806541e-10  3.1503771590092393e-11  1.0465353223438256e-10  1.2591056276738730e-10  4.1080588696789648e-08  4.0589773365130089e-10  1.7541068257211920e-10  6.0879686779039244e-11  2.5740342609609772e-10  1.3715523806829270e-10  6.3994324513278564e-11  1.0499168840138334e-10  2.0274975111302765e-10  2.0511446970365969e-10  1.9283859476040078e-10  1.8821367957041126e-10  3.0747993905305191e-10  6.4630999850137074e-11  7.9918731486377668e-11  1.9036185002560005e-10  1.2213631431876897e-10  3.5312110458549662e-11  4.0035056108939121e-10  6.4377672157639857e-11  6.1489178147763709e-11  1.9233398280837128e-10  9.8317264576838161e-11  2.3578939735952361e-10  2.9144901975576706e-10  1.4402245650955275e-10  7.8819677154128195e-11  1.8579472728377652e-10  9.5950203522191660e-11  3.2558491600913120e-11  9.0266038522522538e-11  5.7841231477434624e-11  7.8739445676226329e-11  2.2771192167604670e-10  4.7121509252560704e-11  6.5997960752268593e-11  9.4073817836410880e-11  9.3169544854832183e-11  9.3534914264982106e-11  2.5851556682076044e-10  8.7696742521204266e-11  1.8280716936048921e-10  2.0265391918378848e-10  9.9395206508522903e-11  1.6101072155488916e-10  3.1486143949286807e-10  1.2359046589141190e-10  6.1796453589333277e-10  1.7024875855737449e-10  1.4859384187931469e-10  1.3915273407271979e-10  2.2655379862172086e-10  4.3988055667707987e-11  3.9793762610142029e-11  7.6621406989419398e-11  4.3366245335528009e-10  2.0087406096365271e-10  6.3487269935642508e-10  4.4451564785504218e-10  1.2088132987544532e-10  5.4956831485260555e-10  3.6384302142686491e-10  1.8786587746590189e-10  7.0305852682094927e-11  9.3246010438205933e-11  1.7455256051397887e-10  1.8805700713516806e-10  4.1400958115168988e-11  4.8118866188306105e-10  2.7638348159662104e-10  3.0355647271941673e-10  5.3297030221901058e-11  3.5080623695412810e-10  2.6442229545690437e-10  5.8830648155811818e-10  7.3233440146477993e-11  6.1245445759472709e-11  2.3923185657081826e-10  7.2376178757195734e-11  4.2367376186579417e-11  1.4685183595946762e-10  2.4222127540069202e-11  6