<?xml version="1.0"?>
<VTKFile type="UnstructuredGrid"  version="0.1"  >
<UnstructuredGrid>
<Piece  NumberOfPoints="4852" NumberOfCells="9430">
<Points>
<DataArray  type="Float64"  NumberOfComponents="3"  format="ascii">-1 0 0  -1 -1 0  0 -1 0  0 0 0  1 0 0  1 1 0  -1 1 0  0 1 0  -0.5 1 0  -1 0.5 0  -1 -0.5 0  -0.5 -1 0  0 -0.1608775713298009 0  1 0.5 0  0.5 1 0  0.1967448868031411 0 0  -0.3425485472359452 -0.1762446113133913 0  -0.3389689825459882 0.2260121619416801 0  0.1744042660800717 0.3484456368290147 0  -0.1869620361066131 0.5567162992754991 0  -0.5058262451459042 -0.5390886962388233 0  0.490966556153181 0.2601981243677845 0  -0.06531157553064254 0.2024958342489767 0  0 -0.5061325913258391 0  -0.25 -1 0  -0.563188756316379 0.5790305430713405 0  0.6623611981170251 0.6366759130359267 0  -0.1765335063784544 -0.5390459401233272 0  -0.5408418569439278 0.02646487698462962 0  -1 0.25 0  -0.2077253329636279 0.02423629671854771 0  -0.6561152087111711 0.3112607673041365 0  -1 -0.25 0  0.03874466719104707 0.5935650770083818 0  0.1955515852074974 0.1304129089995351 0  -0.1372253339993726 -0.2206370050177975 0  0.3722048803005814 0.6167532588722926 0  0.9999999999999999 0.25 0  0.5355652144809806 0 0  -0.75 -1 0  -0.9999999999999999 -0.75 0  -0.646599592932296 -0.3242162222886564 0  0.25 1 0  -1 0.75 0  0.02757118475249542 0 0  -0.25 1 0  -0.75 1 0  1 0.75 0  0.75 1 0  0 -0.02898318711980711 0  0.05431375767436259 0.1434806883866218 0  -0.07829142345973857 -0.02798474383462192 0  -0.7025988796848176 -0.1322910525521137 0  -0.3232926574035231 -0.3485958435950416 0  -0.3424570580013953 0.4392026167833351 0  -0.1009998174728844 0.7651348384073752 0  -0.385197388648452 0.7036654575913329 0  -0.05594870931983436 0.4008736229538902 0  -0.07979383991241183 0.07251703514578497 0  0.3597866199637054 0.3724719503138936 0  -0.7174924658684824 -0.7312295990365287 0  0.4122680633882363 0.09141988066696427 0  0.6900064919098809 0.1940809195480093 0  -0.7488999015178376 -0.5285276075269372 0  -0.3889411017084071 -0.7115123046927784 0  0.7215901189610917 0.4221896935536991 0  -0.7771024038273628 0.09807008209685307 0  0.1973900337616364 0.7002778454276821 0  -0.2005970190224624 0.2902562152156322 0  -0.7998578853461628 0.5785975443595762 0  -0.7177476956440038 0.7671870443266097 0  -0.0535406493322044 -0.3740512727035171 0  0.5856174248422641 0.81792857209696 0  0.8209184633911051 0.8070189316558111 0  -0.1034831401173077 -0.6978235949932755 0  -0.5165242864370695 0.1644499102434179 0  -0.2035185646511355 0.1266981655732292 0  -0.36125710635263 0.07645576546882123 0  -0.3671420473720179 -0.05199142509497713 0  -0.4987918644007156 0.3970554023867033 0  0.375 1 0  1 0.125 0  -0.01204786777912202 0.07183748476402829 0  0.06195187823180746 0.3939804795910967 0  -0.1725954529709015 -0.1227816345129758 0  -0.2444765205867663 0.7744642188179229 0  -0.625 1 0  0.5341495785666674 0.4577821638940648 0  -0.5773180311461686 -0.8306935406746537 0  -0.2571268537715196 -0.7840455960118039 0  -0.3212270726883677 -0.5099322575888803 0  0.8341485782645891 0.5974409602313875 0  -0.5500959406397856 0.7915935893562785 0  0.125 1 0  -0.06791974948658348 -0.09369365880932237 0  -0.4965252970783514 -0.143321883664221 0  -0.875 -1 0  0.0297381520887864 0.04193937759179532 0  1 0.375 0  -0.875 1 0  0.05719070152184244 0.7950530793297206 0  -0.1971257217456642 -0.3749977342940741 0  -0.07415914584638603 0.5729162256256457 0  0.2372290125568528 0.5202886361292837 0  -0.7932409005595111 0.2306848261722829 0  -0.4970959961775478 -0.3905552319179409 0  -0.0004226602617717685 0.2729637129464789 0  0.5111365869378797 0.6427568298078398 0  0.3997674106417056 0.8086703685918004 0  -0.8070725141429501 0.4257124173599115 0  -0.06482397119364998 -0.2209215469314834 0  -0.7110029867617172 -0.01338639638086402 0  0.09078732878222329 0.05308464140691766 0  -0.4801255260018926 -0.2521216652170215 0  0.7238065164711277 0.08397240115267295 0  -0.8095787134687429 -0.4121941592884243 0  0.3380742064928374 0.1556799180873234 0  -0.7956216139749711 -0.2513684096612072 0  0.2369015483216096 0.2566596284718169 0  -1 -0.875 0  -1 0.875 0  0.1845885414401216 0.04872648493192026 0  -0.2489700676055331 -0.229980351446972 0  -1 0.375 0  -0.1723461963232048 -0.04180566651872963 0  -0.6503942533363074 0.469229373081695 0  0 -0.07736776745332727 0  0.08047078257248444 0.2618154804554461 0  -0.375 1 0  -0.2189719906058755 0.4267144560305683 0  -0.1213470409503495 0.1513136755430789 0  0.1335454957026534 0.5562835468370175 0  0.1322629652487243 0.1955639252144176 0  -0.4768375966997765 0.2715201660677266 0  -0.04668541329051414 0.01390187716281714 0  0.8510248303120763 0.3726476500518938 0  -1 -0.125 0  0.2862188223985576 0.8378883105448958 0  -0.1122020457627496 0.3149515581424518 0  -0.125 -1 0  0 -0.7575037395175259 0  0.07821397079968176 0 0  -0.9999999999999999 -0.375 0  -0.375 -1 0  -0.625 -1 0  0.7474787146812756 0 0  0.625 1 0  0 -0.2918843213980812 0  -1 0.625 0  -1 0.125 0  -1 -0.625 0  0.3284075310660084 0 0  0.004929205892015135 0 0  -0.125 1 0  0 -0.006571003003944568 0  1 0.625 0  0.9999999999999999 0.8749999999999999 0  0.8750000000000001 1 0  -0.5645878059106274 -0.6777318656055744 0  -0.00505478669512725 0.1615378766776129 0  0.3629745093875344 0.265893679838021 0  0.6530864446693033 0.2973562229373978 0  -0.8554647125221462 -0.6476307477259245 0  -0.8639472126644777 0.7875569729407597 0  0.4315478780779463 0.5044137354810092 0  -0.3997152957774684 0.8565855351914193 0  -0.7795189029151108 -0.875463013563054 0  -0.8711387577375416 -0.7851101546079721 0  0.1544365017907439 0.8431619144996689 0  -0.6601090735505423 0.1543881885833819 0  -0.5793743124524402 -0.06364528537385607 0  -0.8552680549440138 -0.06225535573908098 0  -0.2981627811300467 0.5639325717647339 0  -0.4259828921620802 0.5717277493941494 0  -0.3783033462912944 0.333052962636463 0  -0.6198678750874838 -0.2169058948109815 0  -0.2746214221151789 -0.09011380594973356 0  -0.641835964462923 -0.5902975969234053 0  0.8594783234066398 0.2678069506543138 0  -0.03297832370214199 -0.03311806332805035 0  -0.05547935511669903 0.1155190927095986 0  -0.1354587551074967 0.4340537827906998 0  -0.1209185498926855 0.03266612497877121 0  0.537889412668205 0.0657254951109735 0  0.5796430359578569 0.3631141945979351 0  0.6923061853686651 0.7765704663796933 0  -0.7938921805219553 0.8815970595991043 0  -0.644926533121271 -0.4307843654687187 0  -0.1176241633530422 -0.3982812276999114 0  0.8718865211156133 0.4908447536090118 0  0.07618587423708445 0.09482527672082484 0  -0.6654535352885719 0.8687687082703708 0  0.4553509509502759 0.354080934437649 0  -0.02663985485704522 0.03609268702442026 0  -0.4110505125046731 -0.4418292947118489 0  -0.3636976188994881 -0.2698217346744646 0  0.324514925690761 0.4846022045503823 0  -0.1978637443232177 0.203063890806264 0  0.7060481616656465 0.5342856782197869 0  0.2625353416258731 0.3587948999028689 0  -0.3773017426977816 -0.8520988614613864 0  0.1092728657900822 0.6837327627122057 0  -0.2856038187585379 -0.6133469164778571 0  -0.4432086131933911 -0.6214734092096829 0  0.2972232521791044 0.6942447024427774 0  -0.8754787595679107 -0.1748882982859875 0  -0.1810648858491085 0.8558128855810284 0  0.4551813249574566 0.1659581774938524 0  0.280558712538795 0.04744771372057478 0  -0.1439250907469234 0.6588988394433501 0  -0.01210545932191328 0.7100256535164344 0  -0.05377261150523045 0.875839400296923 0  0.004744425125139238 0.4720552330410956 0  -0.3899021474125489 0.1551578682677828 0  0.5494049875396956 0.1353847158511059 0  -0.4779086958992464 0.6837438301830117 0  -0.8522784969638981 0.3339424540131034 0  -0.09190139049561734 -0.5372134526832764 0  -0.03064976556652815 -0.5525546485944017 0  -0.2149009025746908 -0.2888133950112206 0  0.8682206874287161 0.1526636599419856 0  -0.1683627198173375 -0.6620195580832861 0  -0.8896447733318537 -0.5293752135299533 0  -0.2840062129841244 0.3403668921802893 0  -0.6777727949422365 0.5757370292876894 0  -0.8980854177922358 0.5322343425336576 0  -0.8989225788785268 0.6615914640646627 0  -0.646046699264591 0.07371438543978762 0  -0.8597965932724618 0.02914816242348215 0  -0.8887250225818225 0.1685888408322307 0  -0.1316502107028504 0.2306500715735201 0  0.1607954231694813 0.4487463582091982 0  -0.04386681569816636 -0.1260233244681878 0  -0.7545830502284777 0.671273933292028 0  -0.6040737840782675 0.6992596867599838 0  -0.2563147930948543 0.07951231452839867 0  -0.2513502968519052 0.6501993758455791 0  -0.02763815848148814 -0.006549333341200291 0  -0.4954696283841573 0.8777271576697149 0  -0.4792383139920433 0.4926256407173871 0  -0.2925679701982268 0.1455101239829007 0  0.002341290429710106 0.0238189228909932 0  0.7801538049295136 0.6858659666592904 0  -0.4711202182369766 -0.8251954370062439 0  0.2725328727095938 0.1973033027539129 0  -0.1472042009317667 -0.8632916856501999 0  -0.06437668092684395 -0.8298300196919195 0  0.4446002533300593 0.7081716065312028 0  -0.1182216248482049 -0.2891475351279195 0  -0.2667619289024726 -0.02587262035358532 0  -0.8941624994598052 -0.8968883198832108 0  -0.5749307882725201 0.2392732332368377 0  -0.478364300504559 0.08901295627093833 0  0.4921287102346482 0.8272218989137028 0  -0.02871988601743512 -0.2602985736151603 0  -0.3111594856326524 0.8761204766998248 0  -0.14442877384116 0.08126357144027832 0  -0.4714673276734353 -0.03426306190655759 0  -0.3901737496478722 0.01294790670456415 0  -0.2937212672094033 0.0282891700549217 0  -0.387004806152386 -0.1205009150133129 0  0.8884601599853764 0.6993611216683246 0  0.7931265197752644 0.9112695397064311 0  0.576871005130695 0.2109281867541391 0  -0.5619349791457388 -0.4710932154378958 0  0.6000404681189621 0.7084173078019649 0  0.6789006512290533 0.8892070178413573 0  -0.0521002325690854 0.3051842650337742 0  -0.9024115413339949 0.9048748434882329 0  -0.1284833283679668 -0.06737724224860188 0  -0.1702026584339564 -0.1832476518230522 0  -0.2540621968155916 -0.1441149077372131 0  0.03691622401
[...]
<PointData  Scalars="w"> 
<DataArray  type="Float64"  Name="w"  format="ascii">1.7166439346964019e-10  1.0307457998348053e-11  4.4437983245957920e-10  2.6308848387711160e-09  6.2582201970926661e-10  1.5681269601353245e-12  8.6566954516611138e-12  7.3212589228075706e-11  3.9013575363509876e-11  2.0710449238574372e-11  1.0515703737627701e-10  9.4234580650768722e-11  4.0733812225850289e-10  2.6641978847869521e-10  8.9781468249918444e-12  5.4169639590554529e-10  9.1352882908347745e-11  7.1751058507504892e-11  1.3079214033457441e-10  3.4805124357042636e-10  6.6221885290796961e-11  1.0521871164886565e-10  5.8458665072117712e-10  2.8054490258641848e-07  5.8398191187766991e-10  1.0440205645206047e-10  8.5772474441913860e-11  1.7181633856079720e-10  7.5662720519509795e-11  1.8769056717559822e-11  4.7409049654798517e-10  9.4983784180326981e-11  2.3851616006466513e-10  1.7758306373729491e-10  4.6460268790664608e-10  2.2934258645910368e-10  7.5815907652737177e-11  4.6722733750451881e-10  5.9618883163445186e-10  3.0517140063397841e-11  5.0756432630293432e-11  1.0753949329382504e-10  9.0294015405659237e-11  1.9145079588871991e-11  1.0769569229359908e-09  8.5586316567052774e-11  3.1390995594709586e-11  9.3008793809791976e-11  1.2711753499421268e-12  5.9910897127370405e-10  2.2591178102003890e-10  2.1798989216906499e-10  8.2501360370491103e-11  2.5438025725872435e-10  2.5527344029671466e-10  2.0220630764824398e-10  3.4535896755394555e-10  8.9219941045249547e-11  5.9737599208090940e-10  2.5081472562265275e-10  3.0388870226437596e-11  3.2010556171621088e-10  3.7685456335888779e-10  1.3854331596682855e-10  5.3430460498647076e-11  1.7510845658797879e-10  6.8499610392913211e-11  1.7632713672031958e-10  2.3318958763155359e-10  4.4935617880519815e-11  6.3240994735212163e-11  4.4219279398053111e-10  5.4346491345095883e-11  8.5415059202326799e-11  1.6821586984561237e-10  1.6767029454793995e-10  2.6096713605826141e-10  2.8811082857504023e-10  1.8265254371562681e-10  1.9119127794390476e-10  6.3450158236269394e-11  2.5246976366851947e-10  2.7268340564936863e-10  1.9953442534827106e-10  2.3720547288740533e-10  1.2368785356024181e-10  4.4782452803736898e-11  1.0733338966674242e-10  9.2459482814355250e-11  2.5623869200914353e-10  6.9204757140527831e-11  9.5178213798811055e-11  7.6325040565806379e-11  9.1862135184277182e-11  3.9582899344673993e-10  2.0740312161465040e-10  2.4909453977100367e-11  6.7224391860534437e-10  2.5358907534277043e-10  3.1000661255115713e-11  2.7023838182633984e-10  4.1698189821959049e-10  7.1099762753029800e-11  9.6291252969841257e-11  1.5212434115034993e-10  6.2613414570644424e-11  2.7637210859264482e-10  8.0752592355638862e-11  1.4154337585838574e-10  6.4358858423887850e-11  3.1859518099730943e-10  2.4339733405110832e-10  2.3824224994697358e-10  6.3824624117158651e-10  1.2211053134459957e-09  1.4216953565906492e-10  1.6964494657524905e-10  9.9775100850480900e-11  4.6136139121232990e-10  2.5418476962079314e-11  2.5362028667174644e-11  2.8231942682680257e-10  9.2885514335095038e-11  5.9158121853277489e-11  5.1074436688714478e-10  5.5476409278526091e-11  6.1351870861482693e-10  1.1975143392104350e-10  7.4669378533776110e-11  8.2276668174491193e-11  3.4928122030576350e-10  1.6814618248565755e-10  4.6991061240993293e-10  1.3265001231016461e-10  6.4237712114101118e-10  4.2122408650299831e-10  1.0781934319712701e-10  5.0720637270265607e-11  1.3142186287324682e-10  2.5859678577672969e-10  4.1507682363486046e-10  6.2536981336037105e-10  9.0787232583974541e-11  1.1932210586253894e-10  6.6737498223230143e-11  6.6299212989592225e-10  8.2473300578724837e-11  3.3835087795687786e-10  1.4230832630545823e-10  1.2257481713050186e-10  1.9619978039342167e-11  2.8747951589669044e-10  1.6214905489279217e-09  5.5380698923523045e-11  9.9017641541147876e-10  7.6288409002263200e-11  2.3731699849165102e-11  2.3862921314267475e-11  1.1951894169970765e-10  5.7347755551542320e-10  4.4931169913056090e-10  1.6113560087724915e-10  1.0996517958740166e-10  1.6229318415131216e-10  1.8256108844346889e-10  5.7577331353894343e-11  7.5113100033237531e-11  1.9863922146297378e-11  5.8624912285883073e-11  2.8816468510639564e-10  9.1702855574882374e-11  1.0333849970563983e-10  8.1924438120982625e-11  9.3445897717185302e-11  5.2443620213556474e-11  9.5576131089968949e-11  4.5809746138852400e-10  5.5981104743142269e-11  1.6427319004540416e-10  1.7311705836574880e-10  4.7786441145425387e-10  1.9714666529561335e-10  2.8924108729201263e-10  1.4584626822208048e-10  1.4367566971002510e-10  1.4353336150583391e-10  2.0710645908480168e-11  2.8439022495783908e-10  6.4953036633128516e-10  2.4711031585913973e-11  2.5692368563308574e-10  8.6590998120263598e-11  1.5633384937247303e-10  1.1553737751674382e-09  1.3794573873258479e-10  1.6558678917659207e-10  2.3082304372899196e-10  2.9024402611573695e-10  1.0279097338929676e-10  2.0457887846058721e-10  4.1354471069971088e-10  2.1612920993904734e-10  2.3714984431186109e-10  1.0880360538166832e-10  1.1047596935895111e-10  1.0916987222310240e-10  7.0719568143356913e-11  2.0967312425799764e-10  9.0470561551619801e-10  7.5774452205447468e-11  1.0637435305473085e-10  7.8110536514393432e-11  9.6703716134520195e-11  1.6190378171027919e-10  3.7922280884464651e-10  7.7188707379725006e-11  8.2273458466018807e-11  7.4891691522298343e-10  7.4235333125688685e-10  2.9620615932138920e-10  2.0164172361483154e-10  8.0106078691744631e-11  7.8356915346711343e-11  3.3305492345678612e-10  5.6954410174834407e-11  8.0528641915360731e-11  4.9223737785162608e-11  9.2567130342439753e-11  3.9899393104294118e-10  8.8479662594701294e-11  1.9951503366061554e-10  1.6511156654602626e-10  9.1462493138255612e-10  6.0323997537404747e-11  1.9203647828071500e-10  1.1629149154304774e-10  1.0848984578849741e-10  7.6342156171831651e-10  7.3494350990290871e-11  8.3376143903189234e-11  1.1806581456644683e-10  1.1558714232394599e-09  3.9481713166723793e-11  7.7138598852243018e-11  2.8387138372497201e-10  2.5502320508603105e-10  3.3615260941427182e-10  1.7635882716611064e-10  2.0701453088729889e-10  4.0636049802254956e-10  2.8694189198330328e-11  1.0371549914609650e-10  1.2666638548013943e-10  3.6633918058947599e-11  2.6801777208032074e-10  4.3052974103186336e-11  3.4118019912034627e-10  1.3567150392906114e-10  1.1052559992272784e-10  1.9270718866940083e-10  5.0279093810454306e-10  7.1277136319551903e-11  2.6157992080527830e-11  1.4485061326076306e-10  8.0723081352492803e-11  5.7370832240380980e-11  7.2402125482880288e-11  1.8101253400333145e-10  4.8379224236671673e-11  2.6676368284247938e-10  2.5794746760119786e-10  1.3089144430264955e-10  1.3093821990500606e-10  1.3358255728582469e-11  7.2434816654860748e-11  1.4924468692593163e-10  1.6396332586745422e-10  5.1102016771035702e-10  3.5955282704448376e-11  8.0396348298545962e-11  3.2947739959105548e-11  2.4510291005042457e-10  1.2398009681512461e-10  1.8093126345999491e-10  7.5753044100660225e-11  8.5912610974209729e-11  1.2048551062862875e-10  2.0018921905448967e-10  2.2466708154952883e-10  2.6148926322466297e-10  4.4335424141470668e-10  2.1470733573296233e-10  2.1272660646788421e-10  1.4141055708232423e-10  8.0604687808958996e-11  1.7318320382236478e-10  1.6890516004297512e-10  6.3856322404119894e-10  1.2608869131416563e-10  6.1302381977807290e-11  4.1369425918495175e-10  1.9335410936026949e-10  2.0217610693539924e-10  1.1377668812375244e-10  3.1759564281087807e-11  4.4364296753139619e-11  9.5780951850649669e-11  6.9216335844982382e-10  2.9819543282801696e-10  1.7993860445517262e-10  1.3340620789759100e-10  3.3624364373190071e-10  6.7492448742385354e-11  1.1069643031850557e-10  3.5666413243379468e-10  1.6799813319964173e-09  9.5944709390785962e-11  2.8575918277851469e-10  6.2513126144353379e-10  1.2637667266601034e-09  2.0063308998321379e-10  1.5722505043853454e-09  4.2498004686471270e-10  2.2661382907717677e-10  1.1872389966424388e-10  4.0891016598740507e-11  6.3708044585954196e-11  1.2723947850107098e-10  1.5484696170244910e-10  6.2024006344584491e-11  9.9575961414996327e-11  1.0789488535784888e-10  1.2476972636485870e-10  1.9497217527883061e-10  5.1154805834425769e-10  3.2527431013592027e-10  1.6523171398111325e-10  9.3719145965317220e-11  6.0990552767221401e-11  5.8481489562264869e-11  7.0358745127740516e-11  1.8136711463051994e-10  2.2230796048608301e-10  1.0327005886185118e-10  1.0306573321695707e-10  2.3478775686124044e-10  1.3357164930273818e-10  6.7164536157420405e-11  5.8214897518420044e-11  1.0566485182500603e-10  3.3583896263804482e-11  1.8327332789067227e-10  3.1837889232223260e-11  1.6139333001895776e-10  1.7891303910154646e-10  1.5346722612835954e-10  3.8839256209191203e-10  7.8868689976575552e-11  8.0887974558777511e-11  1.4149732407019039e-10  3.0381630271357763e-10  1.4727375848505857e-10  2.6349785130450194e-10  1.0900561948366150e-10  1.3411838069329313e-10  1.5507952231181040e-10  2.8621950547379498e-10  1.2901857141766228e-10  3.3070185538252530e-11  1.1448508411031280e-10  1.1209155735338312e-10  1.4340631072136082e-10  2.4299142808078182e-10  1.6551541946697291e-10  3.4189598195584408e-11  1.2732807353363007e-10  2.3391881474524812e-10  2.8111386171356854e-11  3.3082691740676956e-10  1.6668444978771491e-10  4.0111311895841993e-10  1.1425817293580032e-10  2.3524825319910737e-10  3.2345711598462799e-10  7.3590977731388461e-11  1.0309345782897986e-10  2.1284923468998625e-10  7.0688785688632351e-11  4.8816307750774314e-10  1.6219567720010838e-10  9.5564578752728952e-11  1.0644589065589370e-10  2.0377994952917829e-10  5.5401234960957825e-10  4.8867924214035107e-10  1.7739296482002852e-10  1.6990922804201706e-10  2.0187889674050776e-10  3.9132308877969406e-10  4.4461175190028655e-11  2.1971780109506684e-10  7.7795800284126935e-11  1.2544067886444851e-09  1.1653263850342186e-10  4.5633898183682644e-11  5.7050980845223434e-10  3.3742011294340401e-10  2.4830064884066352e-10  2.0787006678254812e-10  6.3088513402001299e-11  1.5098776506791141e-10  3.2421838178504352e-11  4.3988700573480761e-10  7.9840712682984966e-11  1.3248303041003102e-10  1.2645444187249019e-10  6.4205689395561365e-11  3.4491285692905726e-10  4.2289405840072742e-11  1.1432300285692033e-10  2.4731398290064731e-10  1.8047326400326545e-10  7.3021574684942670e-10  8.9705704588951622e-11  5.8343523561368558e-10  1.4155073828336431e-10  3.6568202320436961e-10  5.7124154381541774e-10  2.4731652053884865e-10  1.5451558328132639e-10  2.7723780477747302e-10  4.8650941549439519e-10  3.4354847606031650e-10  7.4099230735360181e-11  4.9674406305863459e-11  1.6628966785996204e-10  3.6404439646668253e-10  1.8303260284336800e-10  1.2382806020586994e-10  1.6472905432428816e-10  7.8478612988180666e-11  6.9509508112092784e-11  1.9874713601475299e-10  5.6472755650302049e-11  2.0513941676515367e-10  8.9976143092573413e-11  4.9107460313325755e-10  4.8471820895442163e-10  8.0972798456830752e-11  4.1339442592648307e-11  4.0039582049027261e-10  6.6214474083176844e-10  2.5927900409484745e-10  1.0158892505719082e-09  2.9309457680893241e-10  3.2199117141422271e-10  2.8020641966338013e-10  2.7272643869862736e-10  9.6346445976461088e-11  3.0602891938304416e-11  1.9374608088962418e-10  1.0037526874770464e-10  2.1046639578611814e-10  7.5606650591916607e-11  1.1936103257997059e-10  2.1140151314222809e-09  1.7908190804638656e-10  7.9573798636134563e-11  8.0242936572716567e-11  4.0529742575458129e-10  2.4619570278079305e-10  1.9092994296090259e-10  2.0898861116510672e-10  4.3679885569518882e-11  7.7702297979554216e-10  2.4264117721579850e-10  5.3005613596714420e-10  2.4816470326539690e-10  2.3581172843468993e-10  3.0548640177666969e-10  9.4097993818369008e-11  3.2653330945568144e-11  3.5690724293361129e-11  3.7975191425688835e-10  3.4932339294876203e-11  1.1230930486559096e-10  1.0380690709688158e-09  7.5091093383416890e-11  3.3647273683773348e-10  2.5795959899324818e-10  6.1398851566727072e-11  5.7603440364911052e-11  1.8408304214245059e-10  2.4804925408263900e-10  4.6310045270396075e-11  1.1306434516549183e-10  1.5634892500836412e-10  7.4906114573029507e-11  1.6712187024873023e-10  2.1817990398957702e-09  3.3135562390074664e-10  3.2285364575771443e-10  1.0743096428330788e-10  1.0435256642042712e-10  1.8145228465998578e-10  7.7004404154570758e-11  1.3446224542366660e-10  4.9373691030916721e-10  8.6022765556674474e-11  2.3607839677481228e-10  2.1068657500479092e-10  1.3948595603657562e-10  4.9685637210662830e-11  7.4894626639996820e-11  5.2888439669974538e-11  4.4634102723113198e-10  1.0392770369824104e-10  2.2049975828251856e-11  5.7755987332771427e-10  2.9749615168761096e-11  6.2690795277423404e-10  1.1591211234204474e-11  9.3209968783773973e-10  1.7445931765340434e-10  2.5590409162233676e-10  1.0160591546732163e-10  2.8473873725753583e-11  8.2387328815398570e-11  2.7206258750646929e-11  2.0127730940059677e-10  3.7490150296083549e-10  2.7156228517408242e-10  3.2825223694318820e-10  1.3415784514967313e-10  9.0841787978805052e-11  6.1811309226569569e-11  3.6901503104266491e-10  4.9506978670649532e-10  1.0426991933561239e-10  9.9095623804862309e-11  1.4504302499803064e-10  7.4346635487518472e-11  4.4134948640209250e-11  5.2914641917437609e-11  3.1344837148081226e-11  8.7570150305934912e-12  1.7542317998311419e-11  9.5800390147667288e-11  2.2406781348052437e-12  1.0980003637747540e-11  1.8732736843719214e-10  3.5276848314088484e-09  2.1347028156467152e-10  4.0832443852160457e-11  2.1873328237843921e-10  9.0346823044199477e-11  1.1028297107968977e-10  4.2584164338944109e-11  1.6751206759774749e-11  8.5695609236309103e-11  7.6495976242807441e-10  7.7749993177330752e-11  1.8356350301641364e-10  3.2148161019537142e-10  4.8745922618508166e-10  9.6882654105800433e-11  1.0086775405830003e-10  5.7225368601247111e-11  7.6673370401458202e-11  1.0846663534066276e-10  5.5640186799147105e-11  5.9595335710588464e-10  5.8495544186812542e-11  2.8413038424312368e-10  8.6785341564325074e-11  1.2716065232481024e-10  3.0575630529759127e-10  4.1292315590263334e-11  6.1058342017182706e-11  2.7141171712496525e-10  1.1653480975851592e-11  1.1125392811952190e-10  8.6573639025338770e-11  7.5621327929665760e-11  5.7211526062969244e-10  1.6213691959084507e-09  2.7154015584298823e-10  2.9129050138455987e-10  9.0064384152800778e-11  6.6806395107580079e-11  2.4872643030854891e-10  1.1427872888886176e-10  9.5156239615550516e-11  1.0107249076829345e-10  1.9486059718364003e-10  7.1882659438167204e-11  5.0858387061094085e-11  6.8648651754930722e-11  3.8708862063639344e-11  8.4152805178529460e-11  1.9406648641180474e-10  1.6319255897894514e-10  1.1260409678667483e-10  2.7367813967813262e-10  4.5936483508840791e-11  1.3429117372082189e-10  5.3583918654998382e-10  6.5151081614157875e-11  1.1572657822521007e-10  1.2764334676062752e-09  5.7451538657398627e-11  3.4379003845356933e-10  5.2759068543328701e-10  1.6039439075596922e-10  1.2614667655093167e-10  1.2660180070467768e-10  8.7246211024753198e-11  2.5261238386309391e-10  2.9050019212237614e-10  1.7709768417089044e-10  4.8290698384101248e-10  4.2839649665897518e-10  1.1841193919809859e-10  2.0499041541404747e-10  6.4396186795727910e-11  8.2736540518086970e-11  6.1584777002180054e-11  2.3501228763499572e-10  4.0235795107113614e-10  3.1035762312160980e-10  3.2781392088079269e-10  8.4734487272835508e-11  2.3375658844823506e-10  4.9085673569662973e-10  1.7030226002676938e-10  4.6597854453721831e-10  1.7942217845440918e-10  1.3770180440379290e-10  1.1062236530061027e-10  5.0538141086738101e-11  5.2094668154855763e-11  3.3332905085557052e-10  6.1412292443020322e-11  6.3753467703787732e-11  1.2644796689513827e-10  3.2369682366519395e-10  3.1691745992323075e-10  1.5687199499120386e-10  1.1758433594455077e-10  6.1273498543769723e-10  6.4408488936767200e-10  1.6545146955519024e-09  2.7448312042978987e-10  2.0044940993812118e-10  4.4959508176716946e-10  4.5635013923273754e-10  1.2173144581849710e-09  3.0183358841661961e-10  2.3738970160518674e-10  3.2740441964910066e-11  1.2483695214344705e-10  3.1866607609997406e-10  4.9100409617629354e-10  2.1504359080678408e-10  6.6723172002069284e-10  2.9660391754094220e-10  2.1120178120024210e-11  4.8356217598792363e-10  3.3967985085187435e-10  3.8410319662332670e-11  3.3715086246897580e-10  4.1480687959630504e-10  5.4989788899602085e-10  1.4655347172935417e-10  6.7705449714140902e-10  1.9580947454284900e-10  4.6606339802153081e-11  1.2670635975466809e-10  1.3146157934698507e-10  3.2001516681265047e-10  7.6525851895363077e-11  2.6069991066252168e-10  1.8740406664815205e-10  7.9947720540482185e-12  2.4782509704405597e-10  5.6290919583695832e-11  8.8759537488691375e-11  1.2107196647427221e-10  6.4949652149213972e-10  4.1933231029728684e-10  3.1362084482473122e-10  1.1653013749365364e-10  1.2860358749525737e-10  9.3275442176230494e-10  5.5977083280041996e-10  1.3321835536722150e-10  1.4098733854754657e-10  9.4263552684563096e-11  4.9140126550128482e-10  1.3355032449222926e-10  1.6936259731053055e-10  9.2714802435042462e-11  6.9080171450150692e-11  6.2152901126681497e-11  1.4401532457604646e-10  9.5954763164078815e-11  1.3011065439149849e-10  4.2705556021454464e-10  7.3915561341158628e-11  6.1472180159400400e-10  1.2339613177963466e-10  2.2608495744197265e-10  2.7119420568503323e-10  5.6707290419170568e-10  1.1504632587685172e-10  3.9911314192101844e-11  6.1076307055261486e-11  1.4259556573297469e-10  1.5809998981828342e-10  5.0875669953162158e-10  8.1875988937281289e-11  1.5413527947222600e-10  2.4234905310487010e-10  1.3783990212691444e-10  2.3364611306373953e-10  3.3307963371264266e-10  3.1579191462074178e-10  1.0109431495524875e-10  1.7168620404499732e-10  1.4816852082200186e-10  2.2836075390789053e-10  4.5372847868817411e-10  3.7544767823845316e-10  2.0170988639260858e-10  1.9854941723826477e-10  1.2134435772746659e-10  1.6932356357559635e-10  3.0359643370458259e-10  3.8205932806175094e-10  3.6356355347417489e-10  1.6725712210513161e-10  2.2150031728274133e-10  1.9658447423882363e-10  1.4942944377223619e-10  3.9471176667708871e-10  3.0916191049973322e-11  1.0305935116470796e-10  1.2778814783532788e-10  3.4254031644918716e-07  4.0715372607438559e-10  1.7019837387325491e-10  6.0964304767685161e-11  2.6014847606800231e-10  1.3547774603341837e-10  6.2917708263178623e-11  1.0268925807797114e-10  2.0394464257760536e-10  2.0280902594689797e-10  1.8952537096906351e-10  1.8655024706722568e-10  3.0624136802449456e-10  6.3272691166677075e-11  7.9413324733600836e-11  1.8774962972617538e-10  1.2319253381762639e-10  3.4369486665243846e-11  3.9897109462311742e-10  6.3705019456785529e-11  5.9720459655100176e-11  1.9189791864020815e-10  9.6621199268146763e-11  2.3236054295594216e-10  2.9127612441710599e-10  2.1773633315191165e-10  7.9925600163606472e-11  1.8151404790990420e-10  9.4605060433258763e-11  3.1795112227980746e-11  8.7726546380764122e-11  5.7487542510448661e-11  7.9671146957353674e-11  2.3057690167294840e-10  4.6022868558112745e-11  6.4292817664906681e-11  9.2155180563343308e-11  9.1005938993384267e-11  9.3025427319318565e-11  2.5455970506842829e-10  8.8200520350409727e-11  1.8538033862523068e-10  2.0553266097786430e-10  1.0111854488078947e-10  1.6178560484028627e-10  3.1584806998951888e-10  1.2207887286075476e-10  6.2475947283415170e-10  1.6869333680872376e-10  1.4705156220354597e-10  1.3999219889214039e-10  2.2013042103338697e-10  4.3224914766423324e-11  3.8776202928381300e-11  7.5276022642361608e-11  4.3702750861145622e-10  2.0271528542341725e-10  6.4326754136379738e-10  4.5252440201400050e-10  1.2069546294893083e-10  5.5649859260619952e-10  3.6104182635227723e-10  1.8533499055159272e-10  6.9285173860436207e-11  9.2584053112858182e-11  1.7618932311047896e-10  1.8894957421642207e-10  4.0741374455426036e-11  4.8687317020418245e-10  2.8190271016588048e-10  3.0830161469418251e-10  5.1823575625576720e-11  3.5294548150721793e-10  2.6035433331272579e-10  5.9819921823945184e-10  7.2298392392692248e-11  5.9762104046899443e-11  2.4141434356695272e-10  7.1004636739368012e-11  4.1356569053954597e-11  1.4327206926801271e-10  2.3852932449058024e-11  6