<?xml version="1.0"?>
<VTKFile type="UnstructuredGrid"  version="0.1"  >
<UnstructuredGrid>
<Piece  NumberOfPoints="4852" NumberOfCells="9430">
<Points>
<DataArray  type="Float64"  NumberOfComponents="3"  format="ascii">-1 0 0  -1 -1 0  0 -1 0  0 0 0  1 0 0  1 1 0  -0.9999999999999999 0.9999999999999999 0  0 1 0  -0.5 1 0  -1 0.5 0  -1 -0.5 0  -0.5 -1 0  0 -0.1608775713298009 0  1 0.5 0  0.5 1 0  0.1967448868031411 0 0  -0.340230818833738 -0.1758023853355465 0  -0.3363509741548984 0.2239038559337516 0  0.1739519767310595 0.3457429221627997 0  -0.1846738024244122 0.5545937436781773 0  -0.5032915019095907 -0.5374751768584395 0  0.4904817213291374 0.256798335900145 0  -0.06413843183205392 0.2007297545384031 0  0 -0.5061325913258391 0  -0.25 -1 0  -0.5610598372454181 0.5770250776385134 0  0.6614267153028331 0.6336474846886992 0  -0.1763498448494514 -0.5377035593511589 0  -0.538433040339389 0.02520744032344318 0  -1 0.25 0  -0.205790603127904 0.02368235520364836 0  -0.6541795341391706 0.3090828162923415 0  -1 -0.25 0  0.03923820682951934 0.5913204463480491 0  0.195116964943391 0.1286363544832846 0  -0.1360901330995598 -0.2198421247320973 0  0.3709216129294214 0.6140951191228743 0  1 0.25 0  0.5355652144809806 0 0  -0.75 -1 0  -1 -0.75 0  -0.6446306904953009 -0.3230422710267029 0  0.25 1 0  -1 0.75 0  0.02757118475249542 0 0  -0.25 1 0  -0.75 1 0  1 0.75 0  0.75 1 0  0 -0.02898318711980711 0  0.05429909548655278 0.1420209467795583 0  -0.07755343208338118 -0.02779885940446208 0  -0.7007752340710194 -0.1325010806803231 0  -0.3212120017068638 -0.3472948959262111 0  -0.3396881813499407 0.4368867251721188 0  -0.09975706486507639 0.7639576413455446 0  -0.3827784895034093 0.7023978832411994 0  -0.05458669237903326 0.3984773348008215 0  -0.07870857195125397 0.07182905647852392 0  0.3588814352328735 0.3692116757298731 0  -0.7158580839549926 -0.7299761020779062 0  0.4118453552721661 0.08977765495746477 0  0.6899644700650389 0.1915067938926715 0  -0.7471701351759549 -0.5269831044918556 0  -0.3872044550569323 -0.7107046767274132 0  0.7215598225382208 0.418408150320955 0  -0.7758194627970287 0.09681834141073342 0  0.1967142781981824 0.6983799758993049 0  -0.1982741777912065 0.288092055717252 0  -0.7987356869889121 0.5773447811417547 0  -0.7167915713183767 0.7662395937500763 0  -0.04705677034662836 -0.3734899616062948 0  0.5846617688521214 0.8165679834245569 0  0.8204274955851899 0.8061149485333374 0  -0.104653568968771 -0.6973014620898034 0  -0.5139922445102276 0.1624177905166659 0  -0.2014422497104898 0.1254025665732029 0  -0.3587018026049935 0.07510043004449742 0  -0.3646712949081434 -0.05243515053344173 0  -0.4962303580523504 0.3946154778226611 0  0.375 1 0  1 0.125 0  -0.0117591149420249 0.07111169423879581 0  0.06220590070339549 0.3914326588535777 0  -0.171107889564825 -0.1223704607438816 0  -0.2426859648343353 0.7734548060818877 0  -0.625 1 0  0.5333666879507666 0.4539500156902672 0  -0.5757855951317512 -0.8301129878184749 0  -0.2574461506049167 -0.7837274711245337 0  -0.3194072453124156 -0.5084370839483421 0  0.8339833057586404 0.5951387141788472 0  -0.548442881248588 0.790681737290181 0  0.125 1 0  -0.06732730435048841 -0.09339958940910348 0  -0.494128428035671 -0.1433297672942291 0  -0.875 -1 0  0.02959438675764237 0.04153557996019219 0  1 0.375 0  -0.875 1 0  0.05735418422158951 0.7937695976904424 0  -0.1958656931232853 -0.3735102707107625 0  -0.07261172462482843 0.5706969475072046 0  0.2363955485605803 0.5175472011698319 0  -0.7920154034177288 0.2292225043628106 0  -0.4946470773533402 -0.3890855084530921 0  0.0002763974228873193 0.2707714909796741 0  0.5098070226039987 0.6399333617578604 0  0.3987897563777558 0.8071889556617805 0  -0.8058921012299907 0.424313650498218 0  -0.0639266852414539 -0.2207335730390577 0  -0.7092789939849165 -0.01433603602889561 0  0.09054032180123425 0.05237128158406745 0  -0.477704013940717 -0.2513368013496702 0  0.7238707491089655 0.08281569908119325 0  -0.808398479519036 -0.4110273795040867 0  0.3375375941210879 0.1533939504099262 0  -0.7942193274138246 -0.2508739143187375 0  0.2363360858095464 0.2540068490644744 0  -1 -0.875 0  -1 0.875 0  0.1843346676380481 0.04780968269750115 0  -0.2471266779592679 -0.2290711221288783 0  -1 0.375 0  -0.1707749780136294 -0.04179216555431028 0  -0.6485380152916679 0.4671334282036076 0  0 -0.07736776745332727 0  0.0805103973982314 0.2595719777764393 0  -0.375 1 0  -0.2165204458168283 0.424353617806235 0  -0.1197608360545667 0.1499300604537946 0  0.1332555745407577 0.5537960021510043 0  0.1319907974287071 0.1935278578969825 0  -0.4742843646889763 0.2691290441987639 0  -0.04607739332481296 0.01389644552756905 0  0.8514017390191939 0.3701279567302376 0  -1 -0.125 0  0.2854940813125385 0.8367989351588261 0  -0.1104589943829717 0.3126767440519871 0  -0.125 -1 0  0 -0.7575037395175259 0  0.07821397079968176 0 0  -1 -0.375 0  -0.375 -1 0  -0.625 -1 0  0.7474787146812757 0 0  0.625 1 0  0 -0.2918843213980812 0  -1 0.625 0  -1 0.125 0  -1 -0.625 0  0.3284075310660084 0 0  0.004929205892015135 0 0  -0.125 1 0  0 -0.006571003003944568 0  1 0.625 0  1 0.875 0  0.875 1 0  -0.5622126790221825 -0.6764249807320674 0  -0.004544657807318209 0.1600087906992563 0  0.3623815062917053 0.2627818582695285 0  0.6529835279051831 0.2937152462997836 0  -0.8545061949380512 -0.6466836130346629 0  -0.8636811905795039 0.7873493233648862 0  0.4303515502485323 0.5011232537277691 0  -0.3982187596643548 0.8557812022167115 0  -0.7788229525967314 -0.8747285330317417 0  -0.8703883649517244 -0.7844523783964572 0  0.1542208125043945 0.8420905310504547 0  -0.6581910391834815 0.1524762618583476 0  -0.5772121397777937 -0.06433918521953667 0  -0.854415525336045 -0.06262184049121695 0  -0.2955546793698468 0.5618714004153729 0  -0.4232951449902645 0.5696297060531939 0  -0.3756036649756218 0.3307263361415008 0  -0.6179296070950703 -0.216440582899731 0  -0.2724541293500558 -0.09009386598862437 0  -0.6396644453445482 -0.5885697513233951 0  0.8597156102383544 0.2659020357537498 0  -0.03275774166158764 -0.03293582258324438 0  -0.05456248884709122 0.1144168551227771 0  -0.1334087439098361 0.4316819377212109 0  -0.1195432221523595 0.03233938959791136 0  0.5377759885101882 0.06456481393321464 0  0.5792475647439914 0.359177778762461 0  0.6913607873692617 0.774837197097114 0  -0.7938889871559581 0.881214888145725 0  -0.6428999587082087 -0.429165888959356 0  -0.1159683557997415 -0.396766072199158 0  0.8721835701904748 0.4886700390071795 0  0.07601050103127273 0.09374125232236354 0  -0.6646998893062521 0.8682533097157068 0  0.4546054009778931 0.350442965395186 0  -0.02620515408343516 0.03578129433997834 0  -0.4086269587046956 -0.4403491913294813 0  -0.3614392660678196 -0.2688505146623629 0  0.3234788812385522 0.4815957587606752 0  -0.1956989143875776 0.2012497484106532 0  0.7056460774301029 0.5307003873450367 0  0.2617866081018914 0.355877606520892 0  -0.3765222427011913 -0.8518914935969562 0  0.1091905492294026 0.6818167561495569 0  -0.2846376739405824 -0.6120426192334232 0  -0.4408294911244863 -0.6201657786274242 0  0.2961369533450033 0.6922165606543319 0  -0.8747139776472828 -0.1748429334055276 0  -0.1799651997488959 0.8549300287372064 0  0.4547477951199589 0.1633155766085603 0  0.2802914660168634 0.04664836994181561 0  -0.1420860923331675 0.6572507655107396 0  -0.01128139181508026 0.7084475156174963 0  -0.05329007557722386 0.875016427027472 0  0.005541858090039691 0.4695634551861627 0  -0.3872989862123151 0.1532737131995714 0  0.549183932815053 0.1331699780660723 0  -0.4756164141096929 0.6822939292643102 0  -0.8513740064972534 0.3327678959152209 0  -0.08981843074143091 -0.536254174752643 0  -0.02241216478014607 -0.5521101722229106 0  -0.2133773748476916 -0.2876257710891353 0  0.8685091427444623 0.1515259557833263 0  -0.1696660193080072 -0.6610937702053338 0  -0.8891019296677463 -0.528496715655247 0  -0.2813183907437423 0.3380586820248051 0  -0.6761292052031618 0.5740220144443583 0  -0.8973799810241659 0.531462074742987 0  -0.8984401126410643 0.6610972885279268 0  -0.6440748974380744 0.07217173280472712 0  -0.8590296005896592 0.02848340583147124 0  -0.8880631141671973 0.1677637155217964 0  -0.1298553939655685 0.2287491441789998 0  0.1603871272979203 0.4460204838561043 0  -0.04348609587311667 -0.1257903343880045 0  -0.7534500543310745 0.669998599682588 0  -0.6024001486830511 0.697821350487938 0  -0.2540725697347129 0.07841568511419873 0  -0.2490701198266473 0.6486517928022164 0  -0.02737533364049571 -0.006365371109093032 0  -0.4943651897809545 0.8769910025275205 0  -0.476625870475659 0.4903205117901073 0  -0.2900752354390411 0.1438744101301728 0  0.002315646479910417 0.02358901373350131 0  0.7795303895694348 0.6836707636582783 0  -0.4696346115431171 -0.8248646688725485 0  0.2719537300239336 0.1948907501140386 0  -0.1486332488556791 -0.8633452678465194 0  -0.06449466727237745 -0.8294376667046522 0  0.443264190334042 0.7059626460272471 0  -0.1169516578561345 -0.2882024367197185 0  -0.2645866126040898 -0.02623614555961317 0  -0.8939614668837915 -0.8965513369220761 0  -0.5725829485403924 0.2370017708182996 0  -0.4757601705364357 0.08738772690110913 0  0.4912242262371566 0.8258715294146961 0  -0.02779671515880348 -0.261078182466666 0  -0.3100195216222436 0.8754319005904162 0  -0.1427697196816231 0.08043513052125935 0  -0.4689371504095015 -0.03502744067290574 0  -0.3876316375720468 0.01199526556991416 0  -0.2914136447059827 0.02746791724597572 0  -0.384560982450957 -0.1205354518535943 0  0.8881958940635811 0.6981503889171267 0  0.7929711539419965 0.9109925951700141 0  0.5766710543513103 0.2078839809522604 0  -0.5595676146892176 -0.4694346323651369 0  0.5988340074384837 0.7059967732646953 0  0.6782807980164401 0.8885108514863816 0  -0.05086420581335602 0.3029297521985997 0  -0.9024379804595138 0.9048625868333561 0  -0.127322232275462 -0.06711526796973118 0  -0.1688066456064172 -0.1825398107085345 0  -0.2520502023233672 -0.1437297297043736 0  0.03716948367235095 0.2014501364954729 0  0.9020228801196427 0.89465887425550
[...]
<PointData  Scalars="w"> 
<DataArray  type="Float64"  Name="w"  format="ascii">1.7450300272108597e-10  1.0228888884100761e-11  4.4389437375180090e-10  2.5917531369489400e-09  6.2422608252402649e-10  1.5459355926973257e-12  8.6315557628033584e-12  7.4718191061628146e-11  4.0402400095454911e-11  2.1166484244936867e-11  1.0843769945300692e-10  9.6088944478094909e-11  4.0518380850582375e-10  2.7637415222704672e-10  9.0848531755523404e-12  5.2431131879601267e-10  9.0941521096405461e-11  7.2423208606709641e-11  1.3078167059791050e-10  3.5709482295313071e-10  6.7027671546167874e-11  1.0384719571588915e-10  5.7444135001418692e-10  7.2078646344138301e-09  5.7645743345036754e-10  1.0898641581808939e-10  8.9263760510469942e-11  1.7187819573875514e-10  7.6809153411997790e-11  1.8825884902323968e-11  4.6909318279794678e-10  9.8399835868043418e-11  2.4452795562820689e-10  1.8168269486505634e-10  4.5462262182694937e-10  2.2581453529307915e-10  7.8394894422930489e-11  4.7899924982731785e-10  5.8688362733320857e-10  3.1060675187948149e-11  5.2031517066754759e-11  1.0869208232802839e-10  9.2504746410065435e-11  1.9296787149843038e-11  1.0481135645456231e-09  8.8029315039382215e-11  3.1866961824523934e-11  9.5738224351458502e-11  1.2563707894201329e-12  5.8832380359208295e-10  2.2049633480816482e-10  2.1326891882741009e-10  8.2835498666677945e-11  2.5238013589608299e-10  2.5971144757372921e-10  2.0692191328046604e-10  3.6001369664134321e-10  8.9251581900772058e-11  5.7757803932223069e-10  2.5176757312001400e-10  3.1575313008051923e-11  3.1463779023181870e-10  3.7844028034685564e-10  1.4418743829907522e-10  5.3959412040745983e-11  1.7824592617311615e-10  7.0728972329208887e-11  1.7965443421922042e-10  2.3390154101983090e-10  4.5878141553105077e-11  6.5206413918103082e-11  4.2994837935671562e-10  5.6963250330154231e-11  8.8313484820622425e-11  1.8027746960645070e-10  1.7091636021794201e-10  2.5650647755214707e-10  2.9080935379293217e-10  1.8333226208623578e-10  1.9699615895562342e-10  6.4846413944259839e-11  2.5192376463404580e-10  2.6205718437746614e-10  2.0136178620815483e-10  2.3386827663869847e-10  1.2559426513723020e-10  4.6008541786472685e-11  1.0999403618261362e-10  9.5117189284466420e-11  2.5282731282035404e-10  6.9015623383303319e-11  9.9818010175056361e-11  7.8663489851216239e-11  9.4405733933998684e-11  3.8851889555032549e-10  2.1024206499766457e-10  2.5338250257730800e-11  6.5150973606953948e-10  2.5716318376536753e-10  3.1190867205322346e-11  2.7827585538092855e-10  4.1496895861293292e-10  7.1109347330111528e-11  9.6904429589243570e-11  1.5724406329699040e-10  6.3621800882370763e-11  2.7437901123371116e-10  8.3730015649367510e-11  1.4814620429320508e-10  6.6260554131524001e-11  3.0968937658826608e-10  2.4937145129922409e-10  2.3134227748593132e-10  6.4655981800035613e-10  1.2119976982421480e-09  1.4892341350879989e-10  1.6499902845137003e-10  1.0211702814520318e-10  4.5876819555356052e-10  2.5827923039864854e-11  2.5378558464424954e-11  2.7763354278490268e-10  9.1234905222069339e-11  6.1394667552084749e-11  5.0161583619110640e-10  5.7491794355782261e-11  5.9558752373520594e-10  1.1831487709006846e-10  7.6960552555012568e-11  8.2598493450490375e-11  3.4204610810106899e-10  1.7287171709747710e-10  4.6573767505672047e-10  1.3500664154583565e-10  6.1928679605300012e-10  4.4622598482196935e-10  1.0920255659966448e-10  5.1988836694969821e-11  1.3013693755195773e-10  2.5891827286353728e-10  1.9605641021359931e-10  6.0279174080704770e-10  9.3440870044874239e-11  1.1898256121858719e-10  6.8289755656059703e-11  6.5602278525105539e-10  8.5672687729588506e-11  2.0026740867121149e-09  1.4743425397388137e-10  1.2413344650864323e-10  1.9971493993019875e-11  2.8306969695953351e-10  1.5720830792010741e-09  5.6745955462405119e-11  9.5897093425647152e-10  7.8706524108470393e-11  2.3844926505988787e-11  2.3641593632953881e-11  1.2263994059367054e-10  5.5992036417833869e-10  4.4347613242685541e-10  1.6103815126298762e-10  1.1564261844318498e-10  1.6638046407889422e-10  1.8801490941643794e-10  5.8563038473146882e-11  7.8155140903061203e-11  2.0253560743381857e-11  5.9969273660352424e-11  2.9728782333124055e-10  9.2073470168401318e-11  1.0634683730002883e-10  8.2473151844241087e-11  9.6817649708281182e-11  5.3299791895098495e-11  9.6047666048514147e-11  4.5631388453217553e-10  5.7099538029443436e-11  1.6404150364171688e-10  1.7120176255549072e-10  4.6360910499315390e-10  1.9903762766098488e-10  2.8238957860267200e-10  1.4268315674021573e-10  1.4513618309118028e-10  1.5196377206603198e-10  2.1203664954212446e-11  2.9026889638232645e-10  6.8332857731846227e-10  2.5489669987208609e-11  2.5083425956369770e-10  8.9814758387730021e-11  1.5806290972387854e-10  1.1059947799869190e-09  1.3713159258337278e-10  1.6359327436437494e-10  2.3487450610661514e-10  2.8787554397851968e-10  1.0631944980149398e-10  2.0470169082228180e-10  4.1973610092705532e-10  2.2032888837816372e-10  2.3994886106305527e-10  1.1041665123580549e-10  1.1290662201719467e-10  1.1335474739835858e-10  7.1632570892121696e-11  2.0850951877373426e-10  8.8398720035326961e-10  7.8106559564487760e-11  1.0815563817988372e-10  7.7914620056504239e-11  9.7181074063386689e-11  1.6247230264812083e-10  3.7735519876081468e-10  8.0016702223435825e-11  8.5743973904100246e-11  8.9689623204002781e-10  7.4834534448013058e-10  2.9255579532132064e-10  1.9962080132910368e-10  7.7476412985566129e-11  8.1381622505259755e-11  3.3839109580595472e-10  5.8970180665955232e-11  8.4110853720246712e-11  5.0193548495467141e-11  9.3897401865224057e-11  4.1662548694171383e-10  9.0756522017975863e-11  1.9725779007703246e-10  1.6677760938520170e-10  9.0230217273766779e-10  6.2019974942243149e-11  2.0057351688113884e-10  1.1542480126066521e-10  1.1263275520951452e-10  7.4576572192837986e-10  7.5804948264433253e-11  8.5834956036335802e-11  1.1810347628283797e-10  1.1073841004362344e-09  4.1104395950714831e-11  7.7573726837224074e-11  2.7879105834973233e-10  2.5667418527210570e-10  3.5578965852747283e-10  1.8431910370675593e-10  2.0432043317479532e-10  4.0503099867978583e-10  2.9345975991331772e-11  1.0592475019131295e-10  1.2869486528997688e-10  3.7671208758597081e-11  2.8823914885108652e-10  4.3583410983458395e-11  3.3435141073424704e-10  1.3601567899888838e-10  1.1052171091703090e-10  1.9138706690750755e-10  5.0460650323917031e-10  7.3684658099220080e-11  2.6934915409916950e-11  1.4449145709843888e-10  8.2513250593645886e-11  5.9831859243493249e-11  7.6420212125451116e-11  1.7903070332476698e-10  4.8472548638949091e-11  2.6380711657994057e-10  2.5425989786677159e-10  1.2853242090111727e-10  1.2853413366176995e-10  1.3549383160254936e-11  7.1353167668434511e-11  1.4641276391742603e-10  1.6950707626122639e-10  4.9664057023526248e-10  3.6899461319658166e-11  8.2272199164830639e-11  3.3288752624005737e-11  2.3823483686003332e-10  1.2606714014491991e-10  1.8647655458221255e-10  7.5248558329023361e-11  8.8627880330423034e-11  1.2087212696088797e-10  2.0320119533643675e-10  2.2406524665229772e-10  2.6112651429329700e-10  4.3789242116811820e-10  2.1488143768246010e-10  2.0957171880354682e-10  1.4562395105212408e-10  7.9805793297427758e-11  1.7043709182797051e-10  1.6561595157983824e-10  6.2414974299467055e-10  1.3079476276134592e-10  6.2176222920374156e-11  4.0683412477273590e-10  1.8925618835988754e-10  2.0972250038619237e-10  1.2265150268260065e-10  3.2650583725485172e-11  4.4949918015287773e-11  9.8957300907408129e-11  6.8193151371761318e-10  2.9281921290495701e-10  1.8096737668200706e-10  1.3727685045349065e-10  3.3645067517881874e-10  6.7388973499553146e-11  1.0936364029376742e-10  3.5498016145685364e-10  1.3838658028354637e-09  9.9655375355362808e-11  2.8211451083284137e-10  6.1262227204308139e-10  1.2280751195203700e-09  1.9722176508764867e-10  1.5251475805225319e-09  4.1844463508761432e-10  2.2596825659382314e-10  1.1669941792013355e-10  4.1859571025523552e-11  6.6101275215084681e-11  1.2681027173500142e-10  1.5691843671929624e-10  6.3731123211910740e-11  9.8535402855794223e-11  1.0718083620693918e-10  1.2760157252781444e-10  1.9207544963407168e-10  4.9699051059065768e-10  3.1857008529646674e-10  1.6665470053443471e-10  9.6165668035211563e-11  6.1764219557189185e-11  5.9374125704949368e-11  7.1144427033461836e-11  1.8277734911420746e-10  2.2887380610753259e-10  1.0645061680914283e-10  1.0623625359241745e-10  2.3915154011840618e-10  1.3695484433367122e-10  7.0034424406223937e-11  5.9601052764614499e-11  1.0554301701024286e-10  3.4277267931641170e-11  1.8824102327245772e-10  3.3193157327046319e-11  1.6104470398351540e-10  1.7956682966134954e-10  1.5242027869079830e-10  4.0156558137050634e-10  7.9593990200737602e-11  8.3124066603132502e-11  1.4593061746167330e-10  3.1157522552571764e-10  1.4385575836067882e-10  2.6338250674914999e-10  1.1112185607671246e-10  1.3657312210603195e-10  1.5865078987298775e-10  2.8103378021163395e-10  1.2741488839243858e-10  3.3877876076245869e-11  1.1872052841083287e-10  1.1249281207324887e-10  1.4838420482790799e-10  2.5482154133897193e-10  1.7211247554559753e-10  3.5038197251038894e-11  1.2995412110322940e-10  2.3445400234776671e-10  2.8761763506828162e-11  3.3071587365777424e-10  1.6354191845169590e-10  3.8817525676947732e-10  1.1263072229622839e-10  2.3899891641815631e-10  3.2584140715334075e-10  7.5963386423224264e-11  1.0603264131215492e-10  2.1963100068700840e-10  7.3223292203390666e-11  4.8376087010575457e-10  1.5927710726419638e-10  9.8702809880790801e-11  1.0940151436014845e-10  2.1061838251029408e-10  5.4210072338273125e-10  4.7634400400419302e-10  1.7997034989035934e-10  1.7338757527597492e-10  2.0991993333922374e-10  4.0291693325700005e-10  4.5632084611247010e-11  2.2728577244131847e-10  8.2138377635531421e-11  1.2397953729454213e-09  1.1828205616444222e-10  4.6130975228803166e-11  5.4851436411258669e-10  3.3287327513145122e-10  2.4726689525295239e-10  2.1294185591950698e-10  6.4234325643236275e-11  1.5405715260027659e-10  3.3755336807542231e-11  4.3902082123121665e-10  8.2380788845930180e-11  1.3743190479345535e-10  1.2798071600319985e-10  6.6453518910392270e-11  3.4886147372113351e-10  4.3102712517150476e-11  1.1822850493702273e-10  2.4468452064336309e-10  1.7878494176186023e-10  7.1218240481096232e-10  9.3233581018828844e-11  5.7635236704575866e-10  1.4871334362113299e-10  3.5362409284778581e-10  5.4801699619779402e-10  2.4352002765818720e-10  1.5501379054036328e-10  2.7197790538140378e-10  4.8025767621388883e-10  3.4709680424751003e-10  7.5509874065678836e-11  4.9819032689409008e-11  1.6347135772141818e-10  3.5659721078681685e-10  1.8765026151040278e-10  1.2703946338042927e-10  1.7171537238225435e-10  8.1910833056774873e-11  7.1850941537782683e-11  1.9983583564993360e-10  5.8402569365913028e-11  2.0817232140681002e-10  9.0919758737589130e-11  4.8049544847483006e-10  5.0019513396300640e-10  8.2390463448740392e-11  4.1688846223380661e-11  3.9911757367609600e-10  6.4848080056461484e-10  2.5893842500428521e-10  9.8382860371792753e-10  2.8786248732090272e-10  3.1711347680602740e-10  2.7208755922883324e-10  2.6561496746804852e-10  9.8069961329653964e-11  3.1173550621075239e-11  1.9484551884956207e-10  1.0568861039570393e-10  2.1553359431470743e-10  7.5625311859306578e-11  1.2523360792439267e-10  2.0395767987905138e-09  1.7681357676478408e-10  8.1104110146884546e-11  8.3308545380438382e-11  3.9933006813508234e-10  2.4258553206447616e-10  1.8986026405264320e-10  2.0803423000366633e-10  4.4889284128369041e-11  7.5556907472539364e-10  2.4263752362177698e-10  5.3519856364436077e-10  2.5184168882909820e-10  2.4216370074537417e-10  3.1288147980836188e-10  9.4437661513856021e-11  3.2930453003182202e-11  3.5802186837537092e-11  3.6766053265346051e-10  3.5490344339687111e-11  1.1634905627792732e-10  1.0201727459206220e-09  7.5191071171349177e-11  3.5098563507464285e-10  2.6347093268188382e-10  6.2207206955997372e-11  6.0270016856396941e-11  1.7922083144491072e-10  2.4547885057246121e-10  4.8764041123563252e-11  1.1324953571653545e-10  1.6187465939030622e-10  7.5925950219758874e-11  1.7139599606235294e-10  2.1190804119416486e-09  3.8274908394203667e-10  3.1936307174698720e-10  1.0688153744068864e-10  1.0832152776508528e-10  1.8789918160988435e-10  8.0150132912734612e-11  1.3463986774727230e-10  4.9891729635995577e-10  8.7009326453972091e-11  2.4277110841054605e-10  2.1694659670734733e-10  1.3908092886945463e-10  5.1192959626965702e-11  7.7347398574056321e-11  5.5035526423748731e-11  1.4314642078152236e-09  1.0666446262973038e-10  2.2057577846409188e-11  5.7064703460126877e-10  3.0495581436743246e-11  6.2122551335962838e-10  1.1650779545263398e-11  5.4023992445574916e-07  1.7867673761296319e-10  2.4853247896238444e-10  1.0526652715615098e-10  2.8430364563379573e-11  8.5872349641221624e-11  2.7950454346841456e-11  2.0778727841227512e-10  3.7257072564349576e-10  2.7112364127046006e-10  3.2761783795297955e-10  1.3430673713919381e-10  9.3923137525473210e-11  6.2980469168086375e-11  3.6082108439057549e-10  5.0409146930475324e-10  1.0656969819988682e-10  1.0107462213735826e-10  1.4701195178021727e-10  7.6743063714849100e-11  4.5655921792202115e-11  5.4022854002172284e-11  3.1441578135898249e-11  8.8501878986027262e-12  1.7681389753331544e-11  9.7754651691577794e-11  2.1505756852350537e-12  1.0569507437679386e-11  1.8590542275362853e-10  3.4916015115979509e-09  2.2424554829363331e-10  4.2162171431765913e-11  2.2060389909508346e-10  9.3883338506522333e-11  1.1312438034506508e-10  4.4209853487303027e-11  1.6857499540146531e-11  8.6804649530971670e-11  7.2626935372239673e-10  7.9947394382479139e-11  1.8373646944053975e-10  3.2438805364378225e-10  4.8754944762411608e-10  9.6272046814540878e-11  1.0185388964906590e-10  5.8374101952026927e-11  7.6925754301417950e-11  1.1187894265616358e-10  5.7850182724650956e-11  6.3854688849754102e-10  5.9421490769694940e-11  2.7750345772592745e-10  8.8075757713411220e-11  1.2782410550925536e-10  3.1313878957198796e-10  4.1618187219060537e-11  6.2846551519709282e-11  2.8711465939663040e-10  1.1873680996257100e-11  1.1411892585570698e-10  8.8149676514839819e-11  7.6674399385291247e-11  5.6147590245821239e-10  1.6159653005490652e-09  3.1968348063893366e-10  2.8865748717413513e-10  9.0697908607584195e-11  6.9924636906040203e-11  2.5571569422035066e-10  1.1841131358725764e-10  9.9738632986481867e-11  1.0483197882906716e-10  2.0021892986106633e-10  7.4542279738442718e-11  5.2746036331975250e-11  7.0415654546016765e-11  3.9794736470932715e-11  8.6983231212907854e-11  1.9102873751245607e-10  1.6241508694279928e-10  1.1167923215510759e-10  2.8518726577652737e-10  4.7393005934759549e-11  1.3649161065202801e-10  5.2135947679663193e-10  6.6782644166011506e-11  1.1736666799620194e-10  1.4981059048307381e-09  5.8567777415045033e-11  3.3638238003879031e-10  5.1056094534237783e-10  1.5785340111430542e-10  1.2875885287665476e-10  1.2580023111347021e-10  8.9788164193620190e-11  2.4738318799405266e-10  2.8569604316177701e-10  1.7780579667837732e-10  4.6700118158520936e-10  4.2319531125638384e-10  1.2247503114099155e-10  2.1201784570532388e-10  6.7046404390357914e-11  8.5293602628580398e-11  6.2796948960999567e-11  2.4023595755424994e-10  4.0055533811195579e-10  3.0774447196060414e-10  3.2461030562428742e-10  8.6274792853028821e-11  2.2693692879980161e-10  4.7817713069846545e-10  1.7299644658822522e-10  4.8335328877815752e-10  1.8314387486786554e-10  1.3828933853493136e-10  1.1163685578475848e-10  5.1323387022828486e-11  5.4675336696162300e-11  3.3223038020315291e-10  6.3132025692491031e-11  6.4899220397453349e-11  1.3016069346618909e-10  3.2145299243274309e-10  3.2051495406778907e-10  1.5763182214551098e-10  1.1744458667038771e-10  5.8987163451308954e-10  6.2762355810251311e-10  1.5965622619025002e-09  2.6746140903873331e-10  1.9847859909146115e-10  4.4239640334346340e-10  4.5550981991957435e-10  1.1645363185204540e-09  2.9652810688309537e-10  2.4743459997653191e-10  3.2982656714504455e-11  1.2991076366370137e-10  3.4430425673649367e-10  5.4730660114554609e-10  2.1426236382581620e-10  6.6883318574700166e-10  3.0640278321184189e-10  2.1259707262875535e-11  4.8393442558813179e-10  3.3147884497713621e-10  3.8804967530374899e-11  3.3367661744257382e-10  4.1359051450542596e-10  5.4366972133614509e-10  1.4573542374264018e-10  6.7337870269535707e-10  1.9550494866053413e-10  4.7380827995947153e-11  1.2746264594456725e-10  1.3294567903714618e-10  3.1209268142206911e-10  7.8865700017294518e-11  2.6668972209434938e-10  1.9567333791796370e-10  8.0045577077933765e-12  8.5351851680154943e-11  5.8172613804430135e-11  9.0319496880864167e-11  1.2439311258628784e-10  6.3019798067418658e-10  4.1176021076675919e-10  3.0360599328788921e-10  1.1698879829099725e-10  1.3307937796289597e-10  8.9717349135040125e-10  5.3864057621821866e-10  1.3495595596630352e-10  1.4246906282750023e-10  9.3104940487494618e-11  4.8837595135133558e-10  1.3978350695826703e-10  1.7552106256629595e-10  9.5657439336635559e-11  7.0585827611389754e-11  6.3578961116878362e-11  1.5048672984517144e-10  9.7933090935310210e-11  1.3009604948520505e-10  4.3859660596571495e-10  7.6824627224271555e-11  5.9602259694048637e-10  1.2836939660132932e-10  2.2427547323090234e-10  2.8311160507228042e-10  5.4848726203461660e-10  1.1620236093239794e-10  4.1247410102787315e-11  6.2974933105000059e-11  1.4174214175596021e-10  1.5866306078535410e-10  5.1935115756679898e-10  8.4176033937577990e-11  1.6205556054126527e-10  2.5187404488834665e-10  1.3739810186491196e-10  2.3663326068688384e-10  3.3315032295999092e-10  3.1182622384291979e-10  1.0587457524668361e-10  1.7543000269803536e-10  1.4933069309781689e-10  2.2851571702520164e-10  4.7978864283634452e-10  3.7410359002112361e-10  2.0197727607571858e-10  2.0681303502788109e-10  1.2553847278776218e-10  1.7200465054679465e-10  2.9993350809601540e-10  3.8143872969456610e-10  3.6170020069599779e-10  1.6579264833007133e-10  2.1991558210219824e-10  1.9419566534939663e-10  1.5463904092564567e-10  3.9947556120089132e-10  3.1520332314188189e-11  1.0598962806948345e-10  1.2704450103016429e-10  1.1816462804680541e-07  4.0764846102559368e-10  1.7773187803267831e-10  6.1132341405543972e-11  2.5714907806487250e-10  1.3863214920628174e-10  6.4628491156850675e-11  1.0592985631878633e-10  2.0275136633159155e-10  2.0663858393364324e-10  1.9496210943341176e-10  1.8998210559729295e-10  3.0911945435011761e-10  6.5278796816239581e-11  8.0306827347294328e-11  1.9243891895158433e-10  1.2243626207341982e-10  3.5480240162153514e-11  4.0372529538810135e-10  6.4763931252416185e-11  6.2067327251182712e-11  1.9404624193121637e-10  9.9187257578838680e-11  2.3773231365441727e-10  2.9330713856247737e-10  3.8277239784711278e-11  7.9321537968607810e-11  1.8793337586747959e-10  9.6658923248022853e-11  3.2489497156129658e-11  9.0633583510642201e-11  5.7990092690603219e-11  7.8363327381916516e-11  2.2479680694848305e-10  4.7454072585260999e-11  6.6552396508461996e-11  9.4789173875405020e-11  9.3816127625046195e-11  9.4085408438172324e-11  2.6152193154106897e-10  8.7585403290578798e-11  1.8352860404322319e-10  2.0237446777791911e-10  9.9147930583282747e-11  1.6065081834325584e-10  3.1519729780672107e-10  1.2451032086199250e-10  6.1449501008855568e-10  1.7189627250518408e-10  1.4974364582094488e-10  1.3879381240468281e-10  2.2921061434923256e-10  4.4084588752246337e-11  3.9988853147210541e-11  7.7223751794637576e-11  4.3616935082200924e-10  1.9952352577539873e-10  6.4037664149019290e-10  4.4262585735176970e-10  1.2153743730340526e-10  5.4781791681007735e-10  3.6514198439109187e-10  1.8971083958485630e-10  7.0991063670194636e-11  9.3724008480021906e-11  1.7414856373620868e-10  1.8788064011453632e-10  4.1306631605187797e-11  4.8508070421968877e-10  2.7756184783200407e-10  3.1416140953319526e-10  5.3302533813608351e-11  3.5334366348194328e-10  2.6661190122377159e-10  5.7738109371239902e-10  7.3812281966386702e-11  6.1618774996257072e-11  2.3956499637682126e-10  7.2916371898380996e-11  4.2600626079614124e-11  1.4814871959319471e-10  2.4221235606485064e-11  6