<?xml version="1.0"?>
<VTKFile type="UnstructuredGrid"  version="0.1"  >
<UnstructuredGrid>
<Piece  NumberOfPoints="4852" NumberOfCells="9430">
<Points>
<DataArray  type="Float64"  NumberOfComponents="3"  format="ascii">-1 0 0  -1 -1 0  0 -1 0  0 0 0  1 0 0  1 1 0  -1 1 0  0 1 0  -0.5 1 0  -1 0.5 0  -1 -0.5 0  -0.5 -1 0  0 -0.1608775713298009 0  1 0.5 0  0.5 1 0  0.1967448868031411 0 0  -0.4841410439790631 -0.2431532288464003 0  -0.4572779023688337 0.3047942103499802 0  0.2430726956421454 0.4858429987293289 0  -0.2463842104209183 0.6591455759048678 0  -0.6172931331031474 -0.6184571170022926 0  0.5974817852606633 0.3482777886623505 0  -0.1050120563657648 0.3138575523526111 0  0 -0.5061325913258391 0  -0.25 -0.9999999999999999 0  -0.6439666129709483 0.6447383264143666 0  0.7157966569108685 0.7153217835080349 0  -0.2635773254933072 -0.6403257860324967 0  -0.6587849506125705 0.04111424228068434 0  -1 0.25 0  -0.3329280226805681 0.02351322247356068 0  -0.7373825402083585 0.3782127097239958 0  -1 -0.25 0  0.04115679504587531 0.7018310242099044 0  0.3127134599770574 0.1808977965334558 0  -0.1965790646107581 -0.3423618812645555 0  0.4291707593467906 0.7166465456559873 0  1 0.25 0  0.5355652144809806 0 0  -0.75 -0.9999999999999999 0  -1 -0.75 0  -0.7450294694592932 -0.3726167479351571 0  0.25 1 0  -1 0.75 0  0.02757118475249542 0 0  -0.25 1 0  -0.75 1 0  1 0.75 0  0.75 1 0  0 -0.02898318711980711 0  0.1119448319049507 0.2386973855771019 0  -0.1285141713748273 -0.08600407601051013 0  -0.7889521652034507 -0.1484744515026064 0  -0.4561623052615436 -0.4511572861313979 0  -0.4372424551691892 0.5345305589302493 0  -0.1241259271131204 0.8293258664377293 0  -0.4512003605621992 0.7691824744224715 0  -0.08217343438798543 0.530676227917095 0  -0.1433235340964783 0.1136480403575676 0  0.4527479888877877 0.4978575272955695 0  -0.7786515421532724 -0.7787759226677998 0  0.5142991001395831 0.06511160942931697 0  0.7589006495433265 0.240832722086719 0  -0.8170722596361619 -0.5835385754375917 0  -0.4840262893555632 -0.7788758698036363 0  0.7785542170915516 0.5085691976117136 0  -0.8421321659087815 0.1240220313311881 0  0.2325322310448471 0.7866547030680938 0  -0.2878043005124677 0.3974831159377418 0  -0.8432080391533302 0.6229015512732392 0  -0.7651243820752867 0.8027371038656342 0  -0.04852970810230457 -0.4696816423771517 0  0.6235888090056739 0.8694983206313002 0  0.8458927336734134 0.8455883571798244 0  -0.1335302378079448 -0.7495872223358111 0  -0.6282481681807442 0.2230207414606577 0  -0.3146649921166589 0.1871598655500982 0  -0.4952013785671135 0.1078901572943465 0  -0.5101162145065781 -0.06837504866483593 0  -0.5980178969835348 0.4778962352969759 0  0.375 1 0  1 0.125 0  -0.007886676607372189 0.1310098567115733 0  0.08385513619196713 0.5320486906929461 0  -0.2759058230108607 -0.2158126510419699 0  -0.2932149439376301 0.8315330741307734 0  -0.625 0.9999999999999999 0  0.6162396404212492 0.5662638942278064 0  -0.6377147433208395 -0.8694496253868744 0  -0.3219043081454538 -0.8366338395711811 0  -0.4423827519243825 -0.6095105605277635 0  0.8656605656826309 0.6532976884184233 0  -0.6037558159152024 0.8339510522100456 0  0.125 1 0  -0.06984058013934079 -0.1777130462195802 0  -0.6300291409845246 -0.1742406850860063 0  -0.875 -1 0  0.07733039217008568 0.06060079954388021 0  1 0.375 0  -0.875 1 0  0.06206183022149861 0.8569060768318734 0  -0.292472920066104 -0.4978452092128313 0  -0.1038766372307523 0.6806061517641718 0  0.2918867082845683 0.6413529427566496 0  -0.8473868051429536 0.2741698709444699 0  -0.6218369228962297 -0.4658411337767647 0  0.001449039270872723 0.4052943785367938 0  0.5724773955246403 0.7319034276175175 0  0.4361152399888769 0.8652693518121259 0  -0.8515462379127773 0.4756655838956804 0  -0.0519062959444508 -0.3152199213099414 0  -0.793972295600843 -0.00807360140169381 0  0.1720406032653196 0.04549018371657228 0  -0.6141945952639569 -0.3114889105840607 0  0.7627354570322246 0.08753572959467665 0  -0.8645651542956353 -0.4516201151554607 0  0.4598899741330728 0.2066873134013057 0  -0.855400921778993 -0.2779602278522988 0  0.3427926240077208 0.3729177570541246 0  -1 -0.875 0  -1 0.875 0  0.2676412836903889 0.02438957378294858 0  -0.3750096201308732 -0.3311418339035048 0  -1 0.375 0  -0.2858257956504069 -0.09479368553348673 0  -0.7261379592169469 0.5347735311101542 0  0 -0.07736776745332727 0  0.1304450470542787 0.3959423360961192 0  -0.375 1 0  -0.3021308628539325 0.5354108602262334 0  -0.1974300626896034 0.2338302228367118 0  0.1663635111386606 0.6717172535578676 0  0.2220807002595183 0.305020474660158 0  -0.5863178160728499 0.3464435580122099 0  -0.09053045358773079 0.005117122145615852 0  0.8804647560239658 0.4310764772911557 0  -1 -0.125 0  0.3115002845144647 0.887925016084654 0  -0.1687125104426832 0.4366106047049657 0  -0.125 -1 0  0 -0.7575037395175259 0  0.07821397079968176 0 0  -1 -0.375 0  -0.375 -1 0  -0.625 -1 0  0.7474787146812756 0 0  0.625 1 0  0 -0.2918843213980812 0  -1 0.625 0  -1 0.125 0  -1 -0.625 0  0.3284075310660084 0 0  0.004929205892015135 0 0  -0.125 1 0  0 -0.006571003003944568 0  1 0.625 0  1 0.875 0  0.875 1 0  -0.6538048934600605 -0.7422790057474677 0  0.003267092379006254 0.2681051824605102 0  0.4785137905129604 0.3673053799273667 0  0.7324953468566303 0.3744366283102881 0  -0.8907931632189173 -0.6860825560316168 0  -0.8906820699900759 0.8113897812358136 0  0.5056305277704694 0.6186162884784815 0  -0.4358535457208233 0.8923350941573536 0  -0.8113550724194508 -0.8962325354164643 0  -0.8963110644548808 -0.8112435848420192 0  0.1747438086003995 0.8910349878734048 0  -0.7484197578140133 0.2010278617094259 0  -0.693928911192078 -0.07395939754592798 0  -0.8996423985684772 -0.0621794958814198 0  -0.3783266772320715 0.6542006070091836 0  -0.5109014360952413 0.6504547184054016 0  -0.4861462241306532 0.4240130074436663 0  -0.7264843635557973 -0.2525621275976886 0  -0.4130782698211249 -0.1430663785365999 0  -0.7293852959371376 -0.6567754233026556 0  0.8896468734780731 0.3015778794186679 0  -0.02814563366998888 -0.075425733444749 0  -0.09213979804122774 0.1929329193297828 0  -0.1920141732343652 0.5531499472585172 0  -0.2124333065371597 0.03562277298982268 0  0.6033796625698996 0.03285750583890377 0  0.6676747288893889 0.4653343631856916 0  0.7314040322942121 0.8305730490973203 0  -0.8227799209267603 0.8998098953238491 0  -0.7417594672467083 -0.4902551607653231 0  -0.1701888849823803 -0.5213693373156195 0  0.8959651324959153 0.545412419529138 0  0.1586960162952252 0.145497053336183 0  -0.7005262896061741 0.895641477033036 0  0.5535722618653589 0.4668383594866738 0  -0.05028937187525247 0.06236739618466283 0  -0.5383630336753921 -0.5354726812291144 0  -0.504356615972904 -0.3529136667124698 0  0.3959445894864607 0.6080633519597713 0  -0.2964018912247462 0.2907724292239232 0  0.7612674983808126 0.6171575793247208 0  0.3478642020067289 0.4919511808966656 0  -0.4421657657172173 -0.8876610677158445 0  0.1276749805390796 0.7723570721309854 0  -0.3899545851891281 -0.6996630992913038 0  -0.5516409274315801 -0.6996117782613914 0  0.3414345980424154 0.7811945568622619 0  -0.9115230061891429 -0.1868179029053519 0  -0.2082827710074773 0.897455367695044 0  0.5659624854826357 0.2146491125879791 0  0.3516961615971974 0.01428781198840747 0  -0.1861636425503851 0.7447495450189979 0  -0.02358633788825821 0.789921129837625 0  -0.06228967926624777 0.9145305175100182 0  0.0003677010771554053 0.5995144297293371 0  -0.5152612257249336 0.2139464002138912 0  0.6399869281916843 0.1553533704023378 0  -0.5494615684050289 0.746187007251471 0  -0.8893543780561824 0.3746885153000641 0  -0.1362414424530918 -0.627397982293839 0  -0.03724845190688338 -0.6167050014213743 0  -0.3206330082454502 -0.4084562324851243 0  0.8923879817167442 0.1719433389917534 0  -0.2364703026209513 -0.7342052730175372 0  -0.9181188572404722 -0.5614410261181612 0  -0.3837374077381279 0.4418333383601478 0  -0.7433392076807557 0.6332310264611108 0  -0.9214151889957319 0.5612364049899137 0  -0.9216108659116321 0.6864608330571658 0  -0.7411621466795985 0.1012806256035004 0  -0.9027498721748792 0.04031556008783779 0  -0.9212714159378985 0.1868336298933465 0  -0.2019824961744256 0.3376253110931892 0  0.2109331537765997 0.5824193457506556 0  -0.02514272944939959 -0.1895213751134059 0  -0.8034789429934505 0.7125476729084956 0  -0.669980038556506 0.7500808907925954 0  -0.3845618211564902 0.1139339626923912 0  -0.3164143308984527 0.7324973420734708 0  -0.04270898108722833 -0.03155991897069003 0  -0.5345475181237938 0.9053673270967768 0  -0.57243154874036 0.5734429173468379 0  -0.4157652613299886 0.2057497412646128 0  0.01667430860043159 0.04390997418766282 0  0.8167100608256017 0.7446998067363687 0  -0.5387559853488754 -0.8677642031513916 0  0.3929651536325575 0.2846600968901519 0  -0.1686509432116485 -0.8906245993747601 0  -0.07172952459043683 -0.8489627779622825 0  0.495141684589072 0.7886067550253828 0  -0.1580202817964919 -0.4144261459084985 0  -0.4051110491939641 -0.04741593861388808 0  -0.9084978310662656 -0.9084997854533228 0  -0.6730098151021127 0.3066644337597877 0  -0.6008644812010357 0.1250615013502221 0  0.5296732359607073 0.8783736551762455 0  -0.01433748528866842 -0.3110745829922361 0  -0.345442524436656 0.9098406065288591 0  -0.2418575925523473 0.1209090815502909 0  -0.60354579637955 -0.03687040602860999 0  -0.5286029314639051 0.02183021929730014 0  -0.4320526333359357 0.03757392886643311 0  -0.5307814116390651 -0.160453902906722 0  0.9083152159472998 0.7358593905676621 0  0.8119640032389922 0.9316489777162705 0  0.6728286308939224 0.2728773358612434 0  -0.6696084116265022 -0.5449905642195946 0  0.6516827124230006 0.7811325985727078 0  0.7027255655669594 0.9190763586230942 0  -0.08102366649211162 0.4351562277234139 0  -0.9155882010522575 0.9156832745977274 0  -0.2101805807522054 -0.1466009863949607 0  -0.2620519632669378 -0.2954150978760785 0  -0.3858973312481694 -0.2238204540245558 0  0.06997951935101707 0.3252447294527796 0  0.9133690492977814 0.91321335
[...]
<PointData  Scalars="w"> 
<DataArray  type="Float64"  Name="w"  format="ascii">3.1065540974277372e-11  7.5034172700287051e-12  4.3927611009281049e-10  2.3232026163019234e-08  5.8538432852089255e-10  1.3608369348245048e-12  7.3190144996356868e-12  3.7782580377127313e-11  1.2849838139210025e-11  9.6144241412631513e-12  3.1330155484842341e-11  2.8608478263439240e-11  1.1161840222938691e-03  3.3593755319854477e-11  6.7030332730222433e-12  6.0328921811026327e-03  8.4301992562639640e-11  5.6160092490716502e-11  8.8652243597427664e-11  1.1447830250197594e-10  1.8553585490885441e-11  8.5638717015087313e-11  1.2156470799012064e-09  6.2409807247199405e-07  1.4771479465539196e-10  3.3688907976845798e-11  3.5138611041109042e-11  9.9747527304267201e-11  3.5092598032097877e-11  1.0738498751962107e-11  9.7683127489857362e-10  2.9648477907401146e-11  6.8054355247229706e-11  5.6398484668362463e-11  2.4351892030243476e-09  3.9487339297969426e-10  2.7299036948391745e-11  1.1558870262996119e-10  1.7472353191752371e-07  1.0941903851751935e-11  1.0342615792878608e-11  3.6855570043674430e-11  2.8436287878202104e-11  7.6092597801817066e-12  1.7549072406058803e-06  3.4035338198178965e-11  1.2528364339818376e-11  1.9688870740775865e-11  2.6943436599823454e-12  1.6137742770686179e-05  1.4422589533469384e-09  1.3926808259005706e-09  3.0273001737794936e-11  1.4809069946326322e-10  9.7371692959404364e-11  6.1278386972562768e-11  1.1609861907860106e-10  7.5739048568615024e-11  2.7401364998922371e-09  1.1879887006524770e-10  8.0449958397997343e-12  6.6665448962246517e-10  1.2812969374507965e-10  2.8179968148176609e-11  1.6452519013131036e-11  5.1487112359610899e-11  1.9055296313299745e-11  8.2755662257969260e-11  2.6407586003749873e-10  1.4511257869055124e-11  3.0544078485400609e-11  2.0479056465144988e-09  1.6329836794507608e-11  3.9696130867060203e-11  1.0424279303209451e-10  1.0673998045766681e-10  4.5173472006842059e-10  1.4224902578984028e-10  1.0613830918642951e-10  8.0233227818175316e-11  3.0681066225394089e-11  1.0777901191987095e-10  2.2034250296835998e-09  1.2997231182683489e-10  4.4338122745773579e-10  5.0751244816457063e-11  1.3496285707168119e-11  3.9113334745022391e-11  2.1834985874253005e-11  7.1613316154597174e-11  2.1499981939209456e-11  2.7593440378153382e-11  2.7734443112661211e-11  2.6607835512054726e-11  5.1310825891600690e-09  7.1279222055518800e-11  1.2103476619931887e-11  6.3730505465271085e-09  7.4340604597287809e-11  1.3460098272058273e-11  7.8817384344799880e-11  4.3031737084288855e-10  7.3851205576702245e-11  3.4640653496605582e-11  4.6650409967959042e-11  1.7586859024150220e-11  5.1415270629484907e-10  2.0191149008456798e-11  4.0629099285185376e-11  2.1087541930921874e-11  4.2365194002706038e-09  8.5745311387649136e-11  4.1778371039583045e-09  2.3176830977049283e-10  3.0275451322764854e-09  2.3469925096800051e-11  8.8425666937962277e-10  2.7960238722239260e-11  3.7832181840510787e-10  1.3525924240031585e-11  1.3101983610326101e-11  6.2610795351141341e-09  9.7654438135901596e-11  1.9179600671163984e-11  1.5424270351790570e-09  1.6850615583095894e-11  1.4117103043801865e-05  1.7848145125668539e-10  3.0579846122634096e-11  5.0998127345410147e-11  7.8062334684442836e-10  3.7583672567114312e-11  6.9603263362393229e-10  4.6286589848767705e-11  4.9215756235059233e-09  6.1024926324909203e-11  2.7406957450561835e-11  1.7105221665550297e-11  2.2902583580609828e-10  1.4461302295284923e-10  4.0562923834139668e-10  2.5598106730775308e-04  2.0118150776714907e-11  2.2458191352756234e-11  1.0328609404094646e-11  4.1880199155537921e-10  2.2397812084210255e-11  6.0713700655243381e-06  5.1805169012770922e-11  3.7758159811745569e-11  8.4999231914915094e-12  7.5320737976265469e-06  3.0077253796208945e-06  1.9678034824957041e-11  3.2078964854007331e-06  1.9401997981380683e-11  5.2456119036371541e-12  9.9572177176567681e-12  3.7190880934050067e-11  1.8351598098685886e-09  5.5702077847909937e-10  7.4458991774343636e-11  1.9997510359764296e-11  5.2577445616040583e-11  9.2041462448792751e-11  1.9843703348972228e-11  1.7277308454083373e-11  6.2746742740300944e-12  1.1407940538303895e-11  9.0896025761358998e-11  4.0268375701105478e-11  2.9934824540773481e-11  5.1140279387356722e-11  3.2228713680120076e-11  3.3456559804418293e-11  3.0158331003054062e-11  3.5686932255260534e-10  1.9124797416790524e-11  7.4437604128371339e-11  1.6390921445202048e-09  2.2989796126568392e-09  1.3682981308899879e-10  1.2747307956557763e-09  6.0622209964873338e-11  5.5868236875267077e-11  3.7576738175304754e-11  1.3110111136383446e-11  8.0440482372057079e-11  1.1593918087443873e-09  5.7719906724493857e-12  1.0911643289934046e-09  2.9049555462741864e-11  6.9907161498062317e-11  9.4257578275110859e-09  4.8850094637862720e-11  1.4651928783124115e-10  1.1089522501314845e-10  3.3356445377104714e-10  3.1609232151347101e-11  1.2060397057295842e-10  7.0893003551153061e-11  1.1278048339276975e-10  6.8216447478435756e-11  3.1411396834941644e-11  5.5078647418357231e-11  2.6143239917413275e-11  3.6567187244197088e-11  3.1644479988363324e-10  1.8891176893612987e-06  3.0009595836027555e-11  3.5333682699300902e-11  6.1741095523350753e-11  7.4695005273857480e-11  1.6504841255070708e-10  3.6061083195636480e-10  5.8076801493889901e-11  1.9192607386821533e-11  8.7238074634440274e-10  2.5893943539337133e-10  4.1114103776414142e-10  1.5928756499608553e-10  9.0156614815193239e-11  1.4008401595337366e-11  1.9645204418832025e-10  1.7486883902645117e-11  2.3833491041356600e-11  2.2567436800614672e-11  4.3992855166878792e-11  7.7951811275670675e-11  3.7448474105650140e-11  3.5270374766491058e-10  9.0309623983641042e-11  5.7689456298969511e-08  2.4455778254452309e-11  5.8411532267211922e-11  1.5798801483096348e-10  3.5921793005673733e-11  1.1921990989753816e-08  2.5243494240991946e-11  3.6710909769108795e-11  1.8691139911463326e-10  1.0599268611334582e-08  1.2512968850835039e-11  1.8196128224119062e-11  6.9371480108831415e-10  1.4255284443316874e-10  2.1515249899163012e-10  5.2381542260880825e-11  4.9676941813422416e-10  3.9267714308058310e-10  1.1592368200317969e-11  5.6132834079727712e-11  9.0170958778806477e-11  1.2916344767905319e-11  2.6411366942108429e-06  1.0825696290608757e-11  9.3545452884058977e-10  9.6453033937327867e-11  7.1291262828305266e-11  2.1016090723837214e-10  2.7947406542311801e-10  3.8155940605088650e-11  9.4828812058018852e-12  7.7148343058043128e-11  2.8517395277979206e-11  1.7317898293183421e-11  1.1761420943184112e-11  1.8219403364086357e-10  1.5916192490358571e-11  1.0735937308502429e-09  4.7226148263569166e-10  1.9492576473435772e-10  3.6111316930026762e-10  4.1448508194409150e-12  5.0870989457190722e-11  8.5102024840226529e-10  4.9727940911396245e-11  2.5603736351758186e-09  1.0937902235573408e-11  2.4957659244752464e-11  1.3189577840852835e-11  1.1096971502343516e-09  6.4022719478660251e-11  6.9218016224914544e-11  3.0011524698429597e-11  1.9008545528056779e-11  5.0951583687562017e-11  7.6928296379905739e-11  1.7017559026390960e-10  1.4317607085825883e-10  1.4571470687655246e-09  2.3619390701707802e-10  4.3163287895863963e-10  3.5279075251917360e-11  4.3396264549711764e-11  3.0476874984491785e-11  7.7980855434947742e-11  2.5161599549333286e-06  3.3633208275209079e-11  1.7374114180642834e-11  8.0037874390453618e-07  1.2701658920439768e-09  4.3931344553483464e-11  1.8481624959048514e-10  1.3861669938807024e-11  2.8807627757683643e-11  2.3054762748677560e-11  1.2447475177188699e-09  8.6464777655389624e-08  1.3838994868026907e-10  6.9453880054644734e-11  1.5625019127483414e-10  2.2512049468822450e-11  5.2568756768095061e-11  7.7980311329580397e-05  1.0352776179363860e-08  2.2290303012792550e-11  4.1477004686944126e-10  8.5638079864232810e-06  3.4765769844696831e-05  9.6066183126254969e-08  1.9623706172458839e-08  1.4125241029370957e-09  1.5587244150165493e-10  3.6938107268166746e-10  1.1685231639347735e-11  1.9762384330751326e-11  7.1515818569470094e-11  2.9963219856230985e-11  1.6835445807128369e-11  1.3702715794796669e-10  5.3717468454414767e-11  2.5868813037149660e-11  1.6010598382131521e-09  3.7472739591060501e-09  1.7778667042097529e-09  9.5272356351836764e-11  3.0656990038240839e-11  2.3963812458056419e-11  2.8220675643534476e-11  2.6553398813779080e-11  9.5267155361130114e-11  6.1334689398167571e-11  2.2433511515497308e-11  2.0459563169278609e-11  6.8465633685255060e-11  4.2853468696008209e-11  2.0875628564894891e-11  1.9738877160786956e-11  1.3967996051650836e-10  1.1052569522067127e-11  5.6999206223830011e-11  1.4012067731402579e-11  1.3384095724436131e-10  2.1013398210847392e-10  1.2285283882415074e-10  7.2093651331264989e-11  4.6884740238085741e-11  2.4883190685019338e-11  4.0972828894179663e-11  6.7341879832280881e-11  9.5652438944228362e-11  9.4338937630196062e-11  4.6820436359719690e-11  4.4320907926415605e-11  3.6288356089889329e-11  1.6634422388121790e-10  1.4542232066633777e-10  1.3611381721781871e-11  4.8782682877266834e-11  5.7143283061103836e-11  4.9397111431834897e-11  4.0541182723748928e-11  6.1534911383687486e-11  1.0206304115731977e-11  6.4606817999145686e-11  1.9336894630150464e-10  4.9477202835211700e-12  2.2807042151675914e-10  2.9603446119117449e-10  3.7096511011553185e-09  7.3638245584052862e-11  5.0280142518674075e-11  1.6656855208638233e-10  2.5743958621364509e-11  3.9337367538196621e-11  9.4631898348344985e-11  1.3327315188773371e-11  9.6565114002162393e-10  2.8079800587152887e-10  3.5448434924306201e-11  6.5301515813252958e-11  4.9284976624208430e-11  1.5602229504949809e-09  5.0376274485667935e-09  3.0558031584794246e-11  7.3140308387075719e-11  4.1903247947201934e-11  1.3498118758436932e-10  1.6242539716515975e-11  4.8269075660322238e-11  1.8169107272284408e-11  2.6012672863234929e-04  3.3865901729748224e-11  1.5844564010505315e-11  3.1463509777154866e-09  5.0122294554146565e-10  1.0310242064561107e-10  9.6584710769682457e-11  2.4410699095829380e-11  6.5297548241250421e-11  1.2934416437362773e-11  2.1589407307838858e-10  2.5170732950383983e-11  2.4374285386926686e-11  7.9367817123612752e-11  1.8413107678219373e-11  1.9214628930763638e-10  1.2090755431155304e-11  2.4264165969331128e-11  3.1894567300697675e-10  1.5442931428639620e-10  2.1335313441474182e-09  3.1028633831442914e-11  1.1012305109159385e-09  3.4088243518629554e-11  2.5000330703535795e-09  8.2867322898222447e-09  3.1404986353858060e-10  1.7187142796402366e-10  1.1531427473143922e-05  1.9157053617391594e-09  1.9633819886964651e-10  1.8099336255575085e-11  1.8463312843748726e-11  3.8143434931545860e-10  1.7584827820479159e-09  5.8105976335610359e-11  2.2061847453890875e-11  1.8301176419548838e-11  1.6037131490546287e-11  2.4934201593424722e-11  1.4937648354648961e-10  2.5203557378758056e-11  1.2964557512262508e-10  7.3425296290435622e-11  1.6098918376780757e-09  1.4154280612019228e-10  4.7348492580108418e-11  2.1164632523086611e-11  3.1160580910493063e-10  1.6013206133631391e-05  2.5240613087796029e-10  1.4039970351292205e-08  6.6142686390709501e-10  8.4922325545678941e-10  4.8904622593590704e-06  4.6689094303454245e-10  5.6358433603619407e-11  1.0551997382853054e-11  1.2317739775498532e-10  2.5716004926511310e-11  5.7859944724793470e-11  6.0828539911545902e-11  4.2997456856308671e-11  2.5121486744366210e-07  8.5595255791899241e-11  3.5829872992144846e-11  1.8744513641264441e-11  9.1376579525091306e-10  3.3548417067503659e-10  2.7325733844881465e-10  2.0057687118729481e-10  2.2120602943374236e-11  2.7955823962234998e-09  2.9676340776164607e-10  4.9492481404019641e-10  1.5851547773175921e-10  5.4701260783632325e-11  7.9764137339623526e-11  6.4514118597524919e-11  2.1326950771831763e-11  1.9558478220035628e-11  4.2652609253365191e-09  1.2846331257280474e-11  2.5202594212931756e-11  4.6808227612052661e-09  3.0681892711501114e-11  4.4834702197209915e-11  5.9220012105015552e-11  3.2935377251545338e-11  1.3354808595697169e-11  5.0598103596899112e-10  6.3376006328999513e-10  1.1993111346519311e-11  8.9373189857179826e-11  4.3386534769898362e-11  3.1614078693727722e-11  8.8715839429343793e-11  6.1991548332516664e-05  2.2779288741539644e-10  1.7296110524056124e-10  1.6936573909118775e-10  3.5538759159783301e-11  3.0419338269912080e-11  1.9806284010893911e-11  6.4539704564736187e-11  2.6811581002799226e-10  5.0619611354848402e-11  5.9201731811850433e-11  6.8955727371231042e-11  3.6972314476648416e-10  9.9001833482372767e-12  9.4827763792160443e-12  6.0292275082877333e-12  5.3224803547312956e-10  4.4689279444895222e-11  1.9199040702841796e-11  3.7131769886365146e-09  1.0287536221886135e-11  4.9614583750537316e-10  7.8588335681902457e-12  2.6048389539193782e-07  5.6930883869619495e-05  7.9790097973666157e-11  2.9199433526738781e-11  1.5780632828629270e-11  2.3561299702840930e-11  1.1160017953197650e-11  3.7843354793553581e-11  2.7737375002632740e-10  9.1954962126808725e-11  2.6866009810416334e-09  6.8186326541765559e-11  2.5614603259266554e-11  2.3523284438456699e-11  4.2201548341289287e-06  1.3279194920221639e-10  2.3397281879915989e-11  2.4383297748318784e-11  4.2339129772093086e-11  3.2368001617476811e-11  1.3562669100915633e-11  1.5041056254650323e-11  1.4016024672853065e-11  7.1251637126136162e-12  1.0294831231649734e-11  2.5383028835659993e-11  1.1072512345667326e-12  5.0454697462907842e-12  8.7553045643452977e-07  3.7218042035273118e-03  3.4002027268561058e-11  5.0371933671396902e-12  7.6591914186937517e-11  4.8437492173868495e-11  3.6148144783281324e-11  1.4344457920948876e-11  6.5041710240129343e-12  2.8740845119980996e-11  8.8875440519038961e-09  2.5682881587999297e-11  1.8331533557907934e-10  1.6806130516149335e-10  5.2729002914586392e-10  8.0323771849472018e-11  3.8170061384516154e-11  2.3412634127760451e-11  6.8721520361440247e-11  3.9484826923114263e-11  1.9894841469637045e-11  3.7578128455146013e-10  2.2131570870351466e-11  7.8218837452598153e-10  2.3485379889336918e-11  4.5307332973991582e-11  8.2240624196432509e-11  3.7255290472542898e-11  1.3583317755310468e-11  4.5164539769228932e-11  4.2337712230221024e-12  4.4588225202487850e-11  4.7473783165506276e-11  5.3202831885698407e-11  1.0877024323288053e-07  1.5931519580228646e-04  3.1514158465443386e-10  3.4845459756675625e-10  4.5473889428841741e-11  1.9600001333163787e-11  1.2097474342859523e-10  3.8109129991716038e-11  1.6466761762815702e-11  2.4126650827634803e-11  6.8783979105965065e-11  3.0018188213838943e-11  1.3782773711651600e-11  2.1784078312987065e-11  1.4829081128391267e-11  3.4718076011530030e-11  3.1086171401933648e-10  1.5638560429901084e-10  8.6287991798752784e-11  1.9534947796009898e-10  1.4648791632700275e-11  4.8721043007662124e-11  7.0137716937755436e-06  1.9897190213964861e-11  3.6001125624198053e-11  1.4815701482092476e-09  3.2409581210834042e-11  4.9152821055120787e-10  2.8126786962159004e-09  2.8171909048746282e-10  3.8699315931757249e-11  1.5766414265447316e-10  2.7007044717463010e-11  2.3541424088235202e-08  5.7120900102926438e-10  1.3056665730793649e-10  1.0085325277768431e-05  1.4905753631122080e-09  4.7527272764055945e-11  4.9050404491235296e-11  1.7698146948426262e-11  3.2275318814327844e-11  4.3696595297283769e-11  9.0616292409040772e-11  2.2956336992732554e-10  3.2462880114259800e-10  2.9498487658112074e-10  3.4668655905222584e-11  1.2799113398562523e-09  2.3122354433728168e-09  4.5556939886482360e-11  1.3929990963983200e-10  5.8517531916552138e-11  4.2813225093520374e-11  3.5142546542422902e-11  2.2325359367203938e-11  1.3253821343311091e-11  1.8973779531086317e-10  2.8350644515169373e-11  4.3523887807203306e-11  5.0508996834259641e-11  2.8483533662123861e-10  1.8702042776926790e-10  7.8227852824021027e-11  4.6726939756463391e-11  3.4739334467835988e-09  1.6535548634686300e-09  1.6255381775351201e-08  2.8656331170803680e-09  4.7872995914053342e-09  1.0872990283207530e-09  1.5314005730228026e-10  1.0298635877574295e-08  8.1351980219999689e-10  5.8112114712011777e-11  1.2206418452704164e-11  3.5848463832799556e-11  2.3739644222348836e-10  2.5107166844389293e-10  1.1749590806946490e-04  1.0207637574609092e-09  6.4435272735150614e-11  9.4300022796571905e-12  7.4954935370405128e-11  1.5070728709365863e-08  1.6851900144559974e-11  3.8750335221925200e-10  2.6200481185829898e-10  6.9260805017667869e-10  1.8917508251992758e-10  7.1935556865263290e-10  1.2636819463392362e-10  2.9688613421457366e-11  1.0206692129597913e-10  7.5782754767511702e-11  2.2347091432562609e-09  1.4851923856800235e-11  1.0476276662919115e-10  4.9056999125575054e-11  3.0649335150797719e-12  2.7916086314248367e-07  2.7094752112382603e-11  3.3151222546873296e-11  6.6430953391525391e-11  3.1823326270713927e-09  2.6166193919366505e-07  7.2219771555900178e-05  4.8917197108728686e-11  2.7481061863762853e-11  6.0208934415433121e-09  4.2281367821518557e-09  5.6063861195222080e-11  6.2430185701175719e-11  3.2180278146305908e-11  1.9379521620413574e-10  4.0792179855390127e-11  7.7241890554382575e-11  2.5827169321802924e-11  2.8570209444587286e-11  3.2056645546728217e-11  3.8644938885802814e-11  3.9961224097312945e-11  7.0278575062132431e-11  8.0736987023912444e-11  1.9670936987555087e-11  7.0898080314033523e-06  4.2026475729196374e-11  3.3256497251079213e-10  4.1292404524190234e-11  6.0018882364875263e-09  6.2841738458592429e-11  1.6684306543361766e-11  2.2732049800378835e-11  1.0937016973344272e-10  8.4463161488695276e-11  1.8325227928873997e-10  2.3926433511546518e-11  3.1341244111712227e-11  4.4336575646783319e-11  4.4857606146488867e-11  6.1356191790444656e-11  1.1392563764076111e-10  4.4879965655988878e-10  2.9895140625453912e-11  1.0122422416366829e-10  5.0385666774025785e-11  1.8824410756631932e-10  3.6205826763035666e-10  2.6871446607846669e-10  1.2429156971096924e-10  3.9790333744385621e-11  4.0404543708616366e-11  4.6040308942288715e-11  6.6836980057712503e-10  3.7955338317311307e-10  3.6301754802908978e-10  2.8581053632537653e-10  1.9607612403012369e-10  7.9661418015857017e-11  4.0696671347011285e-11  9.6391206908310540e-11  9.5410228288622598e-12  2.1829943866550871e-11  6.3815075985903052e-11  3.6317470050340554e-06  1.5320432916536634e-10  4.8512171443484551e-11  8.5700476823369910e-11  3.9128964993253090e-10  6.5398662671022165e-11  1.6623305272468733e-11  4.2480154142035445e-11  2.6587484434607398e-10  1.3578257309527397e-10  1.1891852336973520e-10  8.0863841493684686e-11  1.3184242132056072e-10  1.0711032675240571e-11  6.1256486883109969e-11  1.4808130296308169e-10  5.8967691754165298e-11  1.7879550209155638e-11  2.2270273820634267e-10  2.4292800093961373e-11  2.2342802572629045e-11  6.6271365968102165e-11  2.4559604571092298e-11  9.7150714642422915e-11  2.2144198217360151e-10  4.4350327964298971e-11  5.6177638353398997e-11  3.7510107122468573e-11  4.6203902096853799e-11  1.1565541010039745e-11  2.2753884434262230e-11  2.3046250484004887e-11  9.9151305986376509e-11  2.6558367630665379e-09  1.7418647676750077e-11  1.0654845539281646e-11  2.2269030221758938e-11  3.3759042285599317e-11  8.1591082364392295e-11  2.0064862829652531e-10  3.2415967537556279e-11  4.3022316440234779e-11  6.2861748357875938e-10  2.0801407969950184e-10  8.8690533757012093e-11  3.1730935087191197e-10  3.8093871071520582e-11  2.7447118692890428e-09  7.8821190510103667e-11  8.4475439753107363e-11  2.3961889176633239e-10  5.2273458126178573e-11  1.4749110864263818e-11  1.3396844282134183e-11  3.3047512433153881e-11  4.2206382069625617e-10  4.3444545843077269e-10  3.4516583932497470e-10  1.0107400708311969e-09  8.3044937710729963e-11  1.5880088429843994e-09  1.7007922406367410e-10  1.5358088300316156e-10  2.9479390612316986e-11  3.6963135004508368e-11  1.3660776833856359e-10  2.6225593580854968e-10  2.0227162515316433e-11  2.1982753794538265e-10  8.5547123353697252e-11  2.8031755021262121e-10  1.7067012126395537e-11  2.6000932353786961e-10  7.9059291253927369e-11  2.3725208902869556e-09  4.3167903971360903e-11  2.4956428419922991e-11  2.7807205112190376e-10  3.1657320262253821e-11  1.4650057444463591e-11  3.6801379690981886e-11  1.0288192452616071e-11  1