<?xml version="1.0"?>
<VTKFile type="UnstructuredGrid"  version="0.1"  >
<UnstructuredGrid>
<Piece  NumberOfPoints="4852" NumberOfCells="9430">
<Points>
<DataArray  type="Float64"  NumberOfComponents="3"  format="ascii">-1 0 0  -1 -1 0  0 -1 0  0 0 0  1 0 0  1 1 0  -1 1 0  0 1 0  -0.5 1 0  -1 0.5 0  -1 -0.5 0  -0.5 -1 0  0 -0.1608775713298009 0  1 0.5 0  0.5 1 0  0.1967448868031411 0 0  -0.3424813793718885 -0.1755535940979193 0  -0.3385525322584065 0.2259205343437097 0  0.1746148802527955 0.3478873996842131 0  -0.1877069261476205 0.5564412512674706 0  -0.5077158201474938 -0.5396183348166348 0  0.4905003619660853 0.2602808939013369 0  -0.06509634990591925 0.2021106769886271 0  0 -0.5061325913258391 0  -0.25 -1 0  -0.5643185302164294 0.5803729864506347 0  0.6633744854295235 0.6382860918463246 0  -0.1722558681892682 -0.5383586691625482 0  -0.5407069670297342 0.02636113646035783 0  -1 0.25 0  -0.2072499289260079 0.02400126257354568 0  -0.6555814254135601 0.3130975985211195 0  -0.9999999999999999 -0.25 0  0.03955385028570048 0.5933794353342232 0  0.1955385817987171 0.130395121638705 0  -0.1364918068653713 -0.2204630917353594 0  0.3726742330581539 0.6170091244030302 0  1 0.25 0  0.5355652144809806 0 0  -0.75 -1 0  -1 -0.75 0  -0.647605866053126 -0.3245622805029702 0  0.25 1 0  -0.9999999999999999 0.75 0  0.02757118475249542 0 0  -0.25 1 0  -0.75 1 0  1 0.75 0  0.75 1 0  0 -0.02898318711980711 0  0.0542348119119295 0.1433113191726692 0  -0.07813019256870024 -0.0280939425130875 0  -0.7022673274554357 -0.1328067862579873 0  -0.3238074732574237 -0.3477667674841879 0  -0.3437341271424903 0.4395215512086954 0  -0.1014616552012617 0.76561100348949 0  -0.3876961651158429 0.7035690935239023 0  -0.05574986228993119 0.4007750075283066 0  -0.07991132002015766 0.07217445449379579 0  0.3594329482083627 0.3712915182114875 0  -0.7195718469284893 -0.733108987639288 0  0.4117801537878488 0.09218382592240187 0  0.6900143969827454 0.1943292494683415 0  -0.7483907276914857 -0.5310305552048546 0  -0.3920620215404581 -0.711077521692316 0  0.721595246612031 0.4228398433734488 0  -0.7761910294343286 0.09842241854797815 0  0.1982055954688126 0.6999118934534361 0  -0.2007228853649306 0.2898404723941236 0  -0.8007477485791402 0.5800959812506312 0  -0.7190801649483479 0.768329309906793 0  -0.04363337432531128 -0.3756915425818477 0  0.5873910429202233 0.8182191113214388 0  0.8222358536962867 0.8092386967822337 0  -0.09666306425226581 -0.6943994570319578 0  -0.516422799691434 0.1649023319065639 0  -0.2031062334333192 0.126318768564548 0  -0.3606717729512081 0.07628425544042493 0  -0.3666334734588967 -0.052392386037847 0  -0.4990285941785941 0.3980917268095324 0  0.375 1 0  1 0.125 0  -0.01175981468291763 0.07171260345033539 0  0.06274511798711908 0.3932644766835921 0  -0.1723618411420393 -0.1222981155548295 0  -0.2454624161648938 0.7744898201802555 0  -0.625 1 0  0.5342526625639095 0.4573744961940462 0  -0.5807417229029246 -0.8311199256046169 0  -0.2589276359215804 -0.7829471180689704 0  -0.3223085901670121 -0.5092584030738205 0  0.8339669396969729 0.6001720503726268 0  -0.5525934221906682 0.791451472174502 0  0.125 1 0  -0.06781400829887087 -0.09339570305352281 0  -0.495819364525129 -0.1434282843449128 0  -0.875 -1 0  0.02963294563594874 0.04184296862480963 0  1 0.375 0  -0.8750000000000001 1 0  0.05793061297529572 0.794453260276484 0  -0.1956540215313867 -0.3748497392850988 0  -0.07378278931336263 0.5725141745151232 0  0.2376263174176763 0.5197743851031927 0  -0.7930577366550678 0.2332035644661571 0  -0.4978106818603975 -0.3902181568869612 0  4.226034143798736e-05 0.272585383015669 0  0.5119887066956985 0.6434445048520765 0  0.4011632255623032 0.8089393905209484 0  -0.8074109950249565 0.4277787124760045 0  -0.06271507014157338 -0.2221876982196747 0  -0.7105838426328844 -0.01369634478488655 0  0.09063344894636365 0.05300868769284726 0  -0.4799968820695312 -0.2515006503105838 0  0.7241010953272393 0.08467638013899886 0  -0.80909150048342 -0.4134308563425968 0  0.3376036262407551 0.1555039537196816 0  -0.795197384497294 -0.2517247964478488 0  0.2366616140815375 0.2561932697037642 0  -1 -0.875 0  -1 0.875 0  0.1845073302288677 0.049176034125948 0  -0.2490517514862265 -0.2290228037301652 0  -1 0.375 0  -0.1718449400293886 -0.04200325616447038 0  -0.6511041507352067 0.4711460628606245 0  0 -0.07736776745332727 0  0.08078369826970447 0.2612700349949968 0  -0.375 1 0  -0.219262524825049 0.4265008426555845 0  -0.1211899416179628 0.1507858776861162 0  0.1342714780156232 0.5563957818064401 0  0.1324265846317812 0.1951012867309646 0  -0.4770433748860805 0.2724330099682077 0  -0.04678980637783213 0.01387884091181446 0  0.850137985684126 0.3742505397191092 0  -1 -0.125 0  0.2877296675915644 0.8374453410338101 0  -0.1121753810677801 0.3145090590252134 0  -0.125 -1 0  0 -0.7575037395175259 0  0.07821397079968176 0 0  -1 -0.375 0  -0.375 -1 0  -0.625 -0.9999999999999999 0  0.7474787146812756 0 0  0.625 1 0  0 -0.2918843213980812 0  -1 0.625 0  -1 0.125 0  -1 -0.625 0  0.3284075310660084 0 0  0.004929205892015135 0 0  -0.125 1 0  0 -0.006571003003944568 0  1 0.625 0  1 0.8750000000000001 0  0.875 1 0  -0.567591816094402 -0.678715196103726 0  -0.004683642335496582 0.1612008354066915 0  0.3625710539945494 0.2661535881769234 0  0.6530792263852495 0.2977194315972329 0  -0.8566100505351 -0.650428750478045 0  -0.8640970191624211 0.788146938378456 0  0.4315295864666386 0.5042343232846749 0  -0.4022244389247229 0.8554333150637679 0  -0.7812380165634231 -0.8765513302942965 0  -0.8726599056782601 -0.7869712066873046 0  0.1554705615226229 0.8427167553883667 0  -0.6597616735824841 0.1551547031569462 0  -0.5796856271879094 -0.06368732897136649 0  -0.8548458936983226 -0.06292149742126989 0  -0.2995719445508687 0.5636916508381926 0  -0.4277261493536876 0.5716548423539873 0  -0.3784774685554885 0.3331733024613202 0  -0.6210654459712753 -0.2168821349034223 0  -0.2743919157866391 -0.08995732356382442 0  -0.6437848487512885 -0.5915407167626501 0  0.8590916996933341 0.2687072357622105 0  -0.032842549163348 -0.03321878990189273 0  -0.0553477282828724 0.1153849443125022 0  -0.1353482532473312 0.4337193373606529 0  -0.120619153589999 0.0325650073074483 0  0.5381730354726352 0.06631615428485142 0  0.5797733038995126 0.3626577288492053 0  0.6941496923985812 0.7777849095328111 0  -0.7946250067277646 0.881436088121867 0  -0.645632471813247 -0.432074235317867 0  -0.1107430830560213 -0.4005926500785049 0  0.8710651505372239 0.4929606801901726 0  0.07626826178957156 0.09448651055884572 0  -0.6670125670790356 0.8680556147901388 0  0.4550069667984525 0.3531221895323467 0  -0.02671755294004375 0.03600012971275457 0  -0.4121412928027985 -0.4413014041125838 0  -0.363952691003131 -0.2688390576428205 0  0.3244101308242213 0.4838809075006798 0  -0.1978936737583488 0.2028454343110619 0  0.7063746200603231 0.5359793855822731 0  0.2623059876180632 0.3579406867294537 0  -0.3808305428564897 -0.8511644097856275 0  0.1106717303934187 0.683983512427834 0  -0.2872916955952198 -0.6126428784784047 0  -0.445392965587696 -0.6216657145143903 0  0.297574860352258 0.6941282098007169 0  -0.8761057842290843 -0.1756534212912421 0  -0.181638852123947 0.8541062824389757 0  0.454815029453578 0.1659715334179904 0  0.2803359341913966 0.04771264408545524 0  -0.1445419155563827 0.6596968326486604 0  -0.01150914476775497 0.7106414912451343 0  -0.05399328841422584 0.8742038742890197 0  0.005128888623852709 0.4718065297803696 0  -0.3892840972394708 0.1552392464772139 0  0.5496848722500282 0.135819886199154 0  -0.4802298291513959 0.6839545875957928 0  -0.8520442166249356 0.3364403008252914 0  -0.08167832862377521 -0.5371369122223765 0  -0.01968285017222497 -0.5529772677896073 0  -0.2147038024768981 -0.2882606059888712 0  0.8682004157531645 0.1533116673431933 0  -0.1648659263979011 -0.6599486367923264 0  -0.891004270863077 -0.5316747598387447 0  -0.2843069967731853 0.3398502405215865 0  -0.6789607345140831 0.5772712406874934 0  -0.898279701712369 0.5334931972168222 0  -0.8990352681915418 0.6623142711120394 0  -0.6461428101875536 0.07363769621486901 0  -0.8594598314082122 0.02903299292981328 0  -0.8887676873967193 0.1700609121271273 0  -0.1315971152179333 0.2303222128670435 0  0.1613532037334918 0.4476291215213057 0  -0.04364442739006159 -0.1259763237568503 0  -0.7556927858532227 0.6730645888709205 0  -0.605839376796994 0.7004388508960576 0  -0.2559915524763581 0.07925100699593739 0  -0.2525513784558701 0.6503912338686555 0  -0.02755047557689997 -0.006670164199369389 0  -0.4976517513766831 0.8765097691351322 0  -0.4797572578752005 0.4928773660290932 0  -0.2923942338745882 0.1454686930577655 0  0.002452763137270547 0.02386555437114091 0  0.7808696223213826 0.6884434451322557 0  -0.4750243691356608 -0.8249126122555314 0  0.2720389223609612 0.1966686571179077 0  -0.1460250200607031 -0.8619147712498894 0  -0.06235385988494987 -0.8277447785269747 0  0.4458910247689225 0.7083792285868576 0  -0.1150370246290183 -0.2905361520907272 0  -0.266332144658387 -0.02611542081483996 0  -0.8953281411834646 -0.8978636633837483 0  -0.5747782638029009 0.2404290978725279 0  -0.4782140118948977 0.08913406803803614 0  0.4938339392198967 0.827378334903748 0  -0.0254755971701331 -0.2620374144180266 0  -0.3123409349718664 0.8744139752950773 0  -0.1441181950285125 0.08101203404159048 0  -0.471032903196079 -0.03467795210713034 0  -0.389474526196924 0.01245827977192232 0  -0.2932113490733336 0.02796956014952184 0  -0.3865785645383883 -0.1204477846960747 0  0.8884845958495207 0.7017886230718274 0  0.7948111728284684 0.9125453670236235 0  0.5769719212523098 0.2106209879289915 0  -0.5642102411074478 -0.4716989555835664 0  0.6014248893406027 0.7095220007954226 0  0.6806886607290397 0.8898819021124457 0  -0.0516325053141984 0.3046629212327691 0  -0.9026758555226583 0.905137812753287 0  -0.1282933106830124 -0.06731768148660247 0  -0.1701249676572207 -0.1826002650751277 0  -0.2539529948085438 -0.143599415085875 0  0.03726902187445486 0.2027572518218583 0  0.90297608
[...]
<PointData  Scalars="w"> 
<DataArray  type="Float64"  Name="w"  format="ascii">1.7639900777426898e-10  9.9859594396597622e-12  4.4860990324039111e-10  2.5689850907511719e-09  6.3080385487812139e-10  1.5519355565940435e-12  8.5972180084195787e-12  7.8685235070435758e-11  4.1713466098245167e-11  2.1543868582355182e-11  9.2939940720814422e-11  9.3552063815900349e-11  4.1635068453257256e-10  2.6967014136796515e-10  8.9609042194260547e-12  5.7068756354941909e-10  8.9350479193047378e-11  7.1908418438570106e-11  1.2847031853498766e-10  3.5513207522772441e-10  6.9862499606062316e-11  1.1154129457991481e-10  5.8847054316201883e-10  4.3257720951287750e-09  6.0430090313213464e-10  1.0538655968906148e-10  8.5237229968335680e-11  1.9621691600025327e-10  7.6603225863029386e-11  2.0157984062294032e-11  4.7459493112829271e-10  9.8454586181934425e-11  2.2597462783994984e-10  1.7857565423784281e-10  4.4008590027810620e-10  2.3909264232044466e-10  7.5174242414455515e-11  4.5228430511366977e-10  6.0423602830950284e-10  3.0377555000685171e-11  4.6305694711366139e-11  1.0333805418436257e-10  8.9310647363694208e-11  1.9003223531173538e-11  1.0759024759083971e-09  9.9143217264928756e-11  3.2767387203021113e-11  8.7946392826182440e-11  1.3683979906184204e-12  6.0046586615128443e-10  2.2798287621564123e-10  2.1611114932997633e-10  7.8115138105413760e-11  2.6394901643370434e-10  2.7543732953480663e-10  1.7807331103544592e-10  3.3940741343123189e-10  8.8986329597673317e-11  5.9286516595789594e-10  2.5496326594912232e-10  2.8107082798587036e-11  3.2754197265887574e-10  3.7370047787539226e-10  1.4675144903815897e-10  5.3592308691609801e-11  1.7771687047360120e-10  7.2305480576212343e-11  1.6023250964648897e-10  2.2732710366543906e-10  4.4103353797220691e-11  5.8598623170857797e-11  4.2902463666888957e-10  5.4408677738703030e-11  8.1428089811920344e-11  1.9948485511040275e-10  1.6777966443769683e-10  2.6920396998517544e-10  2.9596527391360193e-10  1.7863689366858005e-10  1.8123047007163801e-10  6.3936878860008989e-11  2.4959830274713989e-10  2.6997253278656464e-10  2.0187593158628684e-10  2.3920637994239850e-10  1.1760503152272867e-10  4.5809779607347900e-11  1.1258177267256321e-10  8.8019497249340474e-11  2.7326253144420172e-10  7.4032452448169398e-11  9.4993405831467109e-11  7.4102000119247985e-11  9.5480084137238233e-11  4.0940898707655009e-10  2.0546630020613806e-10  2.3714977312913700e-11  6.4725421573439398e-10  2.6435978877500440e-10  3.0631181764444119e-11  2.6335022370261952e-10  4.3797288341155764e-10  7.5520760751433591e-11  9.9803484982296728e-11  1.6175236339068080e-10  6.8077239304638821e-11  2.7168381098393315e-10  8.3391293544800538e-11  1.3891076385559700e-10  6.1866819111005280e-11  3.1946613495172676e-10  2.2741536173305256e-10  2.3180567884922497e-10  6.1242312545252508e-10  1.2099551630041829e-09  1.6252184553740334e-10  1.6169226610293528e-10  1.0951844104591168e-10  4.5452911115304562e-10  2.3294209596634636e-11  2.5182487951540269e-11  2.7712086155863676e-10  9.4162855184084600e-11  5.9212557627810069e-11  5.0519085139130358e-10  5.6511539206875962e-11  6.1492875430331251e-10  1.2225991447856399e-10  7.9695660372741034e-11  8.4455938769965027e-11  3.4913038171866454e-10  1.8168221368443570e-10  4.6039689254221076e-10  1.3484643379282313e-10  6.2939870475887265e-10  4.1429536693013036e-10  1.0708307250908458e-10  5.1702968384186628e-11  1.3349308718481159e-10  2.7472084894725791e-10  2.6389421104141858e-10  6.4699993615603129e-10  8.0887920576149849e-11  1.1613991360649794e-10  6.2786864335589433e-11  6.6735655095542772e-10  7.8498494579888955e-11  2.4386473662299652e-10  1.3993603567868582e-10  1.2593468153333166e-10  1.7989332682413445e-11  2.9125562523609636e-10  1.6200905472666099e-09  6.3255711440124990e-11  9.9551407457847255e-10  7.3338908679202375e-11  2.1479027848983898e-11  2.1720295116944016e-11  1.1940780974694634e-10  5.6296137519746653e-10  4.7837347165782269e-10  1.5911675379952713e-10  1.0451453861205362e-10  1.5894299555365408e-10  1.8987306417577479e-10  5.7541282287317650e-11  7.0418409462565027e-11  1.9358529535065000e-11  5.9890952431637455e-11  2.7692886074560921e-10  9.4693167182246976e-11  1.0618150998070440e-10  8.8612342972462815e-11  9.5846297017083075e-11  5.3517920345484269e-11  9.4216526772785600e-11  4.5580150247831540e-10  5.2331348654668359e-11  1.6470940235091987e-10  1.6501721084287016e-10  4.9004641032846123e-10  1.9358706000202761e-10  2.9071064324372811e-10  1.4836178100874858e-10  1.4324154458503093e-10  1.4037843627330806e-10  2.0053475867751825e-11  2.5181569452417714e-10  6.4189239510491335e-10  2.4371611617247781e-11  2.6179720764731434e-10  8.3803572747092719e-11  1.5902841259514183e-10  1.1566585123684131e-09  1.4060126148604441e-10  1.6684783736186203e-10  2.2766683613902839e-10  2.9069595747688875e-10  1.0001378141633218e-10  2.0363762166252672e-10  4.0331724771367595e-10  2.0376209393008402e-10  2.3924987768440322e-10  1.1067816687376110e-10  1.0824338726671682e-10  1.1448130751042256e-10  6.7258081708172063e-11  2.0864526079100604e-10  8.9701106783986766e-10  8.1487739100095796e-11  1.1116307942933337e-10  7.8345841595847136e-11  9.5682182055796284e-11  1.6545893473302624e-10  3.8257221500966152e-10  7.4241717884633343e-11  7.8521404339039478e-11  7.6988517721411437e-10  5.2603447233051825e-10  3.0739375660784595e-10  2.0297238181200430e-10  1.0128398590538830e-10  7.5601924878049534e-11  3.2947252431615436e-10  5.6287086205639671e-11  7.6684970600703640e-11  4.8683281366351793e-11  9.0582584090411582e-11  4.1096667390121459e-10  9.0963778799242482e-11  2.0251506284802876e-10  1.5927731169711724e-10  9.5232263232762731e-10  5.8938776568887026e-11  1.8920045310357152e-10  1.1796539449214602e-10  1.1306517160189509e-10  7.8327492984849894e-10  6.8632577849705705e-11  8.1055048283564015e-11  1.1604596073202792e-10  1.1563623593987999e-09  3.8281855227615975e-11  7.6068156546244910e-11  2.7688701254329152e-10  2.7526194019407275e-10  3.5525021399200475e-10  1.7432387877004169e-10  2.1100144205310478e-10  4.0061314528922450e-10  2.7375641779847449e-11  1.0260010196196785e-10  1.2641217931353847e-10  3.6827599463992535e-11  2.8683913752123926e-10  4.4770344571106978e-11  3.1746618150938943e-10  1.4080679658415701e-10  1.1053900078174605e-10  1.9420240868418805e-10  4.8896217799058838e-10  6.8750106751710804e-11  2.5096287660368648e-11  1.4817796693921957e-10  8.0980358005768009e-11  5.6470659021594641e-11  7.2194833148487402e-11  1.8772109782459139e-10  4.8012142709764450e-11  2.5720859155041581e-10  2.5961711467031145e-10  1.3057168847110535e-10  1.2802948724963617e-10  1.2196914996869050e-11  7.2146603614530314e-11  1.4427457213708969e-10  1.6372363553585638e-10  5.0652451351699480e-10  3.9261957198700171e-11  8.2932244580219347e-11  3.2255146116105335e-11  2.4229698803652558e-10  1.2317350910326725e-10  1.7556631414693998e-10  7.5083780872557168e-11  8.2223760547208203e-11  1.2050540117087368e-10  2.0680133391419152e-10  2.2066833554279000e-10  2.6793802621986258e-10  4.3857999292887512e-10  2.1051096295894638e-10  2.0987526628419726e-10  1.4769098374188618e-10  8.2509892389355721e-11  1.7207516824365710e-10  1.8021566193650501e-10  6.4338733404974485e-10  1.2079601701764012e-10  6.4278273926944438e-11  4.2328989448642319e-10  1.9361867919890671e-10  1.9322608884029981e-10  9.5425845046684677e-11  2.9803583955125889e-11  4.4320180599864267e-11  9.5526981591325791e-11  7.3227204993692409e-10  2.9086539035462121e-10  1.8649422416829789e-10  1.3604508019314428e-10  3.4502974776818406e-10  6.8045550746045171e-11  1.1442433465979093e-10  3.6023741287143924e-10  1.0451028910974591e-09  9.8121948453319797e-11  2.7943786423240997e-10  6.2792150407199623e-10  1.2382994975238723e-09  1.9694309917808351e-10  1.5518120495926085e-09  4.2400551997695528e-10  2.2438912388542486e-10  1.3142368178009048e-10  4.0211605675532982e-11  6.6213068830915085e-11  1.2331505320539856e-10  1.5767388958487304e-10  6.3727271282716560e-11  1.0077576204644511e-10  1.0908094851688426e-10  1.3651555309901173e-10  1.9272785873294185e-10  5.1327250394935584e-10  3.3216500123701625e-10  1.6275291524961317e-10  9.8689513614096063e-11  6.2218706328744487e-11  6.1620281876162116e-11  6.5748716007469429e-11  1.8598149631271602e-10  1.9695183655834487e-10  1.0528842077211907e-10  1.0348906643451274e-10  2.3650787188778329e-10  1.3481124301137164e-10  6.6372516002101250e-11  6.2864098356049119e-11  1.0497172851525981e-10  3.2951261356583155e-11  1.7294050835652413e-10  3.0777725236169456e-11  1.5860126650678626e-10  1.7434361036029955e-10  1.5725129691556545e-10  3.6256153904342174e-10  8.1049501544630666e-11  8.6291821610210315e-11  1.3400555892870860e-10  2.7360018318707101e-10  1.4961772738007546e-10  2.6319579316367120e-10  1.1320821114254719e-10  1.3213779606179734e-10  1.4176487997817317e-10  3.4431815386402993e-10  1.2892634467185054e-10  3.1840878928012572e-11  1.1085652717503359e-10  1.0957757813957381e-10  1.5351797662410562e-10  2.3668239680945177e-10  1.6223151824536330e-10  3.5048693226059265e-11  1.3268159338636845e-10  2.5645206477945393e-10  2.8250838238927958e-11  3.2654001627275490e-10  1.6879583699644258e-10  3.7915325045260157e-10  1.1743941504051966e-10  2.1079966366686591e-10  3.2897691962105519e-10  7.4890426619377178e-11  1.0522893347118713e-10  2.1513889358981529e-10  6.6371417193490932e-11  5.0336897397602937e-10  1.6394783105744189e-10  9.9200164578429096e-11  1.0582175475958463e-10  2.0514090329251421e-10  5.3015013457792371e-10  4.9318886548364221e-10  1.6730089617924526e-10  1.6306645833478201e-10  1.9553589884837265e-10  4.0434940329676925e-10  4.7008163160492523e-11  2.1295228280843720e-10  8.6080975412083095e-11  1.2600512310258534e-09  1.2426989746911407e-10  4.5946031244472678e-11  5.6993604078379224e-10  3.4948847015438619e-10  2.4711253914623316e-10  1.9179241344986660e-10  6.2813497702110836e-11  1.5263697384260226e-10  3.1851778761494805e-11  4.3770561360812721e-10  7.9256494246111124e-11  1.4354943361070932e-10  1.2857891861075257e-10  6.5370323980045698e-11  3.5306743154446649e-10  4.4336810181533735e-11  1.1484731962221542e-10  2.5028678836026668e-10  1.7986865504751643e-10  7.1873381524342012e-10  8.9168678735467479e-11  5.6920410686156650e-10  1.3572911702536328e-10  3.5070641238972784e-10  5.8554126176437682e-10  2.4607056097391886e-10  1.6039364129061970e-10  2.7848078093035187e-10  4.8928782193778709e-10  3.7031019576898533e-10  7.5541786406362120e-11  4.4392494827812036e-11  1.6716430866067345e-10  3.6064119201119927e-10  1.7536286160458785e-10  1.1686475636623530e-10  1.6944494273214057e-10  7.4260793129564501e-11  6.6803706649844616e-11  1.9410083543394772e-10  5.6405044060474688e-11  2.0833108399344077e-10  9.2928804549831364e-11  4.7483383546244724e-10  4.4525428267134849e-10  7.9973293934584590e-11  4.2163624956561507e-11  4.1377656337190987e-10  6.7322648348963698e-10  2.6065545635873652e-10  1.0131931276598837e-09  2.9522824030289146e-10  3.1884919786691931e-10  2.6975526762514205e-10  2.6990387223556484e-10  9.6644269759211354e-11  2.9350932173238842e-11  1.9398014751413049e-10  1.1663226112407939e-10  2.2308145310800138e-10  7.4428217051236918e-11  1.1103681041912480e-10  2.1512642295295781e-09  1.8027017897117001e-10  7.8767589609113005e-11  7.8558090697778100e-11  4.0444681315995447e-10  2.4962448613368348e-10  1.8928677417197875e-10  2.1886801457955256e-10  4.2238056317076827e-11  7.7909802886094380e-10  2.3897652348152228e-10  5.4120999355250105e-10  2.6171762086370560e-10  2.4668675483958411e-10  3.0408072310726096e-10  9.5641391671621983e-11  3.1591709382134297e-11  3.3487813704687639e-11  3.7932073416628229e-10  3.6535902033193954e-11  1.1717086143108238e-10  1.0115628312389645e-09  7.3295493451610769e-11  3.3910114786548054e-10  2.5932431723123634e-10  5.9815077849111046e-11  5.9654358592265187e-11  1.9013849626079768e-10  2.4169137484285527e-10  4.5187466389792261e-11  1.1711127228359805e-10  1.5657531172163054e-10  7.7071780931846210e-11  1.5904376615108559e-10  2.1633691862608442e-09  3.3587025208017108e-10  3.2334661593551262e-10  1.0934287946639472e-10  1.0061784736244750e-10  1.7969260204058553e-10  7.5561161742179274e-11  1.3047365446383953e-10  5.0896400864234871e-10  8.9314701696850157e-11  2.3313014662234373e-10  1.9599234699437525e-10  1.3463781042599153e-10  4.5597067001194555e-11  7.2030327373300003e-11  4.9029042604602169e-11  8.0427345009040342e-10  1.0905305151671812e-10  2.1716899809327936e-11  5.8075970043678587e-10  2.8383117761204919e-11  6.2785196271697709e-10  1.1457949367121274e-11  1.3042287528761860e-10  1.9294602317835506e-10  2.7366951993638240e-10  9.8773236122493305e-11  2.8108005033448165e-11  7.8059574868120249e-11  2.7199730754933129e-11  1.7662511629509711e-10  3.7868248183102391e-10  2.6901661602751361e-10  3.1895480635541735e-10  1.3225924897368825e-10  1.0171369490459965e-10  6.3064310523179646e-11  3.7506917414550058e-10  4.9295622424717151e-10  9.6867725957669436e-11  9.6474822509228847e-11  1.4760758947668027e-10  7.0460079130985196e-11  4.9275523659582903e-11  5.2724245121136078e-11  3.1196428240355550e-11  8.4159358280227480e-12  1.6612722478237110e-11  8.9468741848250098e-11  2.1256769975785828e-12  1.0215699059724232e-11  1.8721211190416029e-10  3.5774206273865948e-09  2.2727502704791885e-10  3.7845868752399999e-11  2.3283381910234920e-10  8.8474110631295571e-11  1.0791050499435980e-10  4.0715869226227121e-11  1.6564132312062972e-11  8.5683420148494189e-11  7.5689029606933715e-10  7.6164092271169523e-11  1.7486871699795246e-10  3.2570323714923496e-10  4.3483746227779792e-10  9.6317791609970332e-11  1.0396013085599142e-10  5.8294653906372355e-11  7.9053776528654254e-11  1.0543328730692245e-10  5.2093580507695539e-11  5.7149644130026093e-10  5.6503007303084634e-11  2.7527659290899053e-10  8.9697968676450005e-11  1.2626802060640915e-10  2.9265858372198900e-10  4.1342517055200388e-11  6.2813356769479349e-11  2.7707419847828965e-10  1.0983818698915592e-11  1.0866128624975521e-10  9.2576221129483403e-11  7.6630925796951435e-11  5.7470506847715215e-10  1.6503476475365367e-09  2.9237436786067759e-10  2.9055511975061761e-10  9.2759548246428293e-11  6.6705820546798411e-11  2.5585832038791239e-10  1.0956931462225256e-10  9.2355333732227108e-11  1.0601089974535030e-10  1.8717264071165187e-10  7.2045000920776727e-11  4.7426143610568739e-11  6.5219122747867607e-11  3.6833150068807591e-11  7.9729476397607200e-11  1.9440358841371387e-10  1.5900199464168647e-10  1.1104438876614129e-10  2.8145857578644692e-10  4.4009542522389849e-11  1.4102226902331484e-10  5.3646837130841391e-10  6.5029129385879732e-11  1.2657677082227794e-10  1.2667215102629482e-09  5.4633251169354954e-11  3.5008361445054173e-10  5.4112001233719213e-10  1.6218169173350559e-10  1.2649461056975390e-10  1.2622898641059845e-10  8.4731805688283755e-11  2.4280894688847171e-10  2.9437702880797677e-10  1.7052959143295725e-10  4.8540155236191640e-10  4.2735821742042867e-10  1.1820974658894644e-10  2.0178177298205003e-10  6.3157227623019629e-11  8.1432421975698699e-11  6.0475355244359319e-11  2.4211662587451225e-10  4.1368525258982141e-10  3.1100267763114788e-10  3.3512089822660335e-10  8.6204303311044861e-11  2.2528888144518393e-10  4.8307259134904392e-10  1.5524035892913635e-10  4.7163695122678433e-10  1.9008188014616993e-10  1.3355340042591123e-10  1.1190712180216333e-10  4.9162459002505161e-11  5.2147929899592232e-11  3.6671045027812873e-10  6.2346082109178454e-11  5.9627164101771077e-11  1.2220586695673412e-10  3.2569593192501926e-10  3.1409371917175452e-10  1.5916513951980846e-10  1.1652485720275927e-10  6.1608034306860998e-10  6.2186191273629784e-10  1.6767380581319313e-09  2.7137511707810466e-10  1.9303544786405741e-10  4.3941310396005686e-10  4.5993825549631162e-10  1.2247258106867631e-09  2.9472732141905701e-10  2.3436086334813565e-10  3.3094903844145569e-11  1.2531013627962541e-10  3.6387055125385513e-10  4.9032000746086991e-10  2.1272038385977565e-10  6.9659091443306366e-10  2.9860088061550093e-10  2.0985218872106506e-11  4.9704775770322343e-10  3.4254213406199123e-10  3.9090968007049693e-11  3.4205720909912363e-10  4.1121309018386197e-10  5.6384383887856946e-10  1.4686269804294881e-10  6.6943198500577908e-10  1.9709805700669353e-10  4.8758008660515644e-11  1.3131932354278777e-10  1.3504668630126988e-10  3.1536200135024915e-10  7.6506214398770217e-11  2.4434654543284480e-10  2.0169044301219800e-10  7.8311761462790403e-12  1.6822699608008486e-10  5.5414769862014008e-11  9.1861516319325401e-11  1.2085156412346224e-10  6.6413649444394215e-10  4.1164359511221447e-10  3.1442777329200380e-10  1.2232539415954052e-10  1.2661807269414520e-10  9.1409096978527598e-10  5.4758484772570473e-10  1.3192483092558052e-10  1.4380808352735965e-10  1.0000758275266310e-10  5.0327334768791779e-10  1.3429761063487094e-10  1.6992335472191540e-10  9.2130934906658833e-11  7.0949024092233731e-11  6.0967216041158251e-11  1.4682240265776595e-10  1.0081125742451924e-10  1.1953737451512717e-10  3.6911416558259491e-10  8.0649008479006499e-11  6.0586757546078660e-10  1.1399239124690358e-10  2.2726989794543915e-10  2.5761922344523256e-10  5.6277460982249053e-10  1.1732613861492636e-10  3.7798672981690271e-11  6.0712583715519154e-11  1.4565834100928266e-10  1.6382805403007540e-10  5.0309548547028278e-10  8.1589406885088017e-11  1.7208168020526495e-10  2.5850479570680903e-10  1.4660563109842388e-10  2.3613075152852567e-10  3.6890203099799779e-10  3.2016689782948519e-10  1.0022178376393509e-10  1.7334574160500845e-10  1.4827819819426573e-10  2.3149834037925533e-10  2.7816976366028129e-10  3.6957873236949196e-10  1.9972690263490062e-10  1.8280309645041241e-10  1.2870583394187249e-10  1.6724591659631232e-10  3.0066498369910975e-10  3.8465010369286879e-10  3.7129926526109959e-10  1.7205008452800224e-10  2.2232707720054038e-10  2.0367617961039163e-10  1.4577686934648265e-10  3.9286862795282823e-10  3.1921687839836776e-11  1.0462265938254569e-10  1.2613879865737130e-10  6.6533877318950742e-08  4.0472270562714588e-10  1.6901471873791719e-10  6.1743419556191954e-11  2.5585829740633032e-10  1.3200610717117975e-10  6.4043105519926024e-11  1.0315168029514706e-10  1.9964995288026459e-10  2.0841898925035929e-10  2.0697069944282039e-10  1.8291275265998743e-10  3.1622416188517247e-10  6.7018825013192114e-11  8.1562989697325406e-11  1.8680377695466323e-10  1.2510956772643357e-10  3.1946873631424612e-11  4.0523947793338178e-10  6.3236726836016817e-11  5.8523975226135549e-11  1.9823479234152620e-10  1.0188139796673075e-10  2.3530024633931347e-10  2.7825748072117113e-10  2.9374718350903576e-10  1.0101261365576716e-10  1.8839484395723710e-10  9.7339176482600343e-11  2.9975519172682064e-11  8.1664943212276966e-11  5.8989555152292057e-11  8.0212351436984557e-11  2.1743868437525981e-10  4.4884041327220389e-11  6.0747153615962423e-11  9.4215876346787830e-11  9.0744541578382604e-11  9.3869148991280535e-11  2.5573773846943680e-10  8.9664036036441875e-11  1.8887900226287761e-10  2.2521561387145224e-10  1.0990529878709647e-10  1.5921663689998216e-10  3.1949811570067560e-10  1.2404851826199877e-10  6.1974535498748718e-10  1.6587415704379082e-10  1.5179431152636065e-10  1.3754027458656588e-10  2.1063324480365067e-10  4.2086296174713988e-11  3.7263642842984523e-11  7.3658209576431202e-11  3.9089258238877451e-10  1.9983169920016383e-10  7.2648412203049711e-10  4.4835672198024051e-10  1.2131027151217318e-10  5.5848131554180763e-10  3.5611497238492832e-10  1.8715702244737061e-10  7.2809570003118215e-11  9.2137358528502345e-11  1.7840892496785806e-10  1.8869225906665632e-10  3.9786281310838633e-11  5.2344160298719393e-10  2.9801602467486378e-10  3.6252025915223399e-10  4.8521093301230921e-11  3.4022537416229129e-10  2.8312359236544178e-10  5.8933564783317186e-10  6.8637849259985633e-11  6.2137193523666119e-11  2.4051298289672831e-10  6.9734096869304812e-11  4.1489505678553494e-11  1.4140993340756976e-10  2.3903638847439083e-11  6