<?xml version="1.0"?>
<VTKFile type="UnstructuredGrid"  version="0.1"  >
<UnstructuredGrid>
<Piece  NumberOfPoints="4852" NumberOfCells="9430">
<Points>
<DataArray  type="Float64"  NumberOfComponents="3"  format="ascii">-1 0 0  -1 -1 0  0 -1 0  0 0 0  1 0 0  1 1 0  -1 1 0  0 1 0  -0.5 1 0  -1 0.5 0  -1 -0.5 0  -0.5 -1 0  0 -0.1608775713298009 0  1 0.5 0  0.5 1 0  0.1967448868031411 0 0  -0.3454834365152705 -0.1780120278251937 0  -0.3430816616833761 0.2285249978885099 0  0.1761769575664691 0.3499646221700813 0  -0.1879736556771256 0.5598430380406191 0  -0.5065275266479211 -0.5409245932022645 0  0.4931166381015373 0.2581723995624159 0  -0.06746878822095208 0.2062730584107668 0  0 -0.5061325913258391 0  -0.25 -1 0  -0.5659192145172136 0.5812187012386029 0  0.6639560114324412 0.6363724788816434 0  -0.1775468185446896 -0.5403483531833273 0  -0.5445586303322066 0.02612400282287045 0  -1 0.25 0  -0.2119807082242779 0.024957586058155 0  -0.6586386095527716 0.3135350847263632 0  -1 -0.25 0  0.03972709694128826 0.5959331387635963 0  0.1967164256816283 0.1306483237767165 0  -0.1384979483590645 -0.2220617612430124 0  0.3741040414279573 0.6168300965792001 0  1 0.25 0  0.5355652144809806 0 0  -0.75 -1 0  -1 -0.75 0  -0.6481770093518262 -0.32602016396889 0  0.25 1 0  -1 0.75 0  0.02757118475249542 0 0  -0.25 1 0  -0.75 1 0  1 0.75 0  0.75 1 0  0 -0.02898318711980711 0  0.05402384741398171 0.1457388435526547 0  -0.07972946438685811 -0.02695047355385087 0  -0.7046492241736324 -0.1337185688851626 0  -0.3246710845922078 -0.3506245469576982 0  -0.345169389410994 0.442300842693146 0  -0.1008271890258863 0.7669972696438008 0  -0.3869646481728354 0.7058954862329943 0  -0.0563737140706507 0.4045628175752934 0  -0.08239787372807997 0.07456765719167571 0  0.3620524811513154 0.3719261751392603 0  -0.718660207794361 -0.7327916382354639 0  0.4133833342181383 0.09011669474058409 0  0.6914938591031522 0.1920055172320421 0  -0.7493991895902529 -0.5305546783326515 0  -0.3895564075713553 -0.712857201449971 0  0.7233399627306965 0.4205418403598898 0  -0.7791347442805975 0.09842898966943113 0  0.1992617857613307 0.701340950015871 0  -0.2035153115903593 0.2939849154610452 0  -0.8012280303916651 0.5808319415374978 0  -0.7200783565669345 0.7686996274405121 0  -0.05289139603015085 -0.375055091269722 0  0.5871331478307218 0.8184214586328128 0  0.8220618967544492 0.8085801777584763 0  -0.1065820452155601 -0.6984609873658763 0  -0.5202620849181289 0.166013072194498 0  -0.2077812669049573 0.1291441414853594 0  -0.3658245438510865 0.07721385311667246 0  -0.3712545678646714 -0.05268612412836059 0  -0.501870307864703 0.3996148025360809 0  0.375 1 0  1 0.125 0  -0.0137985965743249 0.07329363272935255 0  0.0628144369745008 0.396842545110725 0  -0.1751599505990573 -0.1237748158079216 0  -0.245563474505732 0.7762331261840251 0  -0.625 1 0  0.5364252079555378 0.4563553911030105 0  -0.578428969689074 -0.8315851164850918 0  -0.258292719571898 -0.7849153620572686 0  -0.3219119924340641 -0.511642864566099 0  0.8350502493840207 0.5974816394265671 0  -0.5521540105126946 0.7930255214490667 0  0.125 1 0  -0.06927952711724283 -0.09351181180517897 0  -0.4997175091698123 -0.1447981043453953 0  -0.875 -1 0  0.02803907603470739 0.04270458966391394 0  1 0.375 0  -0.875 0.9999999999999999 0  0.05819718756178948 0.7963624810171087 0  -0.1977374641131851 -0.3767658322903069 0  -0.07410931001513001 0.5758138235231611 0  0.2392305208893801 0.5212130119597224 0  -0.7948550945019314 0.2322370709103736 0  -0.4984203850843183 -0.3925064509126937 0  -0.0009061664550048457 0.2765145522508154 0  0.5130061958052868 0.6424441668621049 0  0.4014072003412136 0.8088486884942989 0  -0.8082120614469854 0.4280268992211863 0  -0.06533643267683588 -0.2218104460859077 0  -0.7133708359840439 -0.01408931960627504 0  0.09056624556930717 0.0539456523432382 0  -0.4824463030443061 -0.2540713959990638 0  0.7245993999209654 0.08279835196405035 0  -0.8102314550117312 -0.4137931877116835 0  0.3397675437431233 0.1546882722274846 0  -0.7965507599134872 -0.2529599819565095 0  0.2389376183378586 0.2569342953541757 0  -1 -0.875 0  -1 0.875 0  0.1850268485152182 0.04884782680539174 0  -0.2510698718376514 -0.2317651201134294 0  -1 0.375 0  -0.1756666510086666 -0.04195708560081659 0  -0.6528684284037003 0.4716013513566151 0  0 -0.07736776745332727 0  0.0812122681460956 0.264449852723556 0  -0.375 1 0  -0.2212560277382924 0.4301997267994754 0  -0.1246691647876521 0.1545633237152322 0  0.1352509029950898 0.5580224884051184 0  0.1333878048582159 0.197084549988938 0  -0.4805263322051314 0.2737032631671604 0  -0.04707080060602039 0.01525491536913129 0  0.8521042441873421 0.3716252336193027 0  -1 -0.125 0  0.2875530676156559 0.838377605992749 0  -0.1141080137164364 0.3188989691204952 0  -0.125 -1 0  0 -0.7575037395175259 0  0.07821397079968176 0 0  -1 -0.375 0  -0.375 -0.9999999999999999 0  -0.625 -1 0  0.7474787146812756 0 0  0.625 1 0  0 -0.2918843213980812 0  -1 0.625 0  -1 0.125 0  -1 -0.625 0  0.3284075310660084 0 0  0.004929205892015135 0 0  -0.125 1 0  0 -0.006571003003944568 0  1 0.625 0  1 0.875 0  0.875 1 0  -0.5653818341007673 -0.6793092870812334 0  -0.006275450001232937 0.1647297011644157 0  0.3653279325864289 0.2647221546933243 0  0.6551052736210786 0.294923910134731 0  -0.8558064796384238 -0.649554886967023 0  -0.8655750497883709 0.789406567849488 0  0.4335752759263503 0.5038690197433423 0  -0.400672413316914 0.8575095838825952 0  -0.7808507815488253 -0.8759523220135766 0  -0.8716721262354362 -0.786511689105753 0  0.1559282502816808 0.8437966495676362 0  -0.6629159729150153 0.1554426640494112 0  -0.5826603158197999 -0.06491941829227094 0  -0.8565491591660188 -0.06279676731969294 0  -0.3002261062867469 0.5667561170778692 0  -0.4283454026935969 0.574169281147308 0  -0.3817704985523839 0.3360756098929004 0  -0.6222465171274855 -0.2186410685897619 0  -0.2782442309097499 -0.09121090371868715 0  -0.6427210395792424 -0.5921516947873697 0  0.8604563898624262 0.2663379203228744 0  -0.03344285248993803 -0.03126550976167128 0  -0.05787326167490876 0.1183895071449686 0  -0.1367154818082015 0.4377124684696905 0  -0.1239494481858305 0.03399622517774172 0  0.5387798091257917 0.06463386335103775 0  0.5819688867991006 0.3611397521472171 0  0.6937875898351831 0.7771343142271758 0  -0.7963396624386194 0.8824216471041055 0  -0.6460863823375067 -0.4326158615527921 0  -0.1177846025857315 -0.399736768280415 0  0.8726754151069851 0.4906104654960736 0  0.07598762154744312 0.09623500637049594 0  -0.6672934016784614 0.8698661232639169 0  0.4576720863856509 0.3525416674027645 0  -0.02768401088087275 0.03704028209664656 0  -0.4119324726100126 -0.4438839358315413 0  -0.3658788541446807 -0.2718386456775742 0  0.326689872894559 0.4848068504054532 0  -0.2016164758558003 0.2062887934142884 0  0.7077494649963207 0.5332197801563934 0  0.2646799287830713 0.3593062359424932 0  -0.3783250126406492 -0.8526855912031793 0  0.1107379686290889 0.6852372831012832 0  -0.2863687922689634 -0.6146252432058901 0  -0.4437635843420821 -0.6230975992658465 0  0.2990885288316749 0.6948455704290334 0  -0.8763033197630824 -0.1759104762240806 0  -0.181474482736515 0.8568258045110064 0  0.4569501935277464 0.1642173915361007 0  0.2811261351080651 0.04709061541675197 0  -0.1443281513154682 0.6615109584150712 0  -0.01147423690846132 0.7120185166163653 0  -0.05345779945632647 0.8767172964512684 0  0.005224855953923354 0.4751022375259735 0  -0.394282672558947 0.1568400702482899 0  0.5509202774240242 0.1335654227455311 0  -0.4801478800482233 0.685885752391769 0  -0.8532739408783858 0.3358251917437307 0  -0.09276295248231645 -0.5382494453699475 0  -0.03007418243797473 -0.553253879291377 0  -0.2161569272294591 -0.2906803481049121 0  0.8690321529619709 0.1516136139182724 0  -0.1705113695033647 -0.6628047878763493 0  -0.8899987537474005 -0.530925868208515 0  -0.2870637218478242 0.3437363418135976 0  -0.6800238106279352 0.5780814211183734 0  -0.8985577555086921 0.5338412994502089 0  -0.8997639543510368 0.6632908587616915 0  -0.6490884478143972 0.07383429944554576 0  -0.8612072385614186 0.02913130684712226 0  -0.8898422359783549 0.1690272468400167 0  -0.1344284872241752 0.2344735666695978 0  0.1626113891725441 0.4504411665329494 0  -0.04472265937343179 -0.1261763622082919 0  -0.7565487355485709 0.6731157433153631 0  -0.6066728024704405 0.7010653375849671 0  -0.260927324107477 0.08090484781310917 0  -0.2528059760778421 0.6528694313432354 0  -0.02619615804561797 -0.004116968654890094 0  -0.4972377408088291 0.8782760921550806 0  -0.4820127002849917 0.4952169194914338 0  -0.2970336560605497 0.1475658244622927 0  0.0002404945738351551 0.02266204400011957 0  0.7812433904720795 0.6864641394989257 0  -0.471942538406915 -0.8261591535347536 0  0.2744026274598745 0.1969871378504454 0  -0.148763297086979 -0.8639019810673841 0  -0.06581028604380694 -0.8302561183332455 0  0.4463484423224521 0.7082637208346346 0  -0.118765630958905 -0.2905961871571873 0  -0.2709910606490737 -0.02613309614308609 0  -0.8950530003262617 -0.8975077420787819 0  -0.5780743466862388 0.2412310428622771 0  -0.4824011254397604 0.08961786189438664 0  0.4938189372232268 0.8274632693352774 0  -0.02886062231262593 -0.2607961451766527 0  -0.3122941704862699 0.876967837023205 0  -0.1481902258415043 0.08335723298188535 0  -0.4752471076973903 -0.03495308073044075 0  -0.3945756352660046 0.01282671951989913 0  -0.2983448574651432 0.02869744594842892 0  -0.3905368101290866 -0.1218878183275753 0  0.8889777615571216 0.7002375355573967 0  0.7947118173084498 0.9122872893404846 0  0.5788421559527993 0.2086982309252427 0  -0.5628812175326682 -0.4730509233514677 0  0.6017037558661185 0.7084537452263834 0  0.6800407541366713 0.8898125402217778 0  -0.05324583928460803 0.3090648559794448 0  -0.9035615591960281 0.9058163687027672 0  -0.1309090621465563 -0.06746827277043617 0  -0.1721638324123518 -0.1846583085039593 0  -0.2569939037400953 -0.1456230361290528 0  0.03663924348127095 0.2063474596201961 0  0.9030746081679001 0.8965585516866785
[...]
<PointData  Scalars="w"> 
<DataArray  type="Float64"  Name="w"  format="ascii">1.6189151700639040e-10  9.8843640517186661e-12  4.4481563189061739e-10  4.7943270475932858e-07  6.2311321528616704e-10  1.5136785329978684e-12  8.4838176698478478e-12  7.1521387326783758e-11  3.7785149514319305e-11  2.0695266364529954e-11  1.0210826609827318e-10  9.2548751600516958e-11  4.1449213471837740e-10  2.6090331361859915e-10  8.6849690955645721e-12  5.4356222507350246e-10  8.9982854967657829e-11  7.0561402302952568e-11  1.3084664651298105e-10  3.3655864806297555e-10  6.5297222371936071e-11  1.0293760729932479e-10  5.7535690154996318e-10  2.3452666919170691e-07  5.6653005275169626e-10  1.0243767763816989e-10  8.6556978339413683e-11  1.6673265082931297e-10  7.4240467720732457e-11  1.8512815270823161e-11  4.7471327215419813e-10  9.2873953412318683e-11  2.3074147893844370e-10  1.7412772318241412e-10  4.6977734206229035e-10  2.3085972047852981e-10  7.6276862120468521e-11  4.6829897278335273e-10  5.8712815178160771e-10  2.9543156874068158e-11  4.7493624526094948e-11  1.0460560787513027e-10  8.7635014437832474e-11  1.7292037627352190e-11  1.0799638366091439e-09  8.5753498543691629e-11  3.0422535329013731e-11  8.9430043122628389e-11  1.3625164631968398e-12  6.0479275185998435e-10  2.3389308049389706e-10  2.4588767161217049e-10  7.9410536170622312e-11  2.5031350281526942e-10  2.4514619528208238e-10  1.9485858501473981e-10  3.3897182900130018e-10  8.6366740222721598e-11  6.4762698342951414e-10  2.4838514990535938e-10  3.0174676121714530e-11  3.1659834846497045e-10  3.7099118232506073e-10  1.3711882776485311e-10  5.1822758602951146e-11  1.7367442020705398e-10  6.5838451370408538e-11  1.7396087814990502e-10  2.3057873181328438e-10  4.2558834682909320e-11  6.1806110055322041e-11  4.3737907962734782e-10  5.4232324758845239e-11  8.4068174793991198e-11  1.6742877581040061e-10  1.6327223830958541e-10  2.5764243934822713e-10  2.7612318008723470e-10  1.7893526102383426e-10  1.8653926175766396e-10  6.1897476411747585e-11  2.4828257515953087e-10  3.0779969219510266e-10  1.9280828842289079e-10  2.3752737223990933e-10  1.1927135477234010e-10  4.1317875123759907e-11  1.0799303453679613e-10  9.1918554925162854e-11  2.4848933229479439e-10  6.7140788615297655e-11  9.7056824627445111e-11  7.3633532402367668e-11  8.9554705503063808e-11  4.1816308872656738e-10  2.0198101496757267e-10  2.3828796706010181e-11  8.0226786767182746e-10  2.5074170717546935e-10  2.8980996145470667e-11  2.6598699356471144e-10  4.1627484751326031e-10  7.1450998213728158e-11  9.3739059219815348e-11  1.4741338536054892e-10  6.2360901286305565e-11  2.7560425887239371e-10  8.1548408429360198e-11  1.4257197991191280e-10  6.1784130417743591e-11  3.2754549566836365e-10  2.3498490939950720e-10  2.5459197372362093e-10  6.2733981958538435e-10  1.2182190131117373e-09  1.3944594098777985e-10  1.6851447483221877e-10  9.6570502692080306e-11  4.5967563492554713e-10  2.4429348645639809e-11  2.4111875543844762e-11  2.8774720924705507e-10  9.2288285096373092e-11  5.7194089752040663e-11  5.2105747163875166e-10  5.3131957585542176e-11  6.4664369093214513e-10  1.1900446576006009e-10  7.3314635452419570e-11  8.0372015796380228e-11  3.4767833114854270e-10  1.6405670276132325e-10  4.6840459966286370e-10  1.2674705162384611e-10  8.0593170932540163e-10  4.3111505253566729e-10  1.0250779198427525e-10  4.9462510155023823e-11  1.3167415247414733e-10  2.5394761492949253e-10  4.4789061446069876e-10  6.4717955760037617e-10  8.6313201778620862e-11  1.1511296894755028e-10  6.2878659017397794e-11  6.5403973597281021e-10  8.0244532557953568e-11  3.3811594193837289e-10  1.3647471726687367e-10  1.1655184594403556e-10  1.8691660736528688e-11  2.8480111077484667e-10  1.3027180896565441e-09  5.4134558997087574e-11  5.0742847481580156e-10  7.3568844718092178e-11  2.1105464521706393e-11  2.1715998896113809e-11  1.1956642977364293e-10  5.7882817566960952e-10  4.4600733586033764e-10  1.5909598785607586e-10  1.0734528705477179e-10  1.5463043502451664e-10  1.8721577571592006e-10  5.5012279851134202e-11  7.3337681861220298e-11  1.8916868901702948e-11  5.6412312851436772e-11  2.7693344906851001e-10  8.8885473991107331e-11  1.0058283207842658e-10  8.0114718192918634e-11  9.0821730686109282e-11  5.1516032854685612e-11  9.1356835993917525e-11  4.5414052561154104e-10  5.4519419087815152e-11  1.6131654763613004e-10  2.2061427249787136e-10  4.9131291220263077e-10  1.9197227869210961e-10  2.9956341595171928e-10  1.4172900373883866e-10  1.4339620838029791e-10  1.4686994146657243e-10  2.0453871982065426e-11  2.7752863461040376e-10  6.5254529429018144e-10  2.4138859357627813e-11  2.6539597476851557e-10  8.4529057650598176e-11  1.5578352582716421e-10  2.4246706141915459e-09  1.3493000589791052e-10  1.6400068113803300e-10  2.3173676982715358e-10  2.8346867189073612e-10  1.0143149560051027e-10  2.0251307645674315e-10  4.0243306794752037e-10  2.1536507047592618e-10  2.3281430613522424e-10  1.0815272949880457e-10  1.1031809683268948e-10  1.0665007109634877e-10  6.8046060367702656e-11  2.0807951943302495e-10  8.9884001352049662e-10  7.4351473316370086e-11  1.0254849504386298e-10  7.7413289350635257e-11  9.4297291234690882e-11  1.5971410373112357e-10  3.7235060201389533e-10  7.7369441201549672e-11  7.7996470986855687e-11  7.7435253549336561e-10  1.0088392019888002e-09  2.9158011009133802e-10  1.9809695660629267e-10  7.6457762984763108e-11  7.6302813088475264e-11  3.2502416348488158e-10  5.4892542132694237e-11  7.8141671346438637e-11  4.7468763697154730e-11  8.9854969047389459e-11  3.8510416409500882e-10  8.5016613754032175e-11  1.9739199890717229e-10  1.6296858786692610e-10  9.7130433791976405e-10  5.8105302156712116e-11  1.8824149981989990e-10  1.1607368766319275e-10  1.0572309671680448e-10  1.2961129746694186e-09  7.0647360432632945e-11  8.1506879772912833e-11  1.1727386117545012e-10  2.0274337860195118e-09  3.8889470050592375e-11  7.4610791445899192e-11  2.8372834515172114e-10  2.4768680658379691e-10  3.3950799259545576e-10  1.7956886193510562e-10  2.0463688426290407e-10  4.0172415401862634e-10  2.7507144812368674e-11  1.0143076794940073e-10  1.2346788645726376e-10  3.6135507189415954e-11  2.7376417375512594e-10  4.0543871805651210e-11  3.4988318434054262e-10  1.3244538632563697e-10  1.0770156667602242e-10  1.9162836783019727e-10  4.9382063968954176e-10  7.1420136166555128e-11  2.5349460361534124e-11  1.4224843179210958e-10  8.0352148674201195e-11  5.7522618150716868e-11  7.1694913297954088e-11  1.7928883282576324e-10  4.4445177204709695e-11  2.7910996416691748e-10  2.5769084879326366e-10  1.3108392060323451e-10  1.3683160415995947e-10  1.2381061650699849e-11  7.0490174659315116e-11  1.5053521294907284e-10  1.5781199920478448e-10  5.7592315062227369e-10  3.5388627004131033e-11  7.9839364253885693e-11  3.1669584452664307e-11  2.5380686801123859e-10  1.2042482340216263e-10  1.7590775261139081e-10  7.3742228402034608e-11  8.2046891009475004e-11  1.1943307130689772e-10  1.9365192426574278e-10  2.2745419594945623e-10  2.5488853625977671e-10  4.6761495045364438e-10  2.1080595836331171e-10  2.1087671985485298e-10  1.4312179798063716e-10  7.8470213008549753e-11  1.6607671424230980e-10  1.6205292694821572e-10  6.6650818091242650e-10  1.2698014739282285e-10  6.0192615600733475e-11  4.1411476169291434e-10  1.9965069523284369e-10  1.9379630378570483e-10  1.2385612008835285e-10  3.0643725066322691e-11  4.3501715505485632e-11  9.2150643864406974e-11  7.3013390712735216e-10  3.3130722142926655e-10  1.7560609785719490e-10  1.2887310159819907e-10  3.3009002269644748e-10  6.6225945579873118e-11  1.0881620190357151e-10  3.6733043277653881e-10  3.1931574790345376e-09  9.5257213287716969e-11  2.8791922087696139e-10  6.5726370213952778e-10  1.3378137304072169e-09  2.2700442264646142e-10  1.6844132138206406e-09  4.4240123346636440e-10  2.2334921729767590e-10  1.1930595065682041e-10  3.8703657146608138e-11  6.1960904487538460e-11  1.2481278362902799e-10  1.4840323843097340e-10  5.9388595762128839e-11  9.9790314596699529e-11  1.0605192222978674e-10  1.2188999113095655e-10  2.1802603373627579e-10  5.4909544423863130e-10  3.1960259676239519e-10  1.6366755263397376e-10  9.3430064024850488e-11  5.9962479515507328e-11  5.9048328144605760e-11  6.8493087329896578e-11  1.7633272607874096e-10  2.1671523790673637e-10  1.0076699137183847e-10  1.0057817163658961e-10  2.2894184414387180e-10  1.3335986424533028e-10  6.7399859625820318e-11  5.6498407346624313e-11  1.0521166877808593e-10  3.2178190190884426e-11  1.7628385544581054e-10  3.2244332112995091e-11  1.5965870606904028e-10  1.7960486846424105e-10  1.5272405468931454e-10  3.8451254519029209e-10  7.7038485390137136e-11  7.8114063655692502e-11  1.3731923840909283e-10  2.9964018431871524e-10  1.4482870654862420e-10  2.5884104888345960e-10  1.0675893552923617e-10  1.3008618178363392e-10  1.4774467052491705e-10  2.7778800742921887e-10  1.2839426723680813e-10  3.2086421189013993e-11  1.1287526841076520e-10  1.0916570385072788e-10  1.4024707633256179e-10  2.4162458687255347e-10  1.6524172835613688e-10  3.3670204641785837e-11  1.2454503855489094e-10  2.3078534694118973e-10  2.6213265414271696e-11  3.2166440683061411e-10  1.6772789748852749e-10  4.7666248724626674e-10  1.1280580858953442e-10  2.2491893573005174e-10  3.1213425974068766e-10  7.1441814831518892e-11  1.0263247344532329e-10  2.1524328319994303e-10  6.7534267255644174e-11  4.9161879258073971e-10  1.6259315686506749e-10  9.3259373795126113e-11  1.0607449594620185e-10  2.0605885661873476e-10  5.6628236136976136e-10  5.0068015813102672e-10  1.7151108491221312e-10  1.6564943597775546e-10  1.9630494247742115e-10  3.7646373670570707e-10  4.3533232634692713e-11  2.1551858425164525e-10  7.7284855222189083e-11  1.2565961306163570e-09  1.1383880538783271e-10  4.4049106864142532e-11  6.2589768708800250e-10  3.3724706563826528e-10  2.4221595491263922e-10  2.0334227618390054e-10  6.0461636678048677e-11  1.4599039823824695e-10  3.1869960653893162e-11  4.2969247606821960e-10  7.6724954994389123e-11  1.2702368044821564e-10  1.2466439558282959e-10  6.2686431178781150e-11  3.4426406631690273e-10  4.0933271899933095e-11  1.1116885180156565e-10  2.4789366275363523e-10  1.7721780167899415e-10  7.4788737473447707e-10  9.0168360079454686e-11  5.7909493092396132e-10  1.4185939891578765e-10  4.0367947369995521e-10  7.3983296816501201e-10  2.4713561279159537e-10  1.5248194745000837e-10  2.7453748986040056e-10  5.3553295572008941e-10  3.3801405900168921e-10  7.0366930034374198e-11  4.7744393384241684e-11  1.6938354101382923e-10  3.7860229355365392e-10  1.7828402963680460e-10  1.1984072761693129e-10  1.6077140138940903e-10  7.7466245397126248e-11  6.7571255943410436e-11  1.9504352054539233e-10  5.5575273628332877e-11  1.9990395264550211e-10  9.0001991268840709e-11  4.9893135132426650e-10  4.7620943989807299e-10  7.9693273421490250e-11  3.9512184084178004e-11  4.0017584393277732e-10  6.6019554831252723e-10  2.5312999918008807e-10  1.1130969301035568e-09  2.9331778073793089e-10  3.2375005105529398e-10  3.0708585586553342e-10  2.7188363990825717e-10  9.4381829590786614e-11  2.9250049877246609e-11  1.8674648292497440e-10  9.8327096871045783e-11  2.0439276551452032e-10  7.4764852997367522e-11  1.1798491720598773e-10  2.4523134635645561e-09  1.7389141023587397e-10  7.8430612009047623e-11  8.0224790967260154e-11  4.2549245558299227e-10  2.4102580891026207e-10  1.8926936647480177e-10  2.0716871917345322e-10  4.2758958780120578e-11  7.9466908078421410e-10  2.3969836227988316e-10  5.3231840607274624e-10  2.4602177233474418e-10  2.2776265501856799e-10  3.0577691169851203e-10  9.3015577553191334e-11  3.1679477879786497e-11  3.4068156230061353e-11  4.4006306078145134e-10  3.2806604970272931e-11  1.0690362910522571e-10  1.0709614925262483e-09  7.2755848417916251e-11  3.3389882386780677e-10  2.5581963840862279e-10  6.0940363883257469e-11  5.7130219294364711e-11  1.8322446843917013e-10  2.5173505107236106e-10  4.6219269837080350e-11  1.0995354050855040e-10  1.5534826189762870e-10  7.4639693958100437e-11  1.6472036698697711e-10  2.3161845897391119e-09  3.5399159925409270e-10  3.1606527913025220e-10  1.0839028437489855e-10  1.0358313799176725e-10  1.7635039466735691e-10  7.4564222657904259e-11  1.2992701974989886e-10  4.7465912500081118e-10  8.3591543322499327e-11  2.2916593061469840e-10  2.0971676321262990e-10  1.3814614624924156e-10  4.7031459454747673e-11  6.9912421366281484e-11  4.9248516512085178e-11  4.9279729396689716e-10  1.0136869702037244e-10  2.1720986118157617e-11  5.7454141131450046e-10  2.8689238042787978e-11  6.1820615105572016e-10  1.1570395094444132e-11  5.1493588855767864e-10  1.7578101545557247e-10  2.4487753370368470e-10  9.7475620945383055e-11  2.6976851939442122e-11  7.9597882075383613e-11  2.6355496122824693e-11  1.9498164666937377e-10  3.7022695534006321e-10  2.6579177006714297e-10  4.4002621783317970e-10  2.2907924910317563e-10  8.8880446106145929e-11  5.8478088340525258e-11  2.7983897790251015e-10  4.9327351556133855e-10  1.0164158416374403e-10  9.5005879400474966e-11  1.3847488623828913e-10  7.3368977416947198e-11  4.3691955173859998e-11  4.8640215067300243e-11  2.8669683348709753e-11  8.5879617368857468e-12  1.6709730455172335e-11  9.0294715839290350e-11  1.9694882601917021e-12  9.6574726432313914e-12  1.9372768388643174e-10  3.5811268460285870e-09  2.0686167527732570e-10  3.8126935210886043e-11  2.1649441912437218e-10  8.9810006702540574e-11  1.0995822277543171e-10  4.2226576229530968e-11  1.5558985314114772e-11  7.9607049572035970e-11  8.8985792258506525e-10  7.6400070173145644e-11  1.8382677399385747e-10  3.2034265544015189e-10  4.9023625522489027e-10  9.4453538416514501e-11  1.0057179309536792e-10  5.6887793238934812e-11  7.5377887101073759e-11  1.0302448866634101e-10  5.3952683610989951e-11  6.0214004181207130e-10  5.8462844383635186e-11  2.8584844639690995e-10  8.3645062444236103e-11  1.2506493885701575e-10  2.9680462464361174e-10  4.0466419285352242e-11  5.7552276480773909e-11  2.6087081772708716e-10  1.0992600193059611e-11  1.0966384500994888e-10  8.6582990734127660e-11  7.4078152961342675e-11  5.5783714186903299e-10  1.6724002316680446e-09  2.8496368360226157e-10  2.9325551019656364e-10  8.8927314637184383e-11  6.7900735322406475e-11  2.4146980279114632e-10  1.1372024675291677e-10  9.4085598887100904e-11  9.8905848169308935e-11  1.8824867553073080e-10  7.1047813012122578e-11  4.9218830224127026e-11  6.5928448385479796e-11  3.7679802414831938e-11  8.2916230479319556e-11  1.9709293252176059e-10  1.6235616061554697e-10  1.1134074677244940e-10  2.7039394604774163e-10  4.4273057197123324e-11  1.3516223760654910e-10  5.3282838824377487e-10  6.2433682173567467e-11  1.1156511537949843e-10  1.3225483296845819e-09  5.7168416714099528e-11  3.5058034357895585e-10  5.4934585356270566e-10  1.5888766769927588e-10  1.2328872072416755e-10  1.2502157918957133e-10  8.4118181242870974e-11  3.3495192504828559e-10  2.9160247810997635e-10  1.7682850516798379e-10  4.7830640503750001e-10  4.2586771105789822e-10  1.1532597195551373e-10  1.9844461372787376e-10  6.4371254372294871e-11  8.1068080482136787e-11  6.0973367628908362e-11  2.2860726307132267e-10  3.9740357293675600e-10  3.0559004750532227e-10  3.2397162389668992e-10  8.2309756963476428e-11  2.5269618495172598e-10  5.1635500322183077e-10  1.6456842013859786e-10  4.5260055182778826e-10  1.7574187849678024e-10  1.3561381840620687e-10  1.0823817066343957e-10  5.0106954906118738e-11  5.2225920435753274e-11  3.2612395300760888e-10  5.9688818983591360e-11  6.2528890959920400e-11  1.2595671607730663e-10  3.1751634979203235e-10  3.2042135959480074e-10  1.5441797935458237e-10  1.1515384553791067e-10  6.7761810401747396e-10  6.4805369092482427e-10  2.2871920928499617e-09  3.3552601982476968e-10  2.5413569675523928e-10  5.1784119152813023e-10  4.4767290346929068e-10  1.9604205226381958e-09  3.1354850769055076e-10  2.3711345753560890e-10  3.1275996310247772e-11  1.2128474743587370e-10  3.1710866293656658e-10  4.6386086032428354e-10  2.2027585588327634e-10  6.6270151864613648e-10  2.9101542615148565e-10  1.9772634478412084e-11  4.7273364238582211e-10  3.4687963259000616e-10  3.7548095128965194e-11  3.2912607296970666e-10  4.0846042287578673e-10  5.3427755398452951e-10  1.4372688527740164e-10  6.6182154172877008e-10  1.8738246831673480e-10  4.5408921979576736e-11  1.2402171624851792e-10  1.2749806136717034e-10  3.2138098850025082e-10  7.4266024178639603e-11  2.5140103320584033e-10  1.8415705856926710e-10  7.3087398079113619e-12  2.5258371776927080e-10  5.5934854831113305e-11  8.8053421628805563e-11  1.2203800291171384e-10  6.6359727875172391e-10  4.5384213732563189e-10  3.1488149788413973e-10  1.1571971297897888e-10  1.2605902446318768e-10  1.0821692825882120e-09  7.3196953927187036e-10  1.3314513873321786e-10  1.4054175476420930e-10  9.1822842373511801e-11  4.8384131934029859e-10  1.3175559447251645e-10  1.6550917159796972e-10  8.9947261328068335e-11  6.8680535879818038e-11  6.2240972192184457e-11  1.4805761090345378e-10  9.5127897974811847e-11  1.2507474575415256e-10  4.0381328868602747e-10  7.2655941066267481e-11  6.5271776647384205e-10  1.1996058899740427e-10  2.2373141894283069e-10  2.6409524029467760e-10  6.2436669989224201e-10  1.1123776771514557e-10  3.8706087171331766e-11  5.8972108341515558e-11  1.4016369574842235e-10  1.5492625299776292e-10  4.9919711698321739e-10  8.0690660845063328e-11  1.5027326747305859e-10  2.3612951259518713e-10  1.3460867780100168e-10  2.3043660491677452e-10  3.2459099549014737e-10  3.1624410609998997e-10  9.9823901583101166e-11  1.7443772396292496e-10  1.4607875683121946e-10  2.2129618290049493e-10  4.8822919012644633e-10  3.7621159181762686e-10  2.0199862788094925e-10  1.8862355788081097e-10  1.1789549474615525e-10  1.6438219753726174e-10  3.0596529629791748e-10  3.7911308660833099e-10  3.6068587572166975e-10  1.6625611515799860e-10  2.1684404969098310e-10  1.9079293168803646e-10  1.4316228350771680e-10  3.9058775954926240e-10  2.9508260377515823e-11  1.0257798345568863e-10  1.2622842331114292e-10  6.1440448229257847e-07  3.9819362291096598e-10  1.7132064593866852e-10  6.0598883698241881e-11  2.5699976781203914e-10  1.3536582618847564e-10  6.0658049758463467e-11  1.0080932820664475e-10  2.0213070058840515e-10  2.0017425613336555e-10  1.8783572172263672e-10  1.8222278514724367e-10  2.9369740995011203e-10  6.1092470942495674e-11  7.7404922226810000e-11  1.8412358260753655e-10  1.2151148862574508e-10  3.3553241539890982e-11  3.8693676914520701e-10  6.0966806983887190e-11  5.9277403681302149e-11  1.9106881626344845e-10  9.3280973887105078e-11  2.3249653970146340e-10  2.9360250945089870e-10  1.0315003498927988e-10  7.7022447210987298e-11  1.7543429087004650e-10  9.2624354105859762e-11  3.0273268965439653e-11  8.4756928415278670e-11  5.7027598579439843e-11  7.8067314102519804e-11  3.0546531022451096e-10  4.4388914201568291e-11  6.2428293035149297e-11  9.0478879549598522e-11  8.8483909955752205e-11  9.0278656850856923e-11  2.5490506718129662e-10  8.5379541962402755e-11  1.7962501664639292e-10  2.0533955722589965e-10  1.0129630760239145e-10  1.5784445810679442e-10  3.1165970193650451e-10  1.1756240659339408e-10  6.5792188251327128e-10  1.6375221978477096e-10  1.4378338389406591e-10  1.4140870660382036e-10  2.1029644359261709e-10  4.2294860254441291e-11  3.8005417313759187e-11  7.3286539123946861e-11  4.3916210300518553e-10  2.0700777745422286e-10  6.2871300477702751e-10  4.5217259641966339e-10  1.1734805322182572e-10  5.6969319045461243e-10  3.6150791395335166e-10  1.8302991484113957e-10  6.7766598436700262e-11  8.8901292622116704e-11  1.7366017890507077e-10  1.8927557440081521e-10  3.8604970232231158e-11  4.7354607068874641e-10  2.7238623239653247e-10  2.9709446824055056e-10  4.9571591051836059e-11  3.4124677060715576e-10  2.6049096057992013e-10  5.4745177314620496e-10  7.1547175427484852e-11  5.8127010795202007e-11  2.3662607185226569e-10  6.9069198931836463e-11  3.9874519375538684e-11  1.3713930180102426e-10  2.2951137066653796e-11  6