<?xml version="1.0"?>
<VTKFile type="UnstructuredGrid"  version="0.1"  >
<UnstructuredGrid>
<Piece  NumberOfPoints="4852" NumberOfCells="9430">
<Points>
<DataArray  type="Float64"  NumberOfComponents="3"  format="ascii">-1 0 0  -1 -1 0  0 -1 0  0 0 0  1 0 0  0.9999999999999999 0.9999999999999999 0  -1 1 0  0 1 0  -0.5 1 0  -0.9999999999999999 0.4999999999999999 0  -1 -0.5 0  -0.5 -1 0  0 -0.1608775713298009 0  1 0.5 0  0.5 1 0  0.1967448868031411 0 0  -0.3403821981063528 -0.1755814897074162 0  -0.3362765805838263 0.2239314439513621 0  0.1739647227662351 0.3456841235015149 0  -0.1847521624618633 0.5545733805373728 0  -0.5039718939553017 -0.5373153047398088 0  0.490454643024819 0.2567888549210174 0  -0.06408456657112611 0.2006596333827311 0  0 -0.5061325913258391 0  -0.25 -0.9999999999999999 0  -0.5609901624664946 0.5773118278613975 0  0.6615578904550856 0.6339593610775115 0  -0.177375894860799 -0.5374588432882722 0  -0.5384748091448939 0.02535924649628519 0  -0.9999999999999999 0.25 0  -0.2057430162619735 0.0236896243719926 0  -0.6540934561142041 0.3092678588808743 0  -1 -0.25 0  0.03933170895768672 0.591279881948123 0  0.1951082958774794 0.1285938167449298 0  -0.136482096493603 -0.2196115799750723 0  0.3710483555569182 0.6142142517122927 0  1 0.25 0  0.5355652144809806 0 0  -0.75 -1 0  -1 -0.75 0  -0.644920393251617 -0.3229242588148298 0  0.25 1 0  -1 0.75 0  0.02757118475249542 0 0  -0.25 1 0  -0.75 1 0  1 0.75 0  0.75 1 0  0 -0.02898318711980711 0  0.05430563374118783 0.1419796199570195 0  -0.07753984388786561 -0.0278002723373932 0  -0.7008098859872181 -0.1323801089256017 0  -0.321706763637804 -0.3469439003601977 0  -0.3398319956680471 0.436997125495582 0  -0.0998373365713715 0.7640142075312176 0  -0.3830979887641741 0.7022762257620009 0  -0.05457077293517065 0.3984369012820578 0  -0.07868706818853272 0.07179862413448837 0  0.3588511338732418 0.369091037555613 0  -0.7161953524051433 -0.7300922100199903 0  0.4118142033272239 0.08977567464913984 0  0.6899676765708114 0.1914587289924467 0  -0.7472849176586575 -0.5271440995234034 0  -0.3880802233589182 -0.710424126104148 0  0.7216015093466637 0.418452414453602 0  -0.7756607428223541 0.09691755264413653 0  0.1967677258867269 0.6983167068054625 0  -0.1982650995990577 0.2880377537383797 0  -0.7987534067277289 0.5773905606581278 0  -0.7165405828115062 0.7662921814781825 0  -0.05500146223414042 -0.373205100423238 0  0.5848764850464582 0.8163885782069421 0  0.8204827086756156 0.8062090771920094 0  -0.1055442305289331 -0.6971914543125709 0  -0.5140681700019943 0.162479362750316 0  -0.201382789890725 0.1253540245652704 0  -0.358646466330622 0.07515449910701756 0  -0.3646634253672437 -0.05239406496888487 0  -0.4962144581723238 0.3948308829013515 0  0.375 1 0  1 0.125 0  -0.01174791118123942 0.0710815578189882 0  0.06229502115180759 0.3913339486327161 0  -0.1711407526063567 -0.1222679715500937 0  -0.2426973411480239 0.7734161859219961 0  -0.625 1 0  0.5333291694506146 0.4539456712225916 0  -0.5763791267960225 -0.8300305191120168 0  -0.258063293966757 -0.783473885256551 0  -0.320197495404668 -0.5081139391601217 0  0.8339234000802807 0.5955254625557773 0  -0.5487426193797638 0.7905393367690846 0  0.125 1 0  -0.06733843517262328 -0.09336297754114554 0  -0.494107094701455 -0.1431768015887398 0  -0.8749999999999999 -1 0  0.02959173827256816 0.04151849099984423 0  1 0.375 0  -0.8750000000000001 1 0  0.05740434147177419 0.7936978042110744 0  -0.1967845661601837 -0.3732267759011664 0  -0.07256245110060827 0.5706518613091215 0  0.2364380631381792 0.5175121265544874 0  -0.7920209404521233 0.2294966361237636 0  -0.4950741677705139 -0.3888287406968297 0  0.0003176564473663022 0.270716477833101 0  0.5099144108469335 0.6401044083275222 0  0.3989459218284047 0.8072191851942778 0  -0.8059592956255843 0.424430196989233 0  -0.06461650158691387 -0.2202854318261858 0  -0.7092781007333149 -0.01419671313525126 0  0.09052921824096385 0.05235102809349376 0  -0.4778650793083954 -0.2510589516098224 0  0.7238677797712872 0.0828146947987531 0  -0.8084136553783384 -0.41107657531095 0  0.3374963998713905 0.153309224027249 0  -0.7942978130408912 -0.2507118383330067 0  0.2362977078519807 0.2539671740534628 0  -1 -0.875 0  -1 0.875 0  0.1843185745645081 0.04778594868083289 0  -0.2473939462008611 -0.2288323801187133 0  -1 0.3750000000000001 0  -0.1707347261818234 -0.04176091214460324 0  -0.6485142733590074 0.4674303719043658 0  0 -0.07736776745332727 0  0.08052297915573807 0.2594853272436066 0  -0.375 1 0  -0.2164526672531442 0.4243715787251017 0  -0.1197170358559229 0.1498611470209346 0  0.1332776573451352 0.5538396958315116 0  0.1319888367106715 0.1934571436154648 0  -0.4743111138963086 0.2693202571501543 0  -0.04606914549941914 0.01387918959826891 0  0.8513768890239723 0.3701969786666931 0  -1 -0.125 0  0.2857094537858264 0.836668885064397 0  -0.1104085070329525 0.3126208231211031 0  -0.125 -1 0  0 -0.7575037395175259 0  0.07821397079968176 0 0  -1 -0.375 0  -0.375 -1 0  -0.625 -0.9999999999999999 0  0.7474787146812757 0 0  0.625 1 0  0 -0.2918843213980812 0  -1 0.6250000000000001 0  -1 0.125 0  -1 -0.625 0  0.3284075310660084 0 0  0.004929205892015135 0 0  -0.125 1 0  0 -0.006571003003944568 0  0.9999999999999999 0.625 0  1 0.875 0  0.875 1 0  -0.5629595870857543 -0.676372196271943 0  -0.004522535609296715 0.1599486570410451 0  0.3623125750194531 0.2628144746170862 0  0.6529753793397718 0.2937593376295942 0  -0.8547921515869807 -0.6468294852290287 0  -0.8631584899210352 0.7868709492737406 0  0.4304123288379864 0.5011283487913418 0  -0.398650335822437 0.8555622776374091 0  -0.7789079798463316 -0.8749447970422778 0  -0.8706758742752109 -0.7845326426982631 0  0.1541963932506486 0.8420638732497203 0  -0.658169611440343 0.1526113900848923 0  -0.5772907415731584 -0.06411674434245082 0  -0.8543759101047295 -0.06262887552650241 0  -0.2956710707867077 0.5619210311020943 0  -0.4234885382346937 0.5697287807074727 0  -0.3755807997297397 0.3307389716214177 0  -0.6181797759604525 -0.2162746663988631 0  -0.2724959613688346 -0.08997908227685755 0  -0.6401806298950545 -0.5885768874693829 0  0.8596955647839412 0.2660025777526462 0  -0.03275054188703251 -0.03293999922091821 0  -0.05454137516143961 0.1143746910933072 0  -0.1333775865348081 0.4316639954099025 0  -0.1195222490021961 0.03231482164538726 0  0.5377756509467942 0.06456091795026522 0  0.5792157910975834 0.3590840103454481 0  0.6916014210529724 0.7749294261323338 0  -0.7932154568155962 0.8809586967676614 0  -0.643184471519254 -0.4291734053280021 0  -0.1182898797536617 -0.3967210455893787 0  0.872132081184244 0.4888179671751482 0  0.07600371256113833 0.09369426299667193 0  -0.6646282288027653 0.8678280830136048 0  0.454580576283683 0.3503585031773612 0  -0.02620098536043569 0.03576096046046028 0  -0.4092420747005023 -0.4399861953504502 0  -0.3617072851077205 -0.2685368160396004 0  0.3234767999438937 0.4814902982311571 0  -0.1956709141845581 0.2012381522643656 0  0.7056674101922108 0.5310021137040012 0  0.2617559213047835 0.3557714120225165 0  -0.3771241339916016 -0.8516839475728952 0  0.1093402109990446 0.6818520737252539 0  -0.2855842507284246 -0.611769363215002 0  -0.4416021392821559 -0.6199606790323287 0  0.296184455425824 0.6921881473780747 0  -0.8748806376019993 -0.1747988871734282 0  -0.1799607391866216 0.8546826920626922 0  0.4547163920656084 0.1632328359145594 0  0.2802712502025124 0.04663027820121419 0  -0.1421521290537425 0.6573534107593393 0  -0.01120105725829047 0.7085360320187306 0  -0.05329807453785691 0.8747868165565662 0  0.005587431753072799 0.4695625150255107 0  -0.387209643682697 0.153327054897612 0  0.549170420718472 0.1331338468008875 0  -0.4758682570371499 0.682287570862447 0  -0.8513206003744943 0.3329666605295591 0  -0.09355631478210075 -0.53612086634112 0  -0.03237966655387867 -0.5520421348792013 0  -0.213914477534175 -0.2873314370238059 0  0.8685081933402161 0.1515078436716163 0  -0.170233906403984 -0.6608729800114027 0  -0.8893034187673785 -0.5286810262882926 0  -0.2813464976763435 0.338018379581354 0  -0.6761489284786436 0.5741759899551222 0  -0.8973967329155469 0.5314950741742344 0  -0.8982039673183995 0.6608674365077278 0  -0.6441270470068494 0.07230069884448216 0  -0.8589481932883057 0.02850058974138018 0  -0.8880312854353831 0.1680154190030834 0  -0.1298261990394451 0.2286967864601543 0  0.1604015376816665 0.4458784829132103 0  -0.04351249720626585 -0.1257398573609465 0  -0.7533330475264703 0.670226875921866 0  -0.6023951572118409 0.69807249715832 0  -0.2540288774700295 0.07840732989013026 0  -0.24914614488931 0.6486690867031027 0  -0.02736969850214043 -0.006376481018136469 0  -0.4945274719280581 0.8768049034155759 0  -0.4765984850162183 0.4904252470189884 0  -0.2900661675936922 0.1438914651313471 0  0.002318264262553048 0.02358085404598821 0  0.7795841750229779 0.6840607149423862 0  -0.470387529607928 -0.8246286651625265 0  0.271910090151778 0.1947908591006638 0  -0.1486053084342528 -0.8631259020422645 0  -0.0649275643693627 -0.8294648828740571 0  0.4434877978619842 0.7059775000269864 0  -0.1181252668172441 -0.2879017536255126 0  -0.2645621755868423 -0.02620184439107718 0  -0.8939405188393069 -0.896653613349098 0  -0.5726319031834198 0.2371504655279815 0  -0.4758170073904529 0.08748688005798563 0  0.4913640135817817 0.8257852880454304 0  -0.02881954538522291 -0.2598847224633528 0  -0.3100128999781252 0.8751218191026436 0  -0.142736441881999 0.08040552958647024 0  -0.4689615466560915 -0.03495530907969414 0  -0.3875755228455141 0.01203451622141694 0  -0.2913478995473159 0.02748504118312829 0  -0.3846070305039629 -0.1203909291327779 0  0.8881313247633706 0.6984742016504139 0  0.7929113658923992 0.9108485243612147 0  0.5766341357911127 0.2078079958357359 0  -0.5602274564745143 -0.4692773664273961 0  0.5990178756705837 0.7061629322763409 0  0.6785113525819652 0.8883401695916802 0  -0.0507911478102971 0.3028505027810786 0  -0.9020863128027055 0.9046041618692587 0  -0.127313281986823 -0.06709218106571468 0  -0.16898621249189 -0.18236777
[...]
<PointData  Scalars="w"> 
<DataArray  type="Float64"  Name="w"  format="ascii">1.7614385440992002e-10  1.0347871864578114e-11  4.4492419400494735e-10  2.5816388390658649e-09  6.2423500931392628e-10  1.5718095600813078e-12  8.6847351115182210e-12  7.5560819074252666e-11  4.0963330783606214e-11  2.1286875545512205e-11  1.0662542940765032e-10  9.5846564333131409e-11  4.0298943918063062e-10  2.7731608796253337e-10  9.1664692357507846e-12  5.2444487544925462e-10  9.0754647643599428e-11  7.2396063918431842e-11  1.3060175532788577e-10  3.5732494301185927e-10  6.7553496768639119e-11  1.0513376711074653e-10  5.7430365430646439e-10  2.4338448934998857e-08  5.7935143239292291e-10  1.0874009165824206e-10  8.9081404490587845e-11  1.7122146175047736e-10  7.6776738080090764e-11  1.9048372715443245e-11  4.6829011853136591e-10  9.8378594443740358e-11  2.4219393467736784e-10  1.8094481684884787e-10  4.5248155506800590e-10  2.2529207767637122e-10  7.8117937736523080e-11  4.7711741025353452e-10  5.8665690758109611e-10  3.1330706416888899e-11  5.2161306450550625e-11  1.0767307044376880e-10  9.2648533565324167e-11  1.9980225892778099e-11  1.0470360620772265e-09  8.9129227732192354e-11  3.2428137733924085e-11  9.5523059905021525e-11  1.2604391122779690e-12  5.8784301898648053e-10  2.2059965506385579e-10  2.1331085018096525e-10  8.2310362066615621e-11  2.5196273597238504e-10  2.6384380033780848e-10  2.0290424887741267e-10  3.5580879025334487e-10  8.9588178030385309e-11  5.7786307765128463e-10  2.5248054597952282e-10  3.0877497589439311e-11  3.1469015867801015e-10  3.7885579559384853e-10  1.4483110683850227e-10  5.4145208509880180e-11  1.7866530916673034e-10  7.1268112916150116e-11  1.7682072043678442e-10  2.3302922631899442e-10  4.6075750752080975e-11  6.3695459291699756e-11  4.2856806920233535e-10  5.6780091593171396e-11  8.7351250256984697e-11  1.7433749492669716e-10  1.7103817562155385e-10  2.5747339387832408e-10  2.9183014034208821e-10  1.8262844031427954e-10  1.9462941450417409e-10  6.5457728475300157e-11  2.5218615914361287e-10  2.6184624414943624e-10  2.0177042680360973e-10  2.3430867875071155e-10  1.2447673118685563e-10  4.7128293405018363e-11  1.1082803395146930e-10  9.3910916151683289e-11  2.5368996523571409e-10  6.9552155215539297e-11  9.9728743188030747e-11  7.8116336676726517e-11  9.5000010266414998e-11  3.8971074510151140e-10  2.0949955007243296e-10  2.5339391087155294e-11  6.5067006003060180e-10  2.5772185452436009e-10  3.1753013745107908e-11  2.7715200503368492e-10  4.1088735256967023e-10  7.1515395901238390e-11  9.7891485191432841e-11  1.5839863675013153e-10  6.4144408928616798e-11  2.7364398739001080e-10  8.3937698591163920e-11  1.4616806000929760e-10  6.5975523394833891e-11  3.1283511700771715e-10  2.4604128723487110e-10  2.3118690116175423e-10  6.4189293670611863e-10  1.2083103142584874e-09  1.5151511629854795e-10  1.6454931627047070e-10  1.0378432545527877e-10  4.5800850520543011e-10  2.5635986168222433e-11  2.5832994232038928e-11  2.7742969706060852e-10  9.1168135542456331e-11  6.1463329643312569e-11  5.0147429823437332e-10  5.7880936541550457e-11  5.9573090956712841e-10  1.1896431916508435e-10  7.7637824197298086e-11  8.3197458875709219e-11  3.4206139634584748e-10  1.7458881997366108e-10  4.6392301285414876e-10  1.3635296744734192e-10  6.1796439827318195e-10  4.4464936120379895e-10  1.0945728482488142e-10  5.2338837679367797e-11  1.3030833343598108e-10  2.6027659128634884e-10  3.6370334685526857e-10  6.0269797873264535e-10  9.2239236557070569e-11  1.1864216917271986e-10  6.8403133282324042e-11  6.5603621514097943e-10  8.5915922855135153e-11  3.3876563692542015e-10  1.4832943038007847e-10  1.2525401541180745e-10  1.9922183509078160e-11  2.8303751642193829e-10  1.5703392360387556e-09  5.7771527650459576e-11  9.5841350137331884e-10  7.8867796108854515e-11  2.4192951018648499e-11  2.4099417238922812e-11  1.2203368055523981e-10  5.5934271750439379e-10  4.4698452078026031e-10  1.6102027115020128e-10  1.1402862774728627e-10  1.6764643416756263e-10  1.8846889608720893e-10  5.9133434171382477e-11  7.7077769638472596e-11  2.0428296784194152e-11  6.0432603798843940e-11  2.9456607481955627e-10  9.2823466010274908e-11  1.0637867040951189e-10  8.4045719131223739e-11  9.6880999844316868e-11  5.3692861882836673e-11  9.5979334805528466e-11  4.5570696986594521e-10  5.6688876471646802e-11  1.6417537341087326e-10  1.7098635330791059e-10  4.6362875186526043e-10  1.9860735480799039e-10  2.8257247617974918e-10  1.4289991099096688e-10  1.4522410518473277e-10  1.4973861452179184e-10  2.1030497432900964e-11  2.8421659637750879e-10  6.4292973960577436e-10  2.5659097458429358e-11  2.5138424918532809e-10  8.8897158776807083e-11  1.5820607306868542e-10  1.1045059768591433e-09  1.3737331204226579e-10  1.6311306125207310e-10  2.3366200942157768e-10  2.8816237502405281e-10  1.0587193009507067e-10  2.0462616885134936e-10  4.1766065496142464e-10  2.1778159581533701e-10  2.3945070651961182e-10  1.1024806154777244e-10  1.1257793279650484e-10  1.1355874095687839e-10  7.1289872404629766e-11  2.0814929130598567e-10  8.8263128051775023e-10  7.8677910311209104e-11  1.0955871556018518e-10  7.7913223606361438e-11  9.7142292286686342e-11  1.6308420103196035e-10  3.7738019778573692e-10  7.8852543590188836e-11  8.5040504474664157e-11  7.5558434678816639e-10  8.1009935752412039e-10  2.9269680764440022e-10  1.9989999934344134e-10  7.8622316538007642e-11  8.0744146851976605e-11  3.3649707427946729e-10  5.8877867355773584e-11  8.3051339469390777e-11  5.0262381662482375e-11  9.3492753365670335e-11  4.1617095608415858e-10  9.1207979090879805e-11  1.9792497835586405e-10  1.6599154484625361e-10  8.9847453277336218e-10  6.1731769141086985e-11  1.9922833041429398e-10  1.1552119269575262e-10  1.1281723092717850e-10  7.4492155218400303e-10  7.4912364466732160e-11  8.5262309880817776e-11  1.1819849037507847e-10  1.1055325538048468e-09  4.1013183847924950e-11  7.7947670534270515e-11  2.7842782309665965e-10  2.5662143666571492e-10  3.5025297482726786e-10  1.8240271314257168e-10  2.0665056501927206e-10  4.0395336776263077e-10  2.9278569936679211e-11  1.0565248943096368e-10  1.2867756459266659e-10  3.7750630821385948e-11  2.6217818098438616e-10  4.4585460106966926e-11  3.3165763756060715e-10  1.3666332469486897e-10  1.1063961789252608e-10  1.9178492058065761e-10  5.0210842567078759e-10  7.2969751741572769e-11  2.6765446477067096e-11  1.4520574256893089e-10  8.2126173431028940e-11  5.9489401935951260e-11  7.6078410526263470e-11  1.7962837639628326e-10  4.9890170495446487e-11  2.6267263048246164e-10  2.5420661707307531e-10  1.2861453824199128e-10  1.2835038664081204e-10  1.3451701890802541e-11  7.1488768309891885e-11  1.4610528392382180e-10  1.6921913145056102e-10  4.9622817526253099e-10  3.7317231434685200e-11  8.2871399748900473e-11  3.3602089170809814e-11  2.3828250752230909e-10  1.2659654506762090e-10  1.8503568330559460e-10  7.5242419329958337e-11  8.7871232473501773e-11  1.2076662732771532e-10  2.0389291127348596e-10  2.2355795428866649e-10  2.6229793860994437e-10  4.3619776960175172e-10  2.1453620889180099e-10  2.0964367749334648e-10  1.4659870717964308e-10  8.0084954867352044e-11  1.7041869245930681e-10  1.6698541191182407e-10  6.2376836481100201e-10  1.2868781074691146e-10  6.3100666849361477e-11  4.0701368666460973e-10  1.8968997059101635e-10  2.0806043830298810e-10  1.2514433687966431e-10  3.2440489060364873e-11  4.4986261932557727e-11  9.9209728709518549e-11  6.7694949586596406e-10  2.9241092308277563e-10  1.8195514351490019e-10  1.3710166736991032e-10  3.3526976951435211e-10  6.7368708619427416e-11  1.0938310902629613e-10  3.5179714141394727e-10  1.1185199871695355e-09  9.9394147133921176e-11  2.8193397788827270e-10  6.1237299796856741e-10  1.2260044736925115e-09  1.9697423208319054e-10  1.5234702810356286e-09  4.1784652227463813e-10  2.2576890620453914e-10  1.1647597232190227e-10  4.2111340851113444e-11  6.6551447458174896e-11  1.2617330056498130e-10  1.5751840827340100e-10  6.4419341396311857e-11  9.9010684805998349e-11  1.0709924788133120e-10  1.2887790780144706e-10  1.9221955575075343e-10  4.9627178896726748e-10  3.1892432201149659e-10  1.6626841327606400e-10  9.7024668834463548e-11  6.2163411821980548e-11  5.9678792090216655e-11  7.0394268648054273e-11  1.8308502666259803e-10  2.2466234521446935e-10  1.0641576132987383e-10  1.0608308137175309e-10  2.4037813899274102e-10  1.3726892429406620e-10  6.9749839226428423e-11  6.0199959849984255e-11  1.0573738920207403e-10  3.4392889090645816e-11  1.8631472872251217e-10  3.2810502387278848e-11  1.6094874063824307e-10  1.7910623652993418e-10  1.5126715226742886e-10  3.9511394781043696e-10  8.0117108543525415e-11  8.4188893493025956e-11  1.4422561249769462e-10  3.0550089046510273e-10  1.4311793573267889e-10  2.6346941617574791e-10  1.1164193491008575e-10  1.3573962356477094e-10  1.5673333856568378e-10  2.8179139165668313e-10  1.2755814342524021e-10  3.3714039569749085e-11  1.1695926738406332e-10  1.1246202437158351e-10  1.4936461903293117e-10  2.5209609163119396e-10  1.7039522124828659e-10  3.5312108551565080e-11  1.3063122428081719e-10  2.3144091144767068e-10  2.9445169309355231e-11  3.3022128619049680e-10  1.6379063471836188e-10  3.8778432544377373e-10  1.1269482074637162e-10  2.3540589032441182e-10  3.2641971155753761e-10  7.6151036939998374e-11  1.0631679676416210e-10  2.1888758253644190e-10  7.3169334282712027e-11  4.8277013501533465e-10  1.6008360091551519e-10  9.8768697005274494e-11  1.0874928728111822e-10  2.1046140778899729e-10  5.3907448935672389e-10  4.7683806686186046e-10  1.7840345268197082e-10  1.7162194935275865e-10  2.0791391157430488e-10  4.0411336607563078e-10  4.5965089912871237e-11  2.2532918286661691e-10  8.2794845466543389e-11  1.2386604832598166e-09  1.1884871359511270e-10  4.6289000742758941e-11  5.4836649187214590e-10  3.3052123527194031e-10  2.4700943392589137e-10  2.0965502157814873e-10  6.4606070494648762e-11  1.5455153258495225e-10  3.3527540910287676e-11  4.3759549494993356e-10  8.2533591573392679e-11  1.3974400066295676e-10  1.2815719708683887e-10  6.6263851286455288e-11  3.4993446571709175e-10  4.3800542002170505e-11  1.1840522027031204e-10  2.4287912915790056e-10  1.7872783447029570e-10  7.1074537266480288e-10  9.2911238573986465e-11  5.7426265091675833e-10  1.4729330020740373e-10  3.5316174069120158e-10  5.4780317905102264e-10  2.4357356812388003e-10  1.5599683352792239e-10  2.7194056145358206e-10  4.7953181770129055e-10  3.4856938562177013e-10  7.6209767923892775e-11  4.9042851283851102e-11  1.6349321287190967e-10  3.5605986388034500e-10  1.8598053647102317e-10  1.2609725568626262e-10  1.7233468108013136e-10  8.0706015557031520e-11  7.1158485764133217e-11  1.9969876477997634e-10  5.8219613543998739e-11  2.0816632081854191e-10  9.1071476538580762e-11  4.7843733601042477e-10  4.9249067792680968e-10  8.2278835627407323e-11  4.2275996279523817e-11  3.9476122998326809e-10  6.4807619330084737e-10  2.5924317874884944e-10  9.8250458320436576e-10  2.8804047111072680e-10  3.1683007563278640e-10  2.7170704721518431e-10  2.6555723929766733e-10  9.7993546118107608e-11  3.1341708859840407e-11  1.9471648069393217e-10  1.0764605086826115e-10  2.1668150766254313e-10  7.5303252518796595e-11  1.2147751259917708e-10  2.0369197441132074e-09  1.7704969243947240e-10  8.1251399246899626e-11  8.2156489783094845e-11  3.9856993120060871e-10  2.4340190631298318e-10  1.8984579803177331e-10  2.0892917794252263e-10  4.4416869288450354e-11  7.5532407154697867e-10  2.4175808398616520e-10  5.3431247314626224e-10  2.5163048947808295e-10  2.4382206069540063e-10  3.1270714561660881e-10  9.4743807975483532e-11  3.2951070219169372e-11  3.5917664621524364e-11  3.6720913763375066e-10  3.6717163440936213e-11  1.1810008850829068e-10  1.0186520773178865e-09  7.5103489598252196e-11  3.5127989526509939e-10  2.6335317939866836e-10  6.2042409776634799e-11  6.0224666689100883e-11  1.8031910552586839e-10  2.4485113136046468e-10  4.8117335437961442e-11  1.1396568943357666e-10  1.6109553362206326e-10  7.6017648533757870e-11  1.6915096487455572e-10  2.1186801445801377e-09  3.3595781912647189e-10  3.1944433944776624e-10  1.0712068577509513e-10  1.0721314197319940e-10  1.8862739452363180e-10  8.0450963720512206e-11  1.3427488587988017e-10  5.0155401671943861e-10  8.7677338938548568e-11  2.4287463959425984e-10  2.1388215796139875e-10  1.3874395662931602e-10  5.0851243439517350e-11  7.8023215252799159e-11  5.5307862326380054e-11  4.0361208273918945e-10  1.0743783367342193e-10  2.2068437108635427e-11  5.7057903612063147e-10  3.0674581568697286e-11  6.2069105585018130e-10  1.1803114027464366e-11  6.1803496421852502e-10  1.7312069463571233e-10  2.5097089903724525e-10  1.0489973770596243e-10  2.8905139414059381e-11  8.4524914959921558e-11  2.8140555703154085e-11  2.0450025849867247e-10  3.7254934943091667e-10  2.7162190577644864e-10  3.2715049099166978e-10  1.3418148037243639e-10  9.5491247942174228e-11  6.4189346401052895e-11  3.6069800352454606e-10  5.0312196026545659e-10  1.0513295502453874e-10  1.0084801400230413e-10  1.4777658022511769e-10  7.5693627639961289e-11  4.6313204540362709e-11  5.5538483926227354e-11  3.2574258064794912e-11  8.8288964427875712e-12  1.7789118176274368e-11  9.7752922258618838e-11  2.2521763968863469e-12  1.1049682741581388e-11  1.8602721847842122e-10  3.4899550864985288e-09  2.2616434719063887e-10  4.2156583576504146e-11  2.2180377096895282e-10  9.3002232275232042e-11  1.1213922115150813e-10  4.3557201982202676e-11  1.7256144619771498e-11  8.9046040938823868e-11  7.2524496890464442e-10  7.9591148512520329e-11  1.8313891813306817e-10  3.2436499051069470e-10  4.8130267430073171e-10  9.6523171833186482e-11  1.0224408396122739e-10  5.8831244279056888e-11  7.7557330977103568e-11  1.1257137167126597e-10  5.6876402702212549e-11  5.9864739099171661e-10  5.8999819655404469e-11  2.7701554823229711e-10  8.8775352205156904e-11  1.2807524116860756e-10  3.1128159091583518e-10  4.1828633470865150e-11  6.3899361660164491e-11  2.8737197133135350e-10  1.1872766940507545e-11  1.1306511830388914e-10  8.9219258347060714e-11  7.7374578973563954e-11  5.6120606741124019e-10  1.6148332778939870e-09  2.9313657551920134e-10  2.8885083027636499e-10  9.1216163051212158e-11  6.9564594965641089e-11  2.5561589661614957e-10  1.1689707121549278e-10  9.9351394078270843e-11  1.0524639612285471e-10  1.9822917428641459e-10  7.4135733984260596e-11  5.2112832300754322e-11  7.0240294959199294e-11  3.9480507867680039e-11  8.5896910689469628e-11  1.9107036269530957e-10  1.6169198253287203e-10  1.1160698811432658e-10  2.7310536831292647e-10  4.6889693677892105e-11  1.3719824913717231e-10  5.2098442079688630e-10  6.7107248339185632e-11  1.1918928579210086e-10  1.2845522503515836e-09  5.8086769289070594e-11  3.3462441649936355e-10  5.1088185118900561e-10  1.5823999241775579e-10  1.2872432518369182e-10  1.2592077877840036e-10  8.9868348473460823e-11  2.4707326407144357e-10  2.8601728371997638e-10  1.7698571172395415e-10  4.6724470295393102e-10  4.2252467686231758e-10  1.2197253006833013e-10  2.1062878792918414e-10  6.6568737415084851e-11  8.4914595472322628e-11  6.2845852753537787e-11  2.4045258077015173e-10  4.0117201575206915e-10  3.0761910009499781e-10  3.2393311421666819e-10  8.6293919662607149e-11  2.2709234335559223e-10  4.7890980331598819e-10  1.7034159440971500e-10  4.8319504137039248e-10  1.8479621525418282e-10  1.3745757910239942e-10  1.1174171903399244e-10  5.1206121834119921e-11  5.4374582256974214e-11  3.3497864595582729e-10  6.3109142545067962e-11  6.4313941432666774e-11  1.2890675167213756e-10  3.2231045297729205e-10  3.1904904477328958e-10  1.5756863220805773e-10  1.1769619402629018e-10  5.8919262045001427e-10  6.2567853414093265e-10  1.5939867741890354e-09  2.6710083316161930e-10  1.9836847131819140e-10  4.4164766870817527e-10  4.5551553445993968e-10  1.1631527511001152e-09  2.9543145836497761e-10  2.4674449081960039e-10  3.3417950867179757e-11  1.2971842393019489e-10  3.2402344244736512e-10  4.8467497712396549e-10  2.1236979767784672e-10  6.6054275758636893e-10  3.0547445341058747e-10  2.1700504813412337e-11  4.8153799849470195e-10  3.3562490073729217e-10  3.8947636214594404e-11  3.3458455122456676e-10  4.1385195627003388e-10  5.4525345368443452e-10  1.4586451726184042e-10  6.7204404727704781e-10  1.9655546440368064e-10  4.7741841539179902e-11  1.2811800443122042e-10  1.3327135679457341e-10  3.1871954679489611e-10  7.9255836372315409e-11  2.6337287259338261e-10  1.9720381939085247e-10  8.2248742337895682e-12  2.5691660923801029e-10  5.7987896685395224e-11  9.0916149087729950e-11  1.2412362791978352e-10  6.3156624564895756e-10  4.1097232304462795e-10  3.0348016005876892e-10  1.1783207630440782e-10  1.3193892108245691e-10  8.9579568240223924e-10  5.3770657612970873e-10  1.3462420800966379e-10  1.4222962964611623e-10  9.3643359231095683e-11  4.8769233652235474e-10  1.3877969080832164e-10  1.7525837728740557e-10  9.5196034312033571e-11  7.1113448792165037e-11  6.3540158101372401e-11  1.5071230405879964e-10  9.8929717384466530e-11  1.2849609945365224e-10  4.2983645340775783e-10  7.7667422454017130e-11  5.9412594604092328e-10  1.2541633334011246e-10  2.2456659262734947e-10  2.7897061879223808e-10  5.4775690830907767e-10  1.1711450869170160e-10  4.0643658915972713e-11  6.3284934454360583e-11  1.4258567985452621e-10  1.5990667720797276e-10  5.1581976202415061e-10  8.4545395431858634e-11  1.6434955577170868e-10  2.5352332087072627e-10  1.3765736521339274e-10  2.3602709103130415e-10  3.3304766436591518e-10  3.1141916388605670e-10  1.0480830932147534e-10  1.7525271842812348e-10  1.4893090308360664e-10  2.2837374035679006e-10  5.0253968348403141e-10  3.7324782840455123e-10  2.0168289206577948e-10  2.0419314283683434e-10  1.2612326173055164e-10  1.7271001480570394e-10  2.9971894883015196e-10  3.8091435899649753e-10  3.6177121410571402e-10  1.6635816161213730e-10  2.2032171643807853e-10  1.9526603777248546e-10  1.5398289870771823e-10  3.9894042442806303e-10  3.2064676388608678e-11  1.0568220990757410e-10  1.2638151850092423e-10  1.1577214937471532e-08  4.0688505501769735e-10  1.7656816930451022e-10  6.1281986100036758e-11  2.5643445318744235e-10  1.3780365981898907e-10  6.4747262341928346e-11  1.0580408218856698e-10  2.0232728810996733e-10  2.0706383899937202e-10  1.9698872387081752e-10  1.8920921414677266e-10  3.1146533917139843e-10  6.5918229078644761e-11  8.0503180007931842e-11  1.9140781993449660e-10  1.2219338682944602e-10  3.5039701873216960e-11  4.0395979311444928e-10  6.4999680582039943e-11  6.1940954668604599e-11  1.9423270751443826e-10  9.9863610714028956e-11  2.3793669011392381e-10  2.9121038363945672e-10  2.1368527427416701e-10  7.9077389563393864e-11  1.8846067890513223e-10  9.6950367972419735e-11  3.2290544130531585e-11  8.9838374438946806e-11  5.8769465108281240e-11  7.8796170580228995e-11  2.2448055308170209e-10  4.7171490649721288e-11  6.5997070731799625e-11  9.4986175884069231e-11  9.3780720834048254e-11  9.4374340581629247e-11  2.4901895811157153e-10  8.8041374855972358e-11  1.8441588417651783e-10  2.0109351634114967e-10  9.8298969065888107e-11  1.6066410037062084e-10  3.1538876560639149e-10  1.2475155068484373e-10  6.1394857494019701e-10  1.7096390358775580e-10  1.5002151310512212e-10  1.3828036326629037e-10  2.2737348721487634e-10  4.4096270795008483e-11  3.9783670053616299e-11  7.7011972952991205e-11  4.3074665246180061e-10  1.9945925857024989e-10  6.4245634359937666e-10  4.4202831717874711e-10  1.2157555194500647e-10  5.4729100937645371e-10  3.6452573332266829e-10  1.8889442033527460e-10  7.1609574208083718e-11  9.3770819650552482e-11  1.7471840406482550e-10  1.8769404374425941e-10  4.1753448109890839e-11  4.8847366837419334e-10  2.8011867546864549e-10  3.1127055060071564e-10  5.2812221798000581e-11  3.5101575909460768e-10  2.6791138248883354e-10  5.7668156789675700e-10  7.3089562832221176e-11  6.2193077362676454e-11  2.3936069212814144e-10  7.2806363059925648e-11  4.2865176411176610e-11  1.4785459200653455e-10  2.4520356775979601e-11  6