<?xml version="1.0"?>
<VTKFile type="UnstructuredGrid"  version="0.1"  >
<UnstructuredGrid>
<Piece  NumberOfPoints="4852" NumberOfCells="9430">
<Points>
<DataArray  type="Float64"  NumberOfComponents="3"  format="ascii">-0.9999999999999999 0 0  -1 -1 0  0 -1 0  0 0 0  1 0 0  1 1 0  -1 1 0  0 1 0  -0.4999999999999999 0.9999999999999999 0  -1 0.5 0  -1 -0.5 0  -0.5 -1 0  0 -0.1608775713298009 0  1 0.5 0  0.5 1 0  0.1967448868031411 0 0  -0.3413993963566769 -0.1766951845712996 0  -0.3383877547335519 0.2256725620991673 0  0.1745273186740576 0.3478658630911781 0  -0.1867964052495444 0.556230707428391 0  -0.5050229894843447 -0.5392576135579381 0  0.4909305775715578 0.2597551429223791 0  -0.06487954154189202 0.2019786060655565 0  0 -0.5061325913258391 0  -0.25 -0.9999999999999999 0  -0.5631300236753299 0.5789506387437877 0  0.6624977147321242 0.6368143590699917 0  -0.1742523875138091 -0.5392064231305145 0  -0.5403012141376821 0.02620974656558288 0  -0.9999999999999999 0.25 0  -0.20706621672789 0.0240180358806067 0  -0.6557513893907639 0.3112330798874796 0  -1 -0.25 0  0.03904998962237656 0.5931419789040047 0  0.195514245919721 0.1299522839831453 0  -0.1346659435681865 -0.2215015399454391 0  0.3723918676901845 0.6165071269947883 0  1 0.25 0  0.5355652144809806 0 0  -0.75 -1 0  -1 -0.7499999999999999 0  -0.6461122079483629 -0.3245410243475452 0  0.25 1 0  -1 0.75 0  0.02757118475249542 0 0  -0.25 1 0  -0.75 1 0  1 0.75 0  0.75 1 0  0 -0.02898318711980711 0  0.05444986219010176 0.1429823562917555 0  -0.07796556791401428 -0.02796449505791768 0  -0.7019231279707093 -0.1327055770849623 0  -0.3211642403594977 -0.3490867934630538 0  -0.3422955559553312 0.4389927091275437 0  -0.1009984304532686 0.7651634661674611 0  -0.3851780385887569 0.7036237742030665 0  -0.0556084749111092 0.400376000436941 0  -0.07936154283106875 0.07226191499602071 0  0.359791572273665 0.3719232302391281 0  -0.7175190247392618 -0.7314633895904014 0  0.4121854493014491 0.09117692034467181 0  0.6900134531919005 0.1938951334633591 0  -0.7481388811159172 -0.5289293046136339 0  -0.3886199982785554 -0.7113239832237023 0  0.72158029563399 0.4221818037619511 0  -0.7766356569166007 0.09798073392854724 0  0.1975932826240308 0.699934713207083 0  -0.2001353848433163 0.2898005257853371 0  -0.7998473221090084 0.5785934859288635 0  -0.7178104846605142 0.7672176732343002 0  -0.0474035422325202 -0.3741417901676093 0  0.5858697191202261 0.8179349634750708 0  0.8210765090987302 0.8073009645428393 0  -0.1042569709752524 -0.6975420195150719 0  -0.5160683195472449 0.1642995126197552 0  -0.2029117427351228 0.126349809730837 0  -0.3605696138327911 0.0761411237885756 0  -0.3663509830791408 -0.05233640703193999 0  -0.4984193940549099 0.3969384628006645 0  0.375 1 0  1 0.125 0  -0.01183405711353418 0.07153405069955171 0  0.06224910423387981 0.3933741529879535 0  -0.1716179734278412 -0.1230776053472424 0  -0.2444186984728145 0.7743653421066232 0  -0.625 1 0  0.5342058335441497 0.4575076467383337 0  -0.5775682812474425 -0.8306735738761772 0  -0.2575454374754561 -0.7836032496606005 0  -0.3193114583708802 -0.5100210233019695 0  0.8341180784843829 0.5977500164966665 0  -0.5501257711924175 0.7915890735567845 0  0.125 1 0  -0.06750813686775801 -0.09373438674336217 0  -0.4956054396911206 -0.1436872357540931 0  -0.8749999999999999 -1 0  0.02973249556749492 0.04174460573912282 0  1 0.375 0  -0.875 1 0  0.0572692202147859 0.7947826377139254 0  -0.1933712791758045 -0.3757929390155988 0  -0.0738376100784261 0.5723533817036293 0  0.2374057938014673 0.5197672273767117 0  -0.7930673382254404 0.2308582245495195 0  -0.4959105978978589 -0.3908399642646284 0  -8.175392169344067e-05 0.2723821026268494 0  0.5113503388893491 0.6426297565327627 0  0.4000272341871874 0.8085321982783394 0  -0.8069933169088181 0.4257628457898526 0  -0.06210432412586932 -0.221703970084477 0  -0.7104526000200729 -0.0136214298431561 0  0.09073960700465211 0.05283063215801242 0  -0.4789671654633605 -0.25249324684469 0  0.723842073006339 0.08388347184203071 0  -0.8090362187318303 -0.4124540348692872 0  0.3379832646108357 0.1552397674836172 0  -0.7948914112182817 -0.2516010460032199 0  0.2368952379260881 0.2560514392907319 0  -1 -0.875 0  -0.9999999999999999 0.875 0  0.1845433155126064 0.04850493082654697 0  -0.2471240174670177 -0.2306361826652323 0  -1 0.3749999999999999 0  -0.1717097483574657 -0.0419442554917516 0  -0.6503473946281171 0.4692508667474256 0  0 -0.07736776745332727 0  0.08068429285516225 0.2611922404317832 0  -0.375 1 0  -0.2186357897408865 0.4263188470669266 0  -0.1208277334906154 0.1508845203168784 0  0.1337472774548684 0.5559063876436356 0  0.1323452943679943 0.1949727721434991 0  -0.4765169815144796 0.2713915929267781 0  -0.04641310171882487 0.01387759671814329 0  0.8509594626011256 0.3727650266269313 0  -1 -0.125 0  0.2864294477379517 0.8377163030408058 0  -0.111777015611705 0.31443241250791 0  -0.125 -1 0  0 -0.7575037395175259 0  0.07821397079968176 0 0  -0.9999999999999999 -0.375 0  -0.375 -1 0  -0.625 -1 0  0.7474787146812756 0 0  0.625 1 0  0 -0.2918843213980812 0  -1 0.625 0  -1 0.125 0  -1 -0.625 0  0.3284075310660084 0 0  0.004929205892015135 0 0  -0.125 1 0  0 -0.006571003003944568 0  1 0.625 0  0.9999999999999999 0.875 0  0.8749999999999999 1 0  -0.5644957665372822 -0.6778495492612608 0  -0.004750523606649721 0.1610236548445024 0  0.3629272039978998 0.2653932565335718 0  0.6530821543917574 0.2971162443064002 0  -0.8554755017432841 -0.6479960132879877 0  -0.8639305135040897 0.7876171366582728 0  0.4316385719531779 0.5040601836228515 0  -0.3997602721070289 0.8560975208046664 0  -0.7796729050163502 -0.8755872827176697 0  -0.8712517349833803 -0.7853525481809155 0  0.1545562054296122 0.8429079608815204 0  -0.6596936649033835 0.1542461389109929 0  -0.5789627861908544 -0.06399659643992583 0  -0.8550644515194895 -0.06237955866254335 0  -0.2981717976861356 0.5635429286121962 0  -0.4258134372828165 0.5713517767925841 0  -0.3779325538664853 0.332845505194645 0  -0.6196160011339532 -0.2172243667703408 0  -0.2737400537499292 -0.09043687999717073 0  -0.6416086214242828 -0.5904377764575921 0  0.8594402311063196 0.2678464642980349 0  -0.03286447693398127 -0.03306832960184232 0  -0.05508408607485377 0.1151311248454474 0  -0.135083392379511 0.4335904318954522 0  -0.1204051246507158 0.03253045438576636 0  0.5379031969454923 0.06559433504622486 0  0.5796685951047044 0.3628004583463913 0  0.6925505268316411 0.7766963456259817 0  -0.7940021312102122 0.8814938196139088 0  -0.6443653272519653 -0.4311632690026316 0  -0.1126253079309112 -0.3990897598847121 0  0.8717935796274564 0.4910781272879142 0  0.07621696397625331 0.09442487852836984 0  -0.6654811226865599 0.8686118198587427 0  0.4553274287370907 0.3535966471881903 0  -0.02641015367160254 0.03594129817213148 0  -0.4094290734917594 -0.4420419157511397 0  -0.3621863704350764 -0.2703036259975478 0  0.3246278359268297 0.4840951288120132 0  -0.1973355448179718 0.2026555646879239 0  0.7060708043723476 0.5344219118733192 0  0.2625771474550933 0.3582238187520598 0  -0.3775792395173785 -0.8517947409941523 0  0.1095780940216537 0.6834620270842323 0  -0.2843567997894654 -0.6131830455684982 0  -0.442449041162384 -0.6214950360548871 0  0.2973668275017205 0.6939601726850211 0  -0.8754278301041623 -0.1750631069384151 0  -0.1809933667966102 0.8551552115663688 0  0.4551242487232598 0.1655491189984474 0  0.2804995115956795 0.04728644818708076 0  -0.1438442244308462 0.6588639136295079 0  -0.01191172670047385 0.7099779720524182 0  -0.05380309757696474 0.8752860372283464 0  0.005022539054737209 0.4715564480263174 0  -0.3892870272239954 0.1548571690014481 0  0.5494059583443865 0.1351154082037842 0  -0.4778818883303633 0.6837281953651204 0  -0.8521418169750267 0.3340679838455516 0  -0.08962740008544579 -0.5374363155206642 0  -0.02849987448578378 -0.5528594496548227 0  -0.2119914777892959 -0.2896895756591846 0  0.8682342926997588 0.1526567595930304 0  -0.1682021420115933 -0.6617176965298863 0  -0.8899012822450544 -0.5296850977534605 0  -0.2835753458908246 0.3399680255509696 0  -0.6778772178875587 0.5757491943962909 0  -0.897926790521683 0.5322274894991952 0  -0.8988384915939178 0.6616023210253313 0  -0.645687048307145 0.07351292358866704 0  -0.8596499281833573 0.02909220594970155 0  -0.8887148044494501 0.1686816312259125 0  -0.1311588207357123 0.2301773002809674 0  0.1610060420501292 0.4481102764242492 0  -0.04333269343128332 -0.1261154132350471 0  -0.7546515360705247 0.6713002694177571 0  -0.6041770281613978 0.6993427025083123 0  -0.2556808008398236 0.0792198519457037 0  -0.2513853046115807 0.6500980031709708 0  -0.02750481599048383 -0.006497490977537023 0  -0.4955575540093389 0.8772756325749363 0  -0.4788776077176281 0.4923404139362104 0  -0.2919612271589306 0.1451814406384619 0  0.002386694368495354 0.02369904173947351 0  0.7802312737787296 0.6862029490268151 0  -0.4713070358293618 -0.8250261676553325 0  0.272469560101641 0.196742132445625 0  -0.1484572855854319 -0.8630392368844142 0  -0.06529365890408866 -0.8296845749980366 0  0.4448542203301908 0.7079796776846091 0  -0.1138379732855875 -0.2902809781038003 0  -0.266024054201859 -0.02613479620133492 0  -0.8943114736409696 -0.8969966405723758 0  -0.5745177026050919 0.2391889829197736 0  -0.4777671632288575 0.08875899861712966 0  0.492395078451032 0.8271612521148983 0  -0.02568327170373201 -0.2608168190160233 0  -0.3111585601533102 0.8754535366889695 0  -0.1438598402940773 0.08099624464980509 0  -0.4706916950024315 -0.0346022570207921 0  -0.3894415733900554 0.0126086750343756 0  -0.2930376620591437 0.02801359370015049 0  -0.3860813937056097 -0.1208893346106989 0  0.888475356612881 0.6996434321391736 0  0.7932952223181472 0.9114874647484714 0  0.5768710862828017 0.2105860847242834 0  -0.5614410506853655 -0.4713623835490852 0  0.6002828636864161 0.7084351433037871 0  0.6790715301366234 0.8893518000381943 0  -0.05168508138319148 0.3046162634403555 0  -0.9024553148038122 0.9048979067923818 0  -0.1279265189274809 -0.06745047666598533 0  -0.16853
[...]
<PointData  Scalars="w"> 
<DataArray  type="Float64"  Name="w"  format="ascii">1.7097863329358291e-10  1.0240737873662402e-11  4.4579169902698232e-10  2.5665282334689362e-09  6.2573228682484089e-10  1.5625211841706832e-12  8.6481657216286904e-12  7.4802249026580869e-11  4.0045374328355210e-11  2.0938265551649207e-11  1.0262001059075003e-10  9.4686573045641504e-11  4.0168755894417682e-10  2.6587952350440024e-10  8.9508622992945173e-12  5.3850283403899528e-10  9.2753655742617512e-11  7.2163783700172825e-11  1.3125011662106388e-10  3.5076039460265111e-10  6.7863884995097364e-11  1.0597042724471787e-10  5.8654184804325762e-10  3.4655051765398080e-09  5.8488637912444632e-10  1.0609125425377480e-10  8.5684469783199157e-11  1.7021017531435844e-10  7.6942763029102844e-11  1.8861631324923974e-11  4.7454690591681747e-10  9.6843373546705122e-11  2.3623094880069183e-10  1.7854702968763848e-10  4.6279399726625523e-10  2.3176406538976143e-10  7.6219089395499459e-11  4.6702407119133617e-10  5.9537694267712774e-10  3.0383854295244353e-11  4.9815247524523878e-11  1.0642721833575366e-10  9.0380848810862408e-11  1.9139232335861932e-11  1.0649333196836970e-09  9.0339977064060280e-11  3.1686840990785843e-11  9.2393336873176614e-11  1.2737612882864266e-12  5.9402865589827221e-10  2.2509861277812139e-10  2.1679632328002826e-10  8.1263244700154438e-11  2.5999955680485528e-10  2.5843100916539012e-10  1.9582616664784145e-10  3.4826267235432290e-10  8.9663417732799155e-11  5.9395145910720193e-10  2.5218574725785876e-10  3.0159121049573230e-11  3.1996642206312685e-10  3.7733446904209159e-10  1.4179885536998614e-10  5.3345681855527468e-11  1.7553398188463405e-10  6.9802745789796193e-11  1.7431169849318620e-10  2.3371713571882647e-10  4.4624862126802030e-11  6.2830968867442202e-11  4.5362842590625259e-10  5.4523120544769759e-11  8.4878862383213207e-11  1.6937388102259732e-10  1.6898459705589332e-10  2.6213965095142307e-10  2.9032511118186232e-10  1.8318250941790069e-10  1.8963946821554751e-10  6.3448880129579999e-11  2.5227468933228875e-10  2.6972260698931292e-10  2.0096712571743416e-10  2.3683725365727179e-10  1.2106255428401697e-10  4.5188703435848879e-11  1.0803261040578147e-10  9.2659846784473285e-11  2.5653319372536271e-10  7.0521155977716944e-11  9.5230468575706257e-11  7.5801448785401214e-11  9.2966682093938172e-11  3.9285960984165012e-10  2.0982432510258465e-10  2.4754332996205618e-11  6.6463012501268259e-10  2.5416224707653074e-10  3.0988683235974140e-11  2.7067834318106303e-10  4.2732912604783300e-10  7.2603977690626227e-11  9.7181178038827408e-11  1.5525427004876509e-10  6.5318092057322528e-11  2.7757975103365524e-10  8.1220453018699996e-11  1.4240446963359580e-10  6.3835813313582945e-11  3.0724880967743029e-10  2.4061428691197067e-10  2.3619604201617795e-10  6.4717358335698882e-10  1.2217705525249355e-09  1.4965358680077508e-10  1.6841841868301911e-10  1.0316848352902328e-10  4.6265680135653970e-10  2.5124885663783589e-11  2.5349163182906435e-11  2.8096024972491996e-10  9.4906334328746936e-11  5.9800714730325946e-11  5.1020986514865620e-10  5.6079655467901411e-11  6.0266227081441271e-10  1.2026836308945995e-10  7.6827052353531655e-11  8.2647867075174080e-11  3.4959484088638568e-10  1.7146428695494106e-10  4.7023496591251673e-10  1.3305731172556955e-10  6.3546932096385024e-10  4.2236444914646872e-10  1.0697641114417955e-10  5.1039396678588989e-11  1.3217003916960338e-10  2.5806881774728944e-10  3.8379325617364040e-10  6.1914218031260922e-10  8.8440302994999843e-11  1.1943421957237314e-10  6.6380720982219033e-11  6.6234506944063902e-10  8.1888300312094885e-11  2.3933785167405367e-10  1.4341122247343899e-10  1.2227766843752844e-10  1.9340480077027783e-11  2.8683947401433391e-10  1.5948867266132810e-09  5.7901181059240910e-11  9.7353669369051683e-10  7.5953335918570460e-11  2.3416039348543582e-11  2.3519867435917350e-11  1.2068886955692311e-10  5.7223980530725328e-10  4.5358680961804298e-10  1.6124642285228896e-10  1.1036215399456141e-10  1.6255041813456651e-10  1.8341833320674341e-10  5.7177681781903617e-11  7.4687086757648367e-11  1.9840035522501397e-11  5.9004617507303717e-11  2.8674681421284826e-10  9.3044789375363021e-11  1.0580322316030488e-10  8.2298651490167139e-11  9.4239496382038402e-11  5.2838456268137887e-11  9.4671811397637947e-11  4.6159232840623900e-10  5.5161858510316387e-11  1.6429774853771140e-10  1.7209576447132629e-10  4.7705901025110674e-10  1.9767836458078759e-10  2.8860735015728109e-10  1.4562948425542337e-10  1.4424767833612201e-10  1.4330938298607871e-10  2.0742178862196904e-11  2.7789008097204564e-10  6.5569542266364729e-10  2.4683431085635982e-11  2.5625214866623142e-10  8.6718784704902142e-11  1.5710715843289325e-10  1.1390513953234884e-09  1.4074362708562801e-10  1.6821405300463398e-10  2.3143925112305471e-10  2.9181603048217234e-10  1.0256038488619523e-10  2.0515408334282898e-10  4.1449791902819911e-10  2.1511987126990809e-10  2.3705985186694355e-10  1.1092217979252321e-10  1.1024562394059250e-10  1.1294415707640421e-10  6.8899427402237822e-11  2.0984533039832100e-10  9.0093041488906484e-10  7.8305371324705131e-11  1.0804048659987413e-10  7.7680494640055967e-11  9.6918819524563820e-11  1.6300795718127001e-10  3.7941728394659440e-10  7.7630329855972466e-11  8.1451404388569640e-11  7.7389804277902250e-10  9.2099246238875300e-10  3.0213090970442396e-10  2.0153488811463237e-10  7.6808642798120060e-11  7.7957756582627616e-11  3.3710007230992405e-10  5.6924476419231279e-11  8.0806477399585678e-11  4.9268175614932977e-11  9.2071299437253726e-11  4.0888269719709505e-10  8.9309450882158854e-11  2.0055665806351088e-10  1.6454030445614296e-10  9.2161994128023499e-10  6.0205345842265401e-11  1.9333117351164460e-10  1.1685233661622259e-10  1.1120100534046195e-10  7.5753463260821257e-10  7.2453898802857115e-11  8.3025139425552516e-11  1.1813680329404618e-10  1.1340158715292572e-09  3.9305284103598629e-11  7.7275272598600225e-11  2.8227433826942385e-10  2.5459724950879077e-10  3.4469932463432480e-10  1.7669007973088501e-10  2.0492907748101831e-10  4.0858336880782508e-10  2.8567712897740581e-11  1.0359082500918512e-10  1.2772727024622775e-10  3.6699122038137495e-11  2.6979090854623667e-10  4.3103187220494256e-11  3.4002968431963428e-10  1.3757083163854594e-10  1.1100246491691786e-10  1.9376665174621685e-10  5.0626699945951515e-10  7.1175736558983417e-11  2.6060868247097918e-11  1.4509720110024144e-10  8.2566420692219769e-11  5.7265388125441449e-11  7.2588259328818473e-11  1.8204595901429116e-10  4.8250014158915545e-11  2.6682122044732425e-10  2.5903799177407577e-10  1.3319972011294568e-10  1.3052945099371884e-10  1.3254863978729696e-11  7.2345030110928980e-11  1.4847732083393125e-10  1.6488600517665468e-10  5.0735672637987859e-10  3.7161785001388184e-11  8.0577758603807163e-11  3.2775171791463425e-11  2.4413231900175901e-10  1.2377194102450513e-10  1.8094140133913415e-10  7.5673394705313066e-11  8.4570731646261414e-11  1.2120485209682288e-10  2.0211406036347880e-10  2.2454798882663392e-10  2.6270310559028075e-10  4.4577715867104031e-10  2.1534552109797670e-10  2.1220142292682763e-10  1.4257357028217236e-10  8.0603782518316604e-11  1.7235711422714283e-10  1.6811206664877501e-10  6.3118819112078327e-10  1.2613400390669891e-10  6.1600352180669321e-11  4.1325059106998918e-10  1.9227172555305444e-10  2.0072481449497108e-10  1.1851445408445833e-10  3.1520326601305439e-11  4.4242142627541990e-11  9.6553750255155711e-11  7.0947714638438624e-10  2.9580637075252952e-10  1.8122113278793842e-10  1.3525965963102706e-10  3.3289119962399972e-10  6.8612332543535713e-11  1.1222943290691960e-10  3.4884310499266103e-10  1.1247884542908960e-09  9.7144908203996132e-11  2.8502517400573693e-10  6.2052831108333606e-10  1.2525501420113457e-09  1.9854943158775855e-10  1.5583402804818381e-09  4.2446546858665984e-10  2.2652389528718301e-10  1.1790995493647627e-10  4.0301390570230875e-11  6.4908822477360300e-11  1.2772253788545020e-10  1.5539719464322870e-10  6.2452527700360505e-11  9.9725252024655398e-11  1.0921848878088160e-10  1.2993707405457409e-10  1.9433136685045860e-10  5.0817516642778680e-10  3.2466182600832573e-10  1.6556358946025443e-10  9.5418339320575368e-11  6.1574996576458397e-11  5.8914211299889925e-11  6.9649299354665645e-11  1.8151425408510770e-10  2.1701721796428048e-10  1.0425709718644809e-10  1.0281184672147097e-10  2.3665942157457344e-10  1.3384158948794018e-10  6.7196931721408592e-11  5.9612638283963426e-11  1.0588848683548485e-10  3.3509738664843742e-11  1.8080237126263482e-10  3.1872483129335247e-11  1.6206110003606657e-10  1.7917636857202307e-10  1.5773692051435191e-10  3.8858340408025093e-10  7.9874518679172800e-11  8.2311723788035431e-11  1.4182630125879552e-10  2.9808728556330819e-10  1.4900068791567730e-10  2.6344930738078189e-10  1.1011304997638546e-10  1.3379118809261075e-10  1.5027830865405238e-10  2.8776480967011124e-10  1.2896176587745183e-10  3.2936345383910958e-11  1.1422102141055689e-10  1.1193012881390978e-10  1.4813691230457446e-10  2.4373995332076859e-10  1.6566946553341755e-10  3.4307639856137443e-11  1.2972120589097620e-10  2.3062119921798802e-10  2.8278765182332491e-11  3.3234524270020785e-10  1.6702349891669572e-10  3.9607435816400340e-10  1.1426546192291681e-10  2.2863984267324835e-10  3.2562840173487376e-10  7.4454072333022886e-11  1.0317622148671538e-10  2.1362634793044616e-10  7.0190369479298308e-11  4.8544185782211590e-10  1.6246669755106990e-10  9.6901090197540002e-11  1.0680722727341835e-10  2.0490773709914861e-10  5.5237264970528893e-10  4.8570812228835264e-10  1.7735499623315991e-10  1.6893034120239689e-10  2.0450950340380133e-10  3.9855400744571653e-10  4.5289152116636377e-11  2.2147502712092010e-10  8.1920651312018053e-11  1.2509938440475734e-09  1.1944480900961911e-10  4.6462659651136129e-11  5.6642494270264647e-10  3.4137582789642304e-10  2.5076534362339139e-10  2.0418144162472786e-10  6.2610723318749320e-11  1.5144717239374865e-10  3.2825889272152221e-11  4.4399707784704918e-10  8.0000350178161498e-11  1.3633006671165037e-10  1.2766185938941349e-10  6.5899851374606019e-11  3.4775919802921882e-10  4.2634364718183448e-11  1.1508108727098979e-10  2.5759126529835132e-10  1.8325399505416691e-10  7.2840317620130372e-10  8.9748289893273120e-11  5.8356969752003383e-10  1.4106289316985149e-10  3.6268986099988539e-10  5.6330968152758185e-10  2.4835801929616776e-10  1.5551753418306188e-10  2.7616204301431299e-10  4.8674184328231403e-10  3.4188009365927642e-10  7.3897913351037644e-11  4.8305765868105674e-11  1.6648209496911367e-10  3.6270551323357153e-10  1.8164254368078663e-10  1.2387837060901335e-10  1.6676121501011565e-10  7.8257229137502717e-11  6.9296201605644254e-11  1.9878045226797197e-10  5.6907859694002898e-11  2.0546612121899040e-10  9.1164034641642309e-11  4.8982167323407815e-10  4.8081944768237530e-10  8.0699101483350009e-11  4.1518826463689789e-11  4.1330108054529727e-10  6.6063051087149322e-10  2.6053883282162502e-10  1.0069184275159664e-09  2.9378601087309832e-10  3.2224959726710313e-10  2.7712995292485071e-10  2.7113919576999264e-10  9.6267629321926121e-11  3.0422803820003159e-11  1.9521933604590300e-10  1.0689136371167700e-10  2.1366956472203965e-10  7.5526986366717408e-11  1.1909107075411739e-10  2.0775275194747061e-09  1.7903564198328158e-10  7.9548798779973044e-11  8.0436078246083421e-11  4.0429729686141548e-10  2.4697409034560505e-10  1.9134502424021039e-10  2.1079595110591627e-10  4.3741785784511469e-11  7.7524445448961984e-10  2.4322939959236747e-10  5.3544811857430132e-10  2.4903056604012208e-10  2.3951064888873794e-10  3.0700985571055728e-10  9.4263701173924989e-11  3.2528400069204421e-11  3.5346212126655204e-11  3.7611966818603719e-10  3.5265874102113444e-11  1.1428862448421686e-10  1.0236291567541310e-09  7.5137705905115397e-11  3.3601863899933923e-10  2.5818806439192586e-10  6.1475049268177469e-11  5.8969515454240445e-11  1.8333322014304295e-10  2.4828082001899845e-10  4.6291516519680755e-11  1.1430827197098176e-10  1.5775434114577605e-10  7.6360187423519233e-11  1.6592296185454993e-10  2.1481628866002203e-09  3.6335617044393054e-10  3.2227433552879417e-10  1.0811937076799637e-10  1.0399455032454390e-10  1.8151312991961217e-10  7.6684496287041584e-11  1.3313889399348868e-10  4.9721905558447361e-10  8.7029858000249645e-11  2.3671184834823428e-10  2.0861859733386742e-10  1.3935799510071090e-10  4.9455688812063675e-11  7.4375460394186416e-11  5.2428983280742548e-11  4.0395827237659440e-10  1.0487631728802725e-10  2.2057171106591083e-11  5.7708923534908110e-10  2.9513321875875476e-11  6.2646814824760406e-10  1.1470334708209069e-11  1.8313709897249706e-10  1.8754963265831777e-10  2.5169698730048563e-10  1.0141419591298739e-10  2.8428438821733478e-11  8.2448499958206748e-11  2.7435012032082262e-11  1.9622538188463820e-10  3.7473996007419941e-10  2.7140413678526238e-10  3.2506616734765420e-10  1.3330842067885510e-10  9.4502958647539212e-11  6.2236298918553883e-11  3.6519209673391055e-10  4.9526740247435300e-10  1.0282452050729556e-10  9.8298563717867522e-11  1.4447806116788219e-10  7.3959541642114650e-11  4.5880057103045813e-11  5.3106066530082671e-11  3.1316875648492598e-11  8.6936741280336768e-12  1.7359691873772822e-11  9.4986033339596058e-11  2.2149956145382591e-12  1.0825454013220685e-11  1.8408676293655277e-10  3.5201754391847598e-09  2.2169946366721694e-10  4.0514196655900798e-11  2.2458655499804763e-10  9.0919986237906475e-11  1.1172278438725164e-10  4.2728808420411368e-11  1.6740158172207571e-11  8.5782649982024465e-11  7.4769350696900949e-10  7.7672032635955776e-11  1.8344930767496981e-10  3.2262563747163174e-10  4.8568838362690205e-10  9.6801621791100018e-11  1.0128656504876609e-10  5.7594758018134176e-11  7.7246124160816219e-11  1.0865180465160299e-10  5.5461532363517135e-11  6.0376656699915417e-10  5.8802203113816684e-11  2.8341881467391639e-10  8.7691163675687591e-11  1.2735479656754576e-10  3.0369737319668416e-10  4.0886257304144726e-11  6.1540200622918662e-11  2.7797493714510529e-10  1.1583402028658266e-11  1.1221894135762047e-10  8.8130504594149646e-11  7.5724417697716670e-11  5.7137489452902161e-10  1.6215209665102360e-09  2.8552414021886920e-10  2.9147673258809792e-10  9.0564401744683185e-11  6.6817015944848797e-11  2.5283413615803059e-10  1.1406948964450936e-10  9.4903885994559747e-11  1.0329565900764589e-10  1.9328201548502150e-10  7.2769048668427700e-11  5.0580818972665276e-11  6.8233493791030674e-11  3.8521573865202871e-11  8.3771968912531148e-11  1.9506510890645021e-10  1.6428718841879830e-10  1.1362112955917611e-10  2.7197412530591994e-10  4.5754176863673757e-11  1.3536511555819877e-10  5.3315104121396556e-10  6.5045244777838040e-11  1.1948605233589960e-10  1.3242261886370016e-09  5.7380388002353953e-11  3.4976584526218650e-10  5.2645066733022139e-10  1.6080569534598886e-10  1.2601739921773839e-10  1.2708502597823627e-10  8.7111069856723859e-11  2.4975689511466295e-10  2.9086620869596173e-10  1.7651279654870879e-10  4.8056458242301558e-10  4.2818241164448572e-10  1.1890755425475204e-10  2.0696352990124188e-10  6.4188366806823323e-11  8.3065300157110503e-11  6.1588988163818934e-11  2.3993722149164510e-10  4.0295337828241881e-10  3.1020113727344616e-10  3.3505672747547671e-10  8.5510976733656127e-11  2.3229244366105336e-10  4.8926441701002588e-10  1.6611345059774893e-10  4.7323721394200913e-10  1.8336162485111739e-10  1.3758321058176195e-10  1.1103370815297249e-10  5.0636900409793508e-11  5.2293487481688039e-11  3.3011100332149259e-10  6.1743342114006842e-11  6.2703547515805001e-11  1.2669383796235130e-10  3.2532016182757316e-10  3.1901875028483418e-10  1.5898720569521306e-10  1.1759044387053117e-10  6.0776386370958732e-10  6.4274156648163851e-10  1.6315047788926008e-09  2.7191272267274150e-10  1.9927594581899438e-10  4.4743718674380957e-10  4.6518517818219296e-10  1.2000466588680106e-09  3.0374624142081842e-10  2.3748878452746929e-10  3.2359093873399722e-11  1.2617494291916732e-10  3.1716787457882729e-10  4.7947331772589707e-10  2.0560545701297506e-10  6.8880979328919366e-10  2.9924792402455738e-10  2.1129289041947407e-11  4.8596055745227364e-10  3.2183816609001404e-10  3.8491050196222970e-11  3.3883996601928746e-10  4.1477349358076421e-10  5.5446990885282287e-10  1.4712744587358623e-10  6.8040085983504411e-10  1.9685545629219692e-10  4.7366317506589144e-11  1.2767835840004043e-10  1.3276408806010136e-10  3.0287263578306569e-10  7.6647846742018580e-11  2.5774983868615499e-10  1.9418622365521139e-10  7.9647361343929933e-12  2.1167542864166598e-10  5.6113545326000188e-11  8.9499959191712016e-11  1.2152919380558325e-10  6.4741073175192148e-10  4.1464531042635572e-10  3.1138328930017908e-10  1.1763731178033900e-10  1.2965219402227228e-10  9.2389677626209645e-10  5.5306205356467000e-10  1.3394452720425153e-10  1.4465875864569741e-10  9.6442727634653920e-11  5.0305080081773905e-10  1.3601924670056599e-10  1.7070444292958155e-10  9.2787516634748208e-11  6.9301847485114968e-11  6.2154596519053602e-11  1.4479168944152764e-10  9.7791664525054661e-11  1.2599551707477630e-10  4.0921726041952755e-10  7.6662597394553161e-11  6.0035749015594119e-10  1.2191316719354907e-10  2.2736601934665526e-10  2.7452471090091879e-10  5.6175883628214578e-10  1.1617057240388845e-10  3.9768785404453100e-11  6.1414986997197681e-11  1.4358669482837062e-10  1.5936343574885571e-10  5.0941215295349166e-10  8.1764321885438637e-11  1.6090744298191651e-10  2.5224753824628501e-10  1.4218336646007094e-10  2.3594897049915703e-10  3.3654035531756662e-10  3.1766617263885929e-10  1.0254852757380872e-10  1.7286645470557173e-10  1.5056336400489011e-10  2.2951418471351364e-10  4.6582046826911617e-10  3.7669614237005720e-10  2.0200082283658894e-10  1.9446184761893992e-10  1.2476357643379276e-10  1.6918482442200082e-10  3.0328283452163724e-10  3.8232055055980068e-10  3.6366543198839915e-10  1.6820611306419196e-10  2.2213908734831724e-10  1.9638347545838867e-10  1.4825978671963233e-10  3.9518670160843971e-10  3.1143773468026502e-11  1.0462500543993033e-10  1.2833576772678075e-10  2.8625095866881987e-08  4.1251836576961287e-10  1.6996790397682042e-10  6.1279372534048231e-11  2.6042839336061771e-10  1.3539179741428654e-10  6.3980268904922544e-11  1.0348364405181723e-10  2.0396191603508311e-10  2.0520461249085665e-10  1.9648942267179404e-10  1.8685234850843764e-10  3.0949640344026759e-10  6.4280402779401803e-11  7.9822333427930760e-11  1.8958019979381289e-10  1.2586958932689169e-10  3.4064379025854962e-11  4.0207599880839565e-10  6.3434777095539651e-11  5.9602518464549749e-11  1.9648211441482311e-10  9.8574960797962133e-11  2.3310875794353728e-10  2.9042812801840265e-10  1.5714997020285009e-10  8.0351505207993707e-11  1.8611664593457323e-10  9.5052363678235290e-11  3.1623108339684608e-11  8.6963071532126902e-11  5.7747486337960553e-11  7.9614954927114965e-11  2.2801203779285386e-10  4.5993425217712574e-11  6.3667927474393869e-11  9.2932944355748890e-11  9.1648399485241442e-11  9.3635246122660243e-11  2.5103214991428023e-10  8.8389486838725681e-11  1.8613141731182728e-10  2.1379524325209017e-10  1.0636249928158369e-10  1.6166044241025131e-10  3.1638720673440495e-10  1.2219321849542879e-10  6.2292566963496962e-10  1.6772600162796736e-10  1.4941909627989960e-10  1.4105253316244403e-10  2.1881506213251419e-10  4.3107416029791409e-11  3.8607953343999276e-11  7.5178335105135206e-11  4.3530947601837391e-10  2.0429243628020173e-10  6.4251412727414094e-10  4.5303792289524832e-10  1.2038189107612751e-10  5.5563766393082687e-10  3.6111475775525879e-10  1.8677718979176555e-10  7.0570030164091592e-11  9.1961899361301482e-11  1.7791924218861949e-10  1.9002848451668975e-10  4.0752439269255782e-11  4.8540933882034040e-10  2.8190112261303849e-10  3.0710628736802022e-10  5.1496670666787132e-11  3.5425673249574245e-10  2.7302685226387775e-10  5.8759820555752313e-10  7.1597968532942316e-11  6.0809394177993132e-11  2.4240421883060768e-10  7.0677179249564205e-11  4.1715260619930028e-11  1.4244291142895737e-10  2.3926237083679188e-11  6