<?xml version="1.0"?>
<VTKFile type="UnstructuredGrid"  version="0.1"  >
<UnstructuredGrid>
<Piece  NumberOfPoints="4852" NumberOfCells="9430">
<Points>
<DataArray  type="Float64"  NumberOfComponents="3"  format="ascii">-1 0 0  -1 -1 0  0 -1 0  0 0 0  1 0 0  1 1 0  -1 1 0  0 1 0  -0.4999999999999999 0.9999999999999999 0  -1 0.5 0  -1 -0.5 0  -0.5 -1 0  0 -0.1608775713298009 0  1 0.5 0  0.5 1 0  0.1967448868031411 0 0  -0.3416807693834141 -0.1760746819944012 0  -0.3380960879477119 0.2252799133780956 0  0.1744314771436463 0.3474828332528965 0  -0.186547137450231 0.5558558258163063 0  -0.5057077821454329 -0.5387040893124745 0  0.4907255307215161 0.2593189179979208 0  -0.06485942836551555 0.2018642228756067 0  0 -0.5061325913258391 0  -0.25 -1 0  -0.5629769691374621 0.5786123937160281 0  0.6623092033258574 0.6363102016370759 0  -0.1757811138212755 -0.5386717380691265 0  -0.5400207612148548 0.02606380439800729 0  -1 0.25 0  -0.2069629867573882 0.02392296522951235 0  -0.6554596122189158 0.3109767291926342 0  -1 -0.25 0  0.03919398948996144 0.5927832544951539 0  0.1953995844198022 0.12996128998011 0  -0.1359646028994281 -0.2208234672195438 0  0.372203353977308 0.6159371475581999 0  0.9999999999999999 0.25 0  0.5355652144809806 0 0  -0.75 -1 0  -1 -0.75 0  -0.6463963640311091 -0.324028007331276 0  0.25 1 0  -1 0.75 0  0.02757118475249542 0 0  -0.25 1 0  -0.75 0.9999999999999999 0  1 0.75 0  0.75 1 0  0 -0.02898318711980711 0  0.05443547316193887 0.1429646802013738 0  -0.07799434021232443 -0.02799550525270539 0  -0.7018276490935172 -0.1325927303764482 0  -0.3223840282205345 -0.3482072937927238 0  -0.3420071392379391 0.4385721184127165 0  -0.1008304354639072 0.7649788423132756 0  -0.3849507780569564 0.7034184389553355 0  -0.05544144116156907 0.4000702620711709 0  -0.07948238241098439 0.07223001465110948 0  0.3595199746872066 0.3713588876355471 0  -0.7179038319480681 -0.731369977478517 0  0.4120437425217434 0.09120851065970401 0  0.689967925751617 0.1936966395432551 0  -0.748351541860599 -0.5287125702718466 0  -0.389233655541606 -0.7109889973079309 0  0.7214480522549581 0.4216789339301753 0  -0.7764540226064909 0.09788104832320303 0  0.1976141966508627 0.6995730283718113 0  -0.1999375299966066 0.2894710965518971 0  -0.7997539747756653 0.5785105499784121 0  -0.7178862996775606 0.7671364512818956 0  -0.04699370106675246 -0.3748038794035901 0  0.5858021662500384 0.8177361972212324 0  0.8210651305587947 0.8073751578446857 0  -0.1044526414029433 -0.6969712088314922 0  -0.5157025976183559 0.1640021931923824 0  -0.2028045084959139 0.1261453709115788 0  -0.3602805807253309 0.07590727626728633 0  -0.366195081881563 -0.05222983222931981 0  -0.4981013314297284 0.3965225242916309 0  0.375 1 0  0.9999999999999999 0.125 0  -0.01179959950326378 0.07163647454018228 0  0.0623034857354978 0.3930267027967268 0  -0.1719211551991581 -0.1226706219208184 0  -0.2442758378851206 0.7741784652037036 0  -0.625 1 0  0.5340002178346508 0.4567936302454121 0  -0.5779677767695055 -0.8305379321413654 0  -0.2578420685033675 -0.7833371016197453 0  -0.3206941563255666 -0.5093672360220967 0  0.8340289190607021 0.597509541695637 0  -0.5500260735966838 0.7914589421750641 0  0.125 1 0  -0.06765869908052174 -0.09358378519086719 0  -0.4955880777692722 -0.1433699216930722 0  -0.875 -0.9999999999999999 0  0.0297722367031481 0.04179484407161867 0  1 0.375 0  -0.875 0.9999999999999999 0  0.05737970615794139 0.7945210397620029 0  -0.1953899314174704 -0.3750167655862067 0  -0.07360806020685189 0.5719796507934571 0  0.2372913681184148 0.5192406573035462 0  -0.7928658478755654 0.2307714817183981 0  -0.4965067201498678 -0.3900755077203113 0  -1.707788013061929e-05 0.2721774969274564 0  0.5111480364061822 0.6420460396471568 0  0.400009526673634 0.8082028712520063 0  -0.8068122691835757 0.4256754978732609 0  -0.06348970248958781 -0.2214592030324555 0  -0.7102608076836261 -0.01368741510708233 0  0.09070186924460197 0.05292280202892861 0  -0.4792707785844231 -0.2518432879856167 0  0.7238708102902989 0.08383347900277625 0  -0.809176321106523 -0.4122138120175216 0  0.3377899971368828 0.1551245490484095 0  -0.7948544512148115 -0.2514069110852818 0  0.2367255400181056 0.2557453266318421 0  -1 -0.875 0  -1 0.8750000000000001 0  0.1844615575592119 0.04867439194867595 0  -0.2479961085524367 -0.2297801740976749 0  -1 0.375 0  -0.1716951182102374 -0.04188732629545919 0  -0.6501657200471515 0.4689615934267183 0  0 -0.07736776745332727 0  0.08068950785968518 0.2609834175742794 0  -0.375 1 0  -0.2184139172564145 0.425910260383676 0  -0.1208249116935343 0.1507579507577024 0  0.1337851968564793 0.5554729903730293 0  0.1322871058621961 0.1948439299415997 0  -0.4761975757379737 0.2709869013081785 0  -0.04655075564277646 0.01384814918366739 0  0.8508799189407268 0.3726003555747577 0  -1 -0.125 0  0.2864487168163227 0.8374811916679844 0  -0.1116525106643975 0.3141427998027564 0  -0.125 -1 0  0 -0.7575037395175259 0  0.07821397079968176 0 0  -1 -0.375 0  -0.375 -1 0  -0.625 -1 0  0.7474787146812756 0 0  0.625 1 0  0 -0.2918843213980812 0  -1 0.625 0  -1 0.125 0  -1 -0.625 0  0.3284075310660084 0 0  0.004929205892015135 0 0  -0.125 1 0  0 -0.006571003003944568 0  1 0.625 0  1 0.875 0  0.875 1 0  -0.5650131615827833 -0.6775574315660446 0  -0.004720863503087845 0.1609995496291776 0  0.3627072367007457 0.265005396653501 0  0.6529739125906653 0.2966493964856593 0  -0.8556479641289078 -0.6480543803564388 0  -0.8640701360515701 0.7877881676178365 0  0.431361860463587 0.5034050759754318 0  -0.3996053546525123 0.8559007487722342 0  -0.7799713736089937 -0.8755237216457425 0  -0.8714002200484003 -0.7854508940146252 0  0.1546813884670966 0.8426526121402218 0  -0.6594121697256656 0.1540151817587314 0  -0.578843266396038 -0.06396986639834759 0  -0.855004620707983 -0.06234424644242496 0  -0.2979402570833318 0.5631314586381255 0  -0.4255426046298051 0.57092763399479 0  -0.3776354584346029 0.3324490932906443 0  -0.6197845741157696 -0.2168178751903267 0  -0.2737512523511063 -0.09014288575296364 0  -0.6420991222637845 -0.5900925080713554 0  0.8593902797574736 0.2677530962815409 0  -0.03285780625631624 -0.03309970999844481 0  -0.05512295094012732 0.1151445628864463 0  -0.1348479423219959 0.4332180342344842 0  -0.1204493036402939 0.03246202674164143 0  0.5378740860516146 0.0656092117778562 0  0.5795145339597573 0.3621782423082774 0  0.6924460116375383 0.7764824605070212 0  -0.7943138404008134 0.8814856965520823 0  -0.6447777999245433 -0.4306495621537993 0  -0.1144156679523985 -0.3986959184837696 0  0.87172523345925 0.4909141110124166 0  0.07619846385092063 0.09446223714026623 0  -0.6655388452079822 0.8685864071137196 0  0.4550697976261466 0.3529766126804225 0  -0.02652260350932746 0.03600593289708803 0  -0.4104086884846981 -0.4412949912049606 0  -0.3628918783287441 -0.2694663478665726 0  0.3244153065132269 0.4835162284393322 0  -0.1972083858264232 0.2023800408255808 0  0.7059146753281805 0.5338765986347789 0  0.2623751264171816 0.3577680064047731 0  -0.3778703686397147 -0.8515620937279653 0  0.1096860115609782 0.6831426370826074 0  -0.2855187723572304 -0.6126939110579286 0  -0.4431810848024446 -0.6210421589440559 0  0.2972820173103692 0.6935459846201614 0  -0.8754278887466569 -0.1749901476190713 0  -0.1808967045999475 0.8549107819807475 0  0.4549488595719534 0.1653664732983555 0  0.2804304300650375 0.04732465150069522 0  -0.1436325715803363 0.6586225824602001 0  -0.01174029563852172 0.7097463505329338 0  -0.05373746419075318 0.875068235070612 0  0.005158747503460777 0.4711684847655458 0  -0.3889755225505921 0.154514715621577 0  0.549344009840684 0.1350036801842677 0  -0.4776970217520951 0.6834853830522579 0  -0.8519911743796863 0.334023025100279 0  -0.08873434990953442 -0.5370732958364257 0  -0.02367136705361292 -0.5525023165696389 0  -0.213523590923328 -0.2887817738414414 0  0.8682443036517398 0.1526510735963285 0  -0.1690810252540957 -0.661214124133493 0  -0.8901022424851762 -0.5296538026199135 0  -0.2832878962718628 0.3395607151703698 0  -0.6777587252013085 0.5755395451648866 0  -0.8978167658404145 0.532204116067007 0  -0.8988345962922394 0.6616675698015722 0  -0.645440926958703 0.07332169399951202 0  -0.8595773796234392 0.02908731256389297 0  -0.8886334528052827 0.1686300118512166 0  -0.1310692404412058 0.2299671252930492 0  0.1609733627118713 0.4476479730437115 0  -0.04365072896957703 -0.1259822267338646 0  -0.7546359570841126 0.6711739871020109 0  -0.6041277842926721 0.6991202089207388 0  -0.2555107788051701 0.07902533751271236 0  -0.2511929399101712 0.6498405284365287 0  -0.02754371620428427 -0.006574750098747716 0  -0.4955469023213516 0.8770823869928396 0  -0.4785883880753395 0.4919159400572392 0  -0.2917193133522666 0.1448811565754072 0  0.002449931657199098 0.02378038506046689 0  0.7801107534861522 0.6859715010188245 0  -0.4716748157892918 -0.8248526058317011 0  0.2722808206056962 0.196552434347907 0  -0.1485580412136028 -0.8629072708163187 0  -0.06499991220947296 -0.8293850342478504 0  0.444708977020397 0.7075117996929264 0  -0.1158293748657309 -0.289732886087111 0  -0.2658947228929525 -0.02608969672244459 0  -0.8945054995031448 -0.8970448990228431 0  -0.5741616776604452 0.2388785270707434 0  -0.4774214143106338 0.08850770419138043 0  0.4923882215467887 0.8268937019203588 0  -0.02740041963102406 -0.2610595006071248 0  -0.311111816284052 0.8752525782634938 0  -0.1438642159856139 0.08088538977750444 0  -0.4704613843134798 -0.03459306536999328 0  -0.3891846618977519 0.01251154373069667 0  -0.2928468087816552 0.02790483334380271 0  -0.3860949237147976 -0.1205542171141979 0  0.8884213668224589 0.699586753660002 0  0.7934438752673844 0.9115988981917953 0  0.576789201737034 0.2102709162431752 0  -0.5620448707250344 -0.470771667268502 0  0.6001120811672879 0.7080049847786298 0  0.679038052255317 0.8893253733206731 0  -0.05158327261738485 0.304365331464448 0  -0.9026047913444697 0.9050105947974797 0  -0.1279850714567427 -0.06732608042626141 0  -0.1693254176315212 -0.1831766121544205 0  -0.2532114001188845 -0.144
[...]
<PointData  Scalars="w"> 
<DataArray  type="Float64"  Name="w"  format="ascii">1.7077561472805144e-10  1.0142600154628770e-11  4.4536075999822123e-10  2.5828496150838344e-09  6.2579576484348430e-10  1.5485794834806266e-12  8.6195568183167977e-12  7.5269674598304256e-11  4.0350984588281165e-11  2.1049794178711284e-11  1.0195808874210212e-10  9.5194987172486480e-11  4.0596580025095858e-10  2.6695540077670115e-10  8.9342493010195702e-12  5.4424627294815906e-10  9.1824789806355234e-11  7.2110744967837415e-11  1.3064264493053944e-10  3.5256796524558546e-10  6.7906166660006776e-11  1.0521478490091127e-10  5.8306383701193421e-10  1.2323270542086102e-08  5.8768621731591573e-10  1.0703638621298621e-10  8.6293802484366145e-11  1.7150227374672395e-10  7.6916658544734740e-11  1.8904876774847013e-11  4.7124032883730215e-10  9.7605646119779494e-11  2.3548211756809110e-10  1.7970199096367207e-10  4.5839522245346458e-10  2.3126386838733655e-10  7.6617147607907560e-11  4.6790774432686304e-10  5.9632370104562082e-10  3.0331821702959266e-11  4.9096098318921165e-11  1.0575120781412675e-10  9.0638166482905829e-11  1.8941036011006590e-11  1.0683495485582879e-09  9.1777117074614123e-11  3.1720084305288258e-11  9.2421802535385823e-11  1.2791878697326091e-12  5.9404909268335830e-10  2.2365419058102143e-10  2.1534434273479787e-10  8.0712463387402510e-11  2.5784987624313868e-10  2.5867274234771813e-10  1.9574551232278231e-10  3.5158411232561131e-10  8.9345842405184262e-11  5.8805658700646711e-10  2.5145746533826347e-10  2.9998558574221777e-11  3.1958030299556422e-10  3.7724504173003946e-10  1.4195005247767102e-10  5.3392339738159631e-11  1.7598833929991830e-10  7.0141072740121948e-11  1.7450451813519306e-10  2.3340469879233268e-10  4.4581607022238964e-11  6.3124868753930115e-11  4.2984450477089899e-10  5.5059319320446114e-11  8.5328538678776760e-11  1.7504605402023981e-10  1.6915077939428013e-10  2.6008908951498193e-10  2.9020967519824559e-10  1.8238946602877722e-10  1.9040428641261153e-10  6.3594028965474777e-11  2.5195403894752511e-10  2.6914592236584198e-10  2.0040660041625081e-10  2.3590375459495003e-10  1.2101256896658356e-10  4.5093007291213975e-11  1.0842097229219738e-10  9.2964689282398188e-11  2.5609438080395438e-10  6.9751870975492130e-11  9.6066983010647373e-11  7.6103863052374596e-11  9.3554384046179193e-11  3.9352569409316679e-10  2.0898349747004281e-10  2.4601958911622790e-11  6.6115145817874291e-10  2.5518584829293609e-10  3.0783706269524204e-11  2.7180028699622976e-10  4.2424195977916859e-10  7.2974236365376104e-11  9.6982705290550565e-11  1.5626040220159891e-10  6.5056473448639040e-11  2.7610826592140105e-10  8.1956406404434283e-11  1.4406557665284535e-10  6.3970911315865343e-11  3.1427101834543455e-10  2.4090150683586662e-10  2.3537161484216245e-10  6.4051364178387473e-10  1.2227500231319670e-09  1.5027973947163503e-10  1.6650419948969213e-10  1.0345896880490513e-10  4.5971213020599494e-10  2.4925586247713962e-11  2.5199998080056756e-11  2.8084855388146233e-10  9.3505305032420303e-11  6.0168634304006476e-11  5.0615428071592202e-10  5.6320190450370917e-11  6.0673357854215596e-10  1.1944881310061772e-10  7.7508759608499688e-11  8.2548966463588488e-11  3.4707831742058105e-10  1.7259744696053359e-10  4.6684917408126377e-10  1.3288387886091876e-10  6.3331937435663065e-10  4.2594065725496115e-10  1.0670483606960708e-10  5.1228801695256394e-11  1.3197858949213987e-10  2.5925552608163208e-10  3.7363255586370461e-10  6.2492197671036038e-10  8.7940316094654753e-11  1.2002833091130300e-10  6.5838820315059556e-11  6.6203463524170239e-10  8.2173981634091638e-11  3.4228609624931625e-10  1.4388553441171822e-10  1.2237379931754103e-10  1.9169537026933803e-11  2.8716618137588275e-10  1.6175127166288362e-09  5.8534401421976539e-11  9.7817382878358319e-10  7.6049181682813372e-11  2.3056997089574455e-11  2.3147636046410585e-11  1.2120248440782568e-10  5.6748469107325143e-10  4.5094943573426956e-10  1.6091825939973579e-10  1.1045561407388624e-10  1.6258090132314896e-10  1.8431692150139707e-10  5.7158547273648725e-11  7.4484600197222932e-11  1.9670507523087067e-11  5.9212885833596897e-11  2.8772603303049394e-10  9.2492213579164206e-11  1.0629248708147562e-10  8.2203084076944994e-11  9.4947996827146904e-11  5.2863410984681749e-11  9.3903045278501709e-11  4.5888453558117721e-10  5.4812929281328146e-11  1.6414492302644219e-10  1.7081820306666291e-10  4.7496851292110494e-10  1.9739452237079329e-10  2.8592283415957855e-10  1.4581649428921838e-10  1.4432125996797555e-10  1.4534148690226835e-10  2.0834961442486157e-11  2.7528582434659928e-10  6.7002903716803765e-10  2.4716940208434299e-11  2.5460752775563852e-10  8.7292578701818371e-11  1.5729195640744867e-10  1.1428654800077132e-09  1.3884336097605561e-10  1.6610697992972718e-10  2.3175476261639589e-10  2.9011747895272030e-10  1.0312856591230993e-10  2.0418521230826847e-10  4.1559987452347816e-10  2.1567156398581296e-10  2.3794376967499226e-10  1.1083199479895839e-10  1.1057367841262296e-10  1.1367703091037524e-10  6.8760356998075871e-11  2.0936390743744850e-10  8.9934215065461810e-10  7.9028540430530521e-11  1.0814799149600597e-10  7.7734524304490573e-11  9.6701245605580168e-11  1.6273570501161268e-10  3.7992603520273589e-10  7.8245115328072179e-11  8.1808486739380139e-11  8.5496964930770927e-10  7.4478100360454777e-10  3.0002668501231131e-10  2.0123012632249156e-10  7.8279038780648279e-11  7.7716270803186839e-11  3.3809572399437712e-10  5.7179277559362930e-11  8.1404826894935757e-11  4.9314369263339776e-11  9.2005418771990765e-11  4.1208835531025723e-10  8.9543183992662350e-11  1.9981202547982512e-10  1.6398863405132521e-10  9.2034100738045900e-10  6.0373526071768052e-11  1.9497773148084009e-10  1.1613549113290462e-10  1.1225597154115813e-10  7.5774535490858484e-10  7.2722709790096130e-11  8.3356328384469591e-11  1.1752946951713236e-10  1.1435281851225631e-09  3.9534215564403706e-11  7.7292524882790151e-11  2.7931527950378401e-10  2.5699875101656228e-10  3.5201381428169331e-10  1.7854616274678578e-10  2.0566823387554670e-10  4.0704619094978020e-10  2.8413688042222732e-11  1.0374719272268618e-10  1.2771664660351153e-10  3.6861252521117926e-11  2.8443407506505783e-10  4.2979209263172571e-11  3.3636162700365873e-10  1.3677742221606251e-10  1.1050448719776558e-10  1.9227544770492823e-10  5.0419400047953369e-10  7.1722722376973276e-11  2.6117159893620054e-11  1.4485818360118590e-10  8.2265627903639999e-11  5.7737866996416035e-11  7.3304838913426983e-11  1.8154194720562319e-10  4.7764521501646569e-11  2.6452911286188737e-10  2.5813590054910698e-10  1.3078705686547572e-10  1.2972539254212575e-10  1.3168646860780951e-11  7.2205380200646820e-11  1.4767679878774439e-10  1.6563367220750981e-10  5.0376809051186947e-10  3.7244942728568853e-11  8.0825662553241448e-11  3.2566654939119861e-11  2.4226775339539737e-10  1.2365453956715302e-10  1.8166089889154474e-10  7.5495447852460247e-11  8.4760902407560021e-11  1.2120697963301838e-10  2.0244859262414838e-10  2.2365315645595313e-10  2.6194100749636353e-10  4.4270330244410654e-10  2.1453254074177626e-10  2.1142841856532906e-10  1.4345801206434551e-10  8.0618924441946033e-11  1.7318251672545277e-10  1.6826227516801504e-10  6.3247383430142044e-10  1.2623417351271755e-10  6.1599060529428045e-11  4.1297787619043108e-10  1.9045429512658113e-10  2.0152802973005657e-10  1.1883862059885227e-10  3.1570976240533371e-11  4.4305891315198148e-11  9.6953039434220218e-11  7.0272729911333391e-10  2.9574961130050417e-10  1.8112817227034946e-10  1.3594707121507373e-10  3.3458547005449855e-10  6.7972763154086091e-11  1.1129379951704836e-10  3.5633089559654927e-10  1.1113360090698414e-09  9.7184369403381181e-11  2.8259284069847352e-10  6.2169995463308537e-10  1.2488160125948416e-09  1.9874080274060788e-10  1.5559969231341827e-09  4.2098344020966935e-10  2.2671461762337841e-10  1.1826742186108553e-10  4.0270380086827953e-11  6.5323395794631885e-11  1.2625984111729508e-10  1.5441360712975321e-10  6.2590264955211613e-11  9.8928885696449703e-11  1.0814913528621936e-10  1.2979960617615160e-10  1.9273252949130410e-10  5.0487167385448022e-10  3.2475348891490646e-10  1.6522922906636007e-10  9.5862125447208088e-11  6.1652275688184378e-11  5.9033844051599628e-11  6.9133697561470198e-11  1.8170679356922154e-10  2.1571356190637533e-10  1.0511802153477256e-10  1.0350596843386034e-10  2.3687163894953599e-10  1.3447534675551182e-10  6.7813569691371290e-11  5.9879849395500875e-11  1.0549511237853887e-10  3.3517205835490159e-11  1.8116206882095551e-10  3.2135452527627490e-11  1.6097003920253382e-10  1.7838808009268680e-10  1.5622666560252045e-10  3.8890953110341120e-10  7.9809303733558991e-11  8.2612708125705758e-11  1.4231127739770503e-10  2.9608660433622487e-10  1.4788927114799586e-10  2.6327604813412360e-10  1.1036799375413733e-10  1.3422085550103541e-10  1.5022858527668766e-10  2.8642447355800102e-10  1.2827862718743554e-10  3.3014856953389571e-11  1.1507645715137151e-10  1.1157689478518262e-10  1.4956999595123122e-10  2.4631890824688586e-10  1.6708307232911637e-10  3.4412984407540880e-11  1.3012540498828298e-10  2.3320637643463051e-10  2.7867102783089877e-11  3.3078656435162523e-10  1.6593676290860791e-10  3.9327114169877166e-10  1.1506095626769617e-10  2.2626256341490554e-10  3.2415386579229739e-10  7.4823189018519804e-11  1.0372102352998027e-10  2.1509109650029909e-10  7.0226630286713059e-11  4.9069507364991970e-10  1.6077267492085890e-10  9.7634364811181119e-11  1.0749177584869814e-10  2.0620549060906795e-10  5.4733760858387165e-10  4.8296747057821531e-10  1.7778061801220486e-10  1.6915573950173203e-10  2.0528883835494657e-10  4.0049975582700014e-10  4.5345338361064228e-11  2.2121071485661311e-10  8.2334062235768984e-11  1.2539776191648884e-09  1.1932258714985869e-10  4.6318884439464687e-11  5.6313060659149282e-10  3.3980747196755402e-10  2.4806044220287024e-10  2.0469421432957723e-10  6.2564221569528239e-11  1.5161298991857933e-10  3.3093084888034211e-11  4.3930973101555553e-10  8.0318791996859752e-11  1.3750262117760656e-10  1.2797919696716447e-10  6.6294644917535415e-11  3.4756361342796513e-10  4.2741650105495283e-11  1.1583552084013499e-10  2.5221078181739740e-10  1.8147440524182591e-10  7.2329250386607619e-10  9.0512465237169730e-11  5.7919433058294085e-10  1.4234347860917277e-10  3.6003951044842900e-10  5.7254457958264633e-10  2.4666319444732095e-10  1.5545173406202639e-10  2.7655207628384343e-10  4.8232282582281156e-10  3.4609680177899918e-10  7.3749604391875195e-11  4.7616862088328792e-11  1.6503957693815619e-10  3.5959492455524154e-10  1.8232535757966944e-10  1.2398446372720365e-10  1.6802694281793200e-10  7.8269569146932152e-11  6.9612775032056646e-11  1.9832418974307413e-10  5.7234227261226277e-11  2.0590572778062346e-10  9.1617202007817726e-11  4.8619080089429040e-10  4.8260017908622003e-10  8.0794181453203937e-11  4.1324130892238702e-11  4.0841527965810365e-10  6.6136381675780266e-10  2.5924900977729986e-10  1.0045798081579265e-09  2.9235337507604558e-10  3.2026597068235283e-10  2.7641576134338443e-10  2.7035087627229583e-10  9.6416495676291871e-11  3.0168345307712912e-11  1.9499595699785570e-10  1.0880780827474332e-10  2.1498684550885626e-10  7.4916038856940385e-11  1.2033812058458779e-10  2.0996999435633876e-09  1.7879155534915920e-10  7.9787669873650206e-11  8.0537089794123923e-11  4.0197134827228080e-10  2.4539577807591241e-10  1.9078169943146807e-10  2.1071869342505308e-10  4.3934130344988667e-11  7.6841369853854709e-10  2.4225435649410835e-10  5.3614994717949179e-10  2.5107108040325959e-10  2.4099533901181330e-10  3.0829047442205725e-10  9.4178224487436791e-11  3.2377520958756477e-11  3.5006907864489917e-11  3.7563578173321147e-10  3.5105731772316301e-11  1.1481285160788204e-10  1.0301616647996694e-09  7.5189619555540413e-11  3.3762628774938023e-10  2.5902202702057918e-10  6.1495606681957622e-11  5.9184037568774230e-11  1.8126884039127350e-10  2.4653845303338203e-10  4.6756172087947247e-11  1.1376593650703008e-10  1.5904767201833219e-10  7.6203332331832036e-11  1.6659195992487580e-10  2.1560797567800018e-09  3.4653694218545966e-10  3.2192709151042209e-10  1.0758366578262000e-10  1.0482577735743279e-10  1.8245979316955878e-10  7.6859492902251387e-11  1.3221940207950921e-10  4.9647741954754100e-10  8.7057932236348510e-11  2.3736591011697270e-10  2.0940273504952207e-10  1.3836555976699403e-10  4.9131171045077699e-11  7.4253430602088823e-11  5.2405814761972986e-11  4.0484320265556560e-10  1.0546325785001685e-10  2.2015980707304591e-11  5.7692786816379554e-10  2.9498948867032670e-11  6.2638532703942756e-10  1.1441660666390652e-11  2.1091228961391928e-09  1.7968336173200383e-10  2.5195952583314679e-10  1.0174362384029839e-10  2.8230398846765638e-11  8.2988155289083226e-11  2.7506489371652158e-11  1.9437632544427669e-10  3.7472403404641234e-10  2.7105442955393442e-10  3.2200835681792137e-10  1.3280339211903151e-10  9.5518910504538777e-11  6.2152887397356453e-11  3.6606165396576461e-10  4.9653638601170325e-10  1.0207858110794619e-10  9.7989745505775505e-11  1.4443949562694683e-10  7.4083193534160585e-11  4.6435755800077350e-11  5.2824309157738849e-11  3.0973530266011358e-11  8.6557683662385771e-12  1.7178697465869946e-11  9.4632997473844836e-11  2.1518016153603040e-12  1.0523589819452733e-11  1.8639819935827984e-10  3.5138755540700898e-09  2.2440226246620592e-10  4.0098077335327405e-11  2.2451742011201959e-10  9.1631090104266860e-11  1.1112421026421773e-10  4.2748759323938580e-11  1.6616107836517884e-11  8.5281245704526365e-11  7.5963712233360810e-10  7.7173587586851906e-11  1.8265713143507601e-10  3.2303777652008253e-10  4.8189673075175650e-10  9.6598685463720674e-11  1.0140631766428797e-10  5.7633286218061381e-11  7.7013375121619969e-11  1.0882677980898690e-10  5.5786213870214736e-11  6.1461898556227615e-10  5.8717958991496903e-11  2.8090224520397034e-10  8.7296658392486248e-11  1.2724940045266197e-10  3.0410827393077348e-10  4.0871275584150389e-11  6.1632181070529319e-11  2.8126738496004406e-10  1.1551870923157205e-11  1.1237826337704344e-10  8.8377810131347969e-11  7.5647406784916240e-11  5.7235912370711226e-10  1.6148268261720764e-09  3.0419921067595808e-10  2.8925055542189427e-10  9.0250066932534921e-11  6.7575919032165749e-11  2.5416170993948910e-10  1.1409192307227530e-10  9.5710643579883479e-11  1.0346029277586645e-10  1.9380525141089841e-10  7.3316271134736359e-11  5.0375452486020357e-11  6.7821360040023911e-11  3.8496622098567279e-11  8.3836306315644669e-11  1.9291334594948174e-10  1.6271508878001631e-10  1.1248405115659735e-10  2.7888169012302828e-10  4.5901809159537661e-11  1.3579492266010327e-10  5.3327160501710545e-10  6.5120715362060440e-11  1.1944645640575226e-10  1.4089740096309474e-09  5.7503170383523341e-11  3.4560140284553704e-10  5.2337042782179457e-10  1.5998466521264906e-10  1.2512907389566903e-10  1.2644930139781441e-10  8.6630131590040604e-11  2.4892257466010270e-10  2.8935754737730870e-10  1.7580065311753336e-10  4.7928624715516690e-10  4.2727783885553890e-10  1.1953683512138774e-10  2.0767534062501085e-10  6.4743822853263824e-11  8.3501541171759699e-11  6.1614582712735344e-11  2.4044623499495586e-10  4.0334456090932665e-10  3.1019665999736148e-10  3.3244514305149294e-10  8.5755917250773152e-11  2.2970763024885061e-10  4.8467518282320678e-10  1.6426818072403967e-10  4.7668324997169559e-10  1.8440702930399107e-10  1.3803782747786215e-10  1.1105836358442590e-10  5.0708786898319744e-11  5.2817038144973840e-11  3.3258241692822398e-10  6.1976109613908013e-11  6.2378578832544338e-11  1.2681172558220206e-10  3.2375115949120931e-10  3.1931745381933908e-10  1.5815075311537053e-10  1.1732934006225951e-10  6.0518788203071933e-10  6.3635706453319439e-10  1.6326618903107353e-09  2.7110081376109348e-10  1.9819589109736173e-10  4.4521420648463061e-10  4.5929157152056723e-10  1.2047844391743726e-09  3.0100038033980443e-10  2.3890250511304309e-10  3.2253839760812924e-11  1.2704586797802890e-10  3.3444825640456276e-10  5.1945344494428540e-10  2.1324279629923263e-10  6.8415380579286032e-10  3.0190458771060109e-10  2.0993187698693997e-11  4.8431786561797231e-10  3.3191113006858244e-10  3.8280877621802476e-11  3.3651662844259889e-10  4.1449182483217529e-10  5.5145017466065324e-10  1.4656071712291258e-10  6.7686396950633394e-10  1.9585095534041976e-10  4.7580684634453643e-11  1.2746705537590640e-10  1.3280979604335713e-10  3.1277387039655201e-10  7.6987157873059104e-11  2.5803298883171623e-10  1.9468652098216017e-10  7.8755061534586264e-12  1.9774032383550685e-10  5.6440494744285814e-11  8.9616063779483729e-11  1.2208663015741394e-10  6.4261218075375139e-10  4.1630921242769215e-10  3.1185381482454476e-10  1.1739730628451522e-10  1.2988459258563106e-10  9.1897979940574601e-10  5.5196704318264901e-10  1.3416522732557959e-10  1.4347120345684585e-10  9.4993752092186404e-11  4.9754219557976125e-10  1.3753669352482852e-10  1.7195335474125319e-10  9.3226390265294007e-11  6.9435999918706175e-11  6.2315333552180423e-11  1.4629233603741746e-10  9.8029807334550143e-11  1.2553868165355555e-10  4.0838520094580151e-10  7.7560961217212143e-11  6.0693349472893327e-10  1.2274198097790022e-10  2.2613171600992767e-10  2.7534476094936983e-10  5.5953748126848194e-10  1.1591160522518219e-10  3.9939757490815315e-11  6.1563417001492732e-11  1.4313223512934859e-10  1.5882073868257279e-10  5.1194499097094242e-10  8.2087565834742395e-11  1.6319175319550877e-10  2.5369893122672850e-10  1.3988217986492252e-10  2.3572619193962067e-10  3.3436721248832672e-10  3.1565669411225290e-10  1.0365749957583999e-10  1.7334240908687204e-10  1.4983655577621668e-10  2.2906064484979802e-10  4.4284183669135093e-10  3.7471245535342689e-10  2.0118241884948053e-10  1.9523508548959015e-10  1.2597282390105667e-10  1.6930732720919583e-10  3.0107569256711521e-10  3.8293687349068609e-10  3.6447146724523339e-10  1.6728504952111446e-10  2.2056505705374495e-10  1.9764247843435714e-10  1.4885835960416887e-10  3.9586173629467362e-10  3.1153004599813180e-11  1.0463764019396266e-10  1.2801218050971614e-10  2.7307470244529904e-08  4.0826466542895420e-10  1.7168400801715349e-10  6.1361054549847939e-11  2.5857623795391432e-10  1.3593040940595376e-10  6.4218040258348815e-11  1.0402232923274553e-10  2.0312961883627665e-10  2.0589716957483789e-10  1.9823633117181088e-10  1.8742937866317919e-10  3.0905803445960110e-10  6.4738016543467685e-11  8.0140187941162694e-11  1.9022660432950513e-10  1.2428656741394859e-10  3.3901281832958977e-11  4.0226843140894525e-10  6.3346159671518565e-11  6.0017118309574186e-11  1.9575863118541178e-10  9.8994401025719953e-11  2.3396830895355778e-10  2.8965826944191350e-10  1.4658587915573256e-10  8.0456079817277042e-11  1.8716018509710289e-10  9.5173533284490894e-11  3.1575597611586940e-11  8.6523658744250981e-11  5.7553368668228012e-11  7.8705146622394547e-11  2.2602485807542981e-10  4.6179828598140763e-11  6.3255999697727099e-11  9.2508397718996424e-11  9.2082575600331280e-11  9.3463896421076310e-11  2.6078774022563248e-10  8.8407617318020207e-11  1.8722742707079265e-10  2.1095418411572367e-10  1.0427934063243512e-10  1.6155753808202529e-10  3.1655475423751235e-10  1.2225896878912780e-10  6.1944175683023424e-10  1.6791482117719990e-10  1.4974774523088380e-10  1.3932953162300100e-10  2.1992951712474580e-10  4.3174281676059148e-11  3.8767671940087398e-11  7.5344186344506438e-11  4.3188406474659733e-10  2.0135176550422271e-10  6.4234505099270817e-10  4.4990911594939586e-10  1.2038633103621311e-10  5.5101413235428200e-10  3.6131843813830464e-10  1.8760221515563460e-10  7.0907667752634729e-11  9.1977748901766164e-11  1.7646580646784861e-10  1.8869696128199893e-10  4.0630481502568644e-11  4.8806641526852082e-10  2.8293031654287261e-10  3.1007267756190804e-10  5.1531094205532152e-11  3.5293352902190964e-10  2.7203123742417258e-10  5.9283588834214630e-10  7.1815054185891774e-11  6.1169051565766137e-11  2.4086998310187584e-10  7.0884362931618178e-11  4.1817696131975728e-11  1.4300818763705566e-10  2.3900478466367067e-11  6