<?xml version="1.0"?>
<VTKFile type="UnstructuredGrid"  version="0.1"  >
<UnstructuredGrid>
<Piece  NumberOfPoints="4852" NumberOfCells="9430">
<Points>
<DataArray  type="Float64"  NumberOfComponents="3"  format="ascii">-1 0 0  -1 -1 0  0 -1 0  0 0 0  1 0 0  1 1 0  -1 1 0  0 1 0  -0.5 1 0  -1 0.5 0  -1 -0.5 0  -0.5 -1 0  0 -0.1608775713298009 0  1 0.5 0  0.5 1 0  0.1967448868031411 0 0  -0.341149969525564 -0.1758131480465625 0  -0.339447646928818 0.2260012723289145 0  0.1744542578498351 0.3475461532187782 0  -0.1867954437287874 0.5572350147832665 0  -0.5077755411537775 -0.5398790764225164 0  0.4898527305291777 0.2587883281419054 0  -0.06588379404158981 0.2023054547934195 0  0 -0.5061325913258391 0  -0.25 -1 0  -0.5686296182516601 0.5790168367351972 0  0.6640833508603277 0.6387399268239877 0  -0.1797962706646108 -0.5379566817672919 0  -0.5395525644928205 0.02440264554649121 0  -1 0.25 0  -0.2075659641079844 0.02349266043925839 0  -0.6565400464716815 0.3159926359124197 0  -1 -0.25 0  0.0390659572218482 0.5930920660780141 0  0.1950448470949754 0.1304364831590794 0  -0.1367877763563653 -0.2202351107179296 0  0.3716045514310838 0.6161981552739391 0  1 0.25 0  0.5355652144809806 0 0  -0.75 -1 0  -1 -0.75 0  -0.6462495611377009 -0.3237058612798648 0  0.25 1 0  -1 0.75 0  0.02757118475249542 0 0  -0.25 1 0  -0.75 1 0  1 0.75 0  0.75 1 0  0 -0.02898318711980711 0  0.05367842887472993 0.1429633443419388 0  -0.07776201843721077 -0.02858492495407378 0  -0.7026986389927615 -0.1332392607708125 0  -0.3238524243820453 -0.3481977586642321 0  -0.3429864922273796 0.4387161972203127 0  -0.09975330574371594 0.764221219077404 0  -0.3875745518175167 0.7047855776425942 0  -0.05399090792916858 0.4001249486412628 0  -0.07996530463997768 0.07129386855868604 0  0.35870524191487 0.3731697762912105 0  -0.7226891059803517 -0.734992310742381 0  0.4114605933954815 0.0921742809424585 0  0.6894732741776403 0.1959969642467024 0  -0.7513512173487241 -0.5329421736900528 0  -0.3935880187684762 -0.7122220627588084 0  0.7203985346012889 0.4248367797435735 0  -0.7790814130667999 0.09951886733016506 0  0.2008863123696328 0.701147927568085 0  -0.1994210062366872 0.2901282245873769 0  -0.8012251091479271 0.5835835030365555 0  -0.7247829375716156 0.7688167567974943 0  -0.0290819869299213 -0.3748536987818857 0  0.5892128258446074 0.8217545473252263 0  0.8240167148846097 0.8129214882514458 0  -0.09235423556497836 -0.6969891360322773 0  -0.5148542223669162 0.1673333505096476 0  -0.2032644198037579 0.1270400518428807 0  -0.3600954348866086 0.0753834312429046 0  -0.3663974551088536 -0.05127567950522174 0  -0.5015866035553638 0.3979791804232339 0  0.375 1 0  0.9999999999999999 0.125 0  -0.01139661272493382 0.07153772898151105 0  0.06244765746051437 0.3935532659620155 0  -0.1735746995924264 -0.122071493128004 0  -0.2490713644843614 0.7738545652639456 0  -0.625 1 0  0.5357086715612114 0.4583110961517205 0  -0.5829685380827323 -0.8318904868309374 0  -0.2615873424636271 -0.7843454200232973 0  -0.3242792278450537 -0.5090313890591499 0  0.8346543194107812 0.6009604992721562 0  -0.555232610773863 0.7926856540254169 0  0.125 1 0  -0.06740145147332782 -0.09333594084853979 0  -0.4980105668172624 -0.1429447167569688 0  -0.875 -1 0  0.02948383540264054 0.04175967124251307 0  1 0.375 0  -0.875 1 0  0.05851742425683581 0.7966105399075754 0  -0.196284964743151 -0.3737750873648898 0  -0.07362539606308843 0.5726476632554516 0  0.2370704632399854 0.5194363026486677 0  -0.7916905954931812 0.2351472559124064 0  -0.4981941407043375 -0.3897513090315119 0  0.0004206786242320929 0.272000079163977 0  0.5134368570587148 0.6435082280425257 0  0.4019832647073116 0.8094547688912 0  -0.8053365395260007 0.4321993061471908 0  -0.05992923386800533 -0.2237645684500327 0  -0.711293601628136 -0.01499881205237057 0  0.09079596842848391 0.0527721291594386 0  -0.4811582876523147 -0.2522250337317878 0  0.7249384571882278 0.08536994169019842 0  -0.8107815176257501 -0.4148031752275038 0  0.3374645890727281 0.1575163072377725 0  -0.7950307973135696 -0.2530796916937322 0  0.2370019083548896 0.2545537624241591 0  -1 -0.875 0  -1 0.875 0  0.1851594500508137 0.05080101675154759 0  -0.2494832993253414 -0.2274608691816575 0  -1 0.375 0  -0.172497603311087 -0.0426761580735129 0  -0.6531558971424688 0.4713849290382097 0  0 -0.07736776745332727 0  0.08149687297972687 0.2614306546852968 0  -0.375 1 0  -0.221978460066265 0.4255639314898023 0  -0.1211235198786123 0.1514447020384229 0  0.1357680752760588 0.5545832846822266 0  0.1325246447012388 0.1954605812068256 0  -0.4773289368553512 0.2717676927182628 0  -0.04699927336596765 0.01400397966355698 0  0.8479628181534703 0.3776021301956698 0  -1 -0.125 0  0.2870949461204645 0.8394047006798536 0  -0.1123198897993145 0.3139629343859796 0  -0.125 -1 0  0 -0.7575037395175258 0  0.07821397079968176 0 0  -1 -0.375 0  -0.375 -1 0  -0.625 -1 0  0.7474787146812756 0 0  0.625 1 0  0 -0.2918843213980812 0  -1 0.625 0  -1 0.125 0  -1 -0.625 0  0.3284075310660084 0 0  0.004929205892015135 0 0  -0.125 1 0  0 -0.006571003003944568 0  1 0.625 0  1 0.875 0  0.875 1 0  -0.5683643534744326 -0.679961486580735 0  -0.003944281082933886 0.1611946999841141 0  0.363386996730886 0.2623217496660428 0  0.6532667265138962 0.2953535100434077 0  -0.855714155873091 -0.6535507596881661 0  -0.8697815368046284 0.7929326439045696 0  0.4301805179899575 0.5044244611797396 0  -0.3997254141083392 0.8574918383308975 0  -0.7847528397925706 -0.875942322594184 0  -0.8722602718688246 -0.7894150296908442 0  0.1594478600328135 0.84347348653443 0  -0.6597235033193645 0.157038621519406 0  -0.578882306255929 -0.06700135279513099 0  -0.8562236683002199 -0.06196583254324747 0  -0.3011352101031586 0.5635001353422487 0  -0.4288155268286243 0.5716346280521293 0  -0.3792433717520003 0.3341889188080808 0  -0.6194103439333305 -0.2170730376299751 0  -0.2731604280783695 -0.09061316405612997 0  -0.6453114980239214 -0.5940482643487278 0  0.8581238425310199 0.2660449343220404 0  -0.03249189294132685 -0.03350736934414691 0  -0.05498647251622462 0.1153348599561858 0  -0.1354189942280159 0.4332483730859039 0  -0.1195129397300674 0.03300718154906546 0  0.5388880526236131 0.06720644327148084 0  0.5809536384539 0.3648302936220834 0  0.6958612894573167 0.7801165507696445 0  -0.8033090110365756 0.8836726250391365 0  -0.6472256977982116 -0.4307431948370081 0  -0.1107916198518697 -0.3968729477232557 0  0.8698681013723583 0.4965274651603494 0  0.07690962430318887 0.09474158885789943 0  -0.6713286894541953 0.871613096701128 0  0.4547890473949688 0.3535857969497533 0  -0.02676102776610748 0.03593999706242496 0  -0.4115480811298838 -0.4431362130382293 0  -0.3645290142869026 -0.2689551617835594 0  0.324519714418495 0.4849897786910498 0  -0.197271155007696 0.2016530825381496 0  0.7070627088538481 0.5354107659351468 0  0.2618415825045455 0.3590871228039855 0  -0.3859951431787768 -0.8507412605423827 0  0.1112186645929151 0.6826910471004334 0  -0.2894519326288527 -0.6111209959305093 0  -0.4470683541984784 -0.6220672715946233 0  0.298677558034075 0.6954604748434395 0  -0.8738872175355827 -0.1759629726822751 0  -0.1834438076189194 0.8576783630824565 0  0.4545783880330739 0.1676541755325408 0  0.2803817182055234 0.04878907501948859 0  -0.1444639052044177 0.657610252707017 0  -0.01255052184960504 0.7088710051896492 0  -0.05333477101382395 0.8782700847881622 0  0.005657164578190192 0.4710110232256406 0  -0.3895904369448627 0.155477465806417 0  0.5506421223900075 0.1361302684823907 0  -0.4820068300373678 0.6846498280956952 0  -0.8508784783922529 0.340059592274443 0  -0.07537362726068109 -0.5368748101700674 0  -0.01211830866606991 -0.5522205403757433 0  -0.213936460619854 -0.2879552271166045 0  0.8683129766277213 0.1555295476581738 0  -0.172262066404796 -0.6596341622586857 0  -0.8881190299855061 -0.5339135170648449 0  -0.2841835236243837 0.3407941925211405 0  -0.6813080083550992 0.5786020332000645 0  -0.8971809643508792 0.5369798961576477 0  -0.9008176518768098 0.6666039901353045 0  -0.645446097383653 0.07366083950605708 0  -0.8610917357503215 0.03040151063015679 0  -0.8891431616248583 0.1683209517307778 0  -0.1306927849773383 0.2302540727808358 0  0.1624290605290781 0.4487731975615155 0  -0.0439768027910387 -0.1261326308425769 0  -0.7591538008765961 0.673408084727619 0  -0.6109012022731476 0.6997272967288412 0  -0.2555923913034058 0.07942938217223579 0  -0.2551154347375762 0.6509221937424363 0  -0.02733702762660558 -0.006789599705755695 0  -0.5019551891532521 0.8773957285652331 0  -0.4833151029637318 0.4938035156448554 0  -0.2910229048909208 0.1451156861082523 0  0.002596350591167911 0.02396584082169982 0  0.7818764465065781 0.6903012388086562 0  -0.4763385626530856 -0.8264709095959326 0  0.27190294789616 0.1978244694715402 0  -0.1472932406435832 -0.8640536107987518 0  -0.05509387866193271 -0.8267157468962839 0  0.4456565247937539 0.7097697155956099 0  -0.1137114868926638 -0.2892768454349691 0  -0.2661138893197385 -0.02595230238728333 0  -0.8969268935403949 -0.8986890332952613 0  -0.5739504407474713 0.2428642105352856 0  -0.4761462826899961 0.08868952517688795 0  0.4960797186172582 0.8296510165133328 0  -0.02317458534907608 -0.2657850037545136 0  -0.3157864314329249 0.8777577804067793 0  -0.1435243771036338 0.0809930667693209 0  -0.4702748363895013 -0.03458645324929024 0  -0.3894648612036101 0.01242031784364077 0  -0.2939204711873787 0.02778747715208666 0  -0.3868188373192054 -0.1205334842810446 0  0.8892123100627506 0.7039070099437084 0  0.798499998491894 0.9140669606763233 0  0.5785486261117702 0.211398706041682 0  -0.5615044449983533 -0.4724207120842182 0  0.6029206461779748 0.7106577548378207 0  0.6819558000963998 0.891815611972302 0  -0.05196345761431997 0.3049367729771292 0  -0.9067748359049129 0.9080686186750699 0  -0.1284729419995602 -0.06680633317834024 0  -0.1710905301322192 -0.1817206952386657 0  -0.2528245687090537 -0.1443000580091406 0  0.03725769665753764 0.202919174250344 0  0.9050855145954588 0.9009546525002253 0  0.8540674360426952 0.06
[...]
<PointData  Scalars="w"> 
<DataArray  type="Float64"  Name="w"  format="ascii">1.5090200883701952e-10  9.1608644712411939e-12  4.5345694574306952e-10  2.5259072270540743e-09  6.4697665901775030e-10  1.4369716284133719e-12  8.0909721451908352e-12  6.4312242797969050e-11  3.5857841835491646e-11  2.3127916980918156e-11  1.2560609993149375e-10  1.0192020439760474e-10  4.4428619773135657e-10  2.3721537482039769e-10  7.9152661028239569e-12  6.1450468840632075e-10  9.1091350879846009e-11  6.9402704305931313e-11  1.3080864046907875e-10  3.8157187948175104e-10  6.1990355833236611e-11  7.8644989406538892e-11  6.0378044998767149e-10  1.7691210328842926e-08  5.9185631171439403e-10  1.0836494911175725e-10  8.7483493889151716e-11  1.5715813740099711e-10  8.1552195713488424e-11  1.8912346590252610e-11  5.2662043678574156e-10  9.6777116272195765e-11  2.6401545723144585e-10  1.8709756096413649e-10  5.1166407153266580e-10  2.2581739021960899e-10  8.0655247121092636e-11  5.3719503656365371e-10  6.3903746627831228e-10  2.7224981918624809e-11  4.2127946487113600e-11  1.1460127025517180e-10  8.3268965258318997e-11  1.3810307219445648e-11  1.0971568711511094e-09  8.5905903858546019e-11  2.8160061756952503e-11  7.8426715679853171e-11  1.8287512076059517e-12  6.3403433845934988e-10  2.1106644150466525e-10  1.9690493397580789e-10  8.3771947675344300e-11  2.6001013783601158e-10  2.2860867949652586e-10  2.6564656771033065e-10  3.9268153213233061e-10  8.8940448497392574e-11  5.1683802755969938e-10  2.5540521433305041e-10  2.9556680178661482e-11  3.3956285775310773e-10  3.6077757422068830e-10  1.2800514100852824e-10  4.5482204211261088e-11  1.7195130457665479e-10  6.1922911161103310e-11  2.1355716027287828e-10  2.6340282948091375e-10  3.7394820265336861e-11  6.4384977220129846e-11  2.9111618756259229e-10  5.2283967026722537e-11  7.9229577833079601e-11  2.2475967184573379e-10  1.7689311858497737e-10  2.3106925364371026e-10  2.8092253141887448e-10  2.0007219921748263e-10  2.2017140470352604e-10  5.7813895758117311e-11  2.2616609131139132e-10  2.5550787173603218e-10  2.0166073660627259e-10  2.1131764172573206e-10  1.2767686931029255e-10  3.2705077707038093e-11  1.0354853738789537e-10  9.5566977865682386e-11  2.7380010611683908e-10  5.6140234902457866e-11  9.7507302096674900e-11  7.4564329785381506e-11  8.4716611453405244e-11  3.3927107202362092e-10  2.1731407945154195e-10  2.1438483736922563e-11  5.8399715572141533e-10  2.8076163521940311e-10  2.4699300611870200e-11  3.0152655805873549e-10  4.9262740555472045e-10  7.0100655910875037e-11  8.2416546119640361e-11  1.4765834387006211e-10  5.5851709755861957e-11  3.1094939071354194e-10  8.4404053220745807e-11  1.6732616057760612e-10  6.0004408968652199e-11  2.9919695996895474e-10  3.0819156062002183e-10  2.1148521818967950e-10  7.6997001127835844e-10  1.4644400124282700e-09  1.1726253664438379e-10  1.5488927039369628e-10  8.2230507405801572e-11  4.8055246751186998e-10  2.4098306550063537e-11  2.0834578288371376e-11  2.6063605879040843e-10  8.5992337748710592e-11  5.9711545520350398e-11  5.1028911717436500e-10  4.9932289525875744e-11  5.7185227352118961e-10  1.0278810122004380e-10  7.0895400730680355e-11  7.6535744789715212e-11  3.3432601770589142e-10  1.5308514283660237e-10  5.1991080909821877e-10  1.1480403105870186e-10  6.5001933310720131e-10  4.9258350594065301e-10  9.9769758266998144e-11  4.3646592807353057e-11  1.3444225709859691e-10  2.8015912464747803e-10  1.5510389956813861e-10  6.2919464506519175e-10  9.7463864636098246e-11  1.0153307992704655e-10  5.1432324683906463e-11  6.7078174054080141e-10  7.7497611738399564e-11  2.2714688103872838e-10  1.4034807540328642e-10  1.1370190711182376e-10  1.7711010392728502e-11  2.9581550879941845e-10  1.5919527374220615e-09  4.7180201186288123e-11  1.0320659362356357e-09  6.3096146623780201e-11  1.6131361208041007e-11  1.8485681681021285e-11  1.3491136871543295e-10  5.6291577511686331e-10  3.8682106623850279e-10  1.5583556337090769e-10  1.0294333792792465e-10  1.4599192122206185e-10  1.9687967088825110e-10  5.2108359922886829e-11  6.9397448133572157e-11  1.5988015118155964e-11  4.8558769436774962e-11  3.3425940331090285e-10  7.7072857771903880e-11  1.0540569628233712e-10  6.5496178895431657e-11  9.3528009771749669e-11  4.6150181170387417e-11  8.5856851619424275e-11  4.8657798323131963e-10  5.1366883541028611e-11  1.5720299604378366e-10  1.5058791015247150e-10  4.9328881991294470e-10  2.2319341079393087e-10  3.0267293117571572e-10  1.3224081368670358e-10  1.4833115746093345e-10  1.5740321668990962e-10  2.0949144752519749e-11  3.4620866068335708e-10  1.0765601695207264e-09  2.0287665241774471e-11  2.2283943118337978e-10  8.7008833533441019e-11  1.6484216509212515e-10  1.1508571138728766e-09  1.3727991102408398e-10  1.5516428645514053e-10  2.6272103235212973e-10  2.9726605516477231e-10  1.0238513793707882e-10  2.0264828900668407e-10  3.9553218896710082e-10  2.7486329766111253e-10  2.5128431987076026e-10  1.2200493323217609e-10  1.0859733473470464e-10  1.0791132932663786e-10  6.8555170124102784e-11  2.2469417640974827e-10  9.4531076606042188e-10  7.2533506384908492e-11  9.2228193695550959e-11  7.8493508244560511e-11  1.0460638978867046e-10  1.5310600876087105e-10  3.8252109300811585e-10  8.6309895535675141e-11  8.4651172117663099e-11  1.6346679449933389e-09  1.8050159408080619e-09  3.0086081223772945e-10  1.8754160875764807e-10  8.4058770946880645e-11  7.5604895133840425e-11  3.8716492361790419e-10  5.3988962916659183e-11  8.3472533830222600e-11  4.3322360531361740e-11  9.9546778788820948e-11  4.2125250155566890e-10  8.2323143075440428e-11  1.8185335219036770e-10  1.7318874945712644e-10  9.8351988537831326e-10  5.4426142519088446e-11  2.1043059824783491e-10  1.1679159835110906e-10  1.0535417731892839e-10  8.6759905398579128e-10  7.8315273904484724e-11  8.4339493287700889e-11  1.0758425999088890e-10  1.1439048522495533e-09  3.6012659909224525e-11  6.4115608238866088e-11  2.6885163842744050e-10  3.1819466412215138e-10  4.1181424499882596e-10  2.0675790827955422e-10  2.1999171806400360e-10  4.4639848970404307e-10  2.4451985159774077e-11  1.0169355010305627e-10  1.4265674022781777e-10  3.3401464595653232e-11  2.9914922849198107e-10  3.1970638980036197e-11  4.2702896822227222e-10  1.2255752949481316e-10  1.0695858250535512e-10  1.7006108432328954e-10  5.9471812040598716e-10  7.5518747709444631e-11  2.2278204229669440e-11  1.2696665496362247e-10  8.5548827323421938e-11  5.7799611296000752e-11  6.4479676875200257e-11  1.6542854853503162e-10  3.5629548982594429e-11  2.8922382269843730e-10  2.5107569742256265e-10  1.0943946989277762e-10  1.2810220483063115e-10  1.0052439741315915e-11  6.3504889724224723e-11  1.4896212687035057e-10  1.6677165065905403e-10  5.0302258100386691e-10  3.3276417919905155e-11  7.6551836680044565e-11  2.6488675840343009e-11  2.2156533495305597e-10  1.1701636873679045e-10  1.9100481559902348e-10  7.2653837093571887e-11  8.7484817273677914e-11  1.1301229959153311e-10  1.9229265176909845e-10  2.2901977181823373e-10  2.3576093326843682e-10  5.0966149871491954e-10  2.4287207199086458e-10  1.9191127589287424e-10  1.5046183133037547e-10  7.5035270408956767e-11  1.4669248545784480e-10  1.5850839963759673e-10  6.5829311247998757e-10  1.3486413530068770e-10  4.9785940123233509e-11  4.3415144396894632e-10  1.6058640259274960e-10  2.1159506977131342e-10  7.7209069298614098e-11  2.7280774692910138e-11  4.1267018106939713e-11  9.0473439654537782e-11  7.6423552463220289e-10  2.8733482668630453e-10  1.6803606299280384e-10  1.4328491931794592e-10  3.5371479477224747e-10  6.4128811762489306e-11  9.7807050463824041e-11  3.7137897310710821e-10  1.5547018573584312e-09  9.3144652514616406e-11  2.6655500472924315e-10  6.0912209450682457e-10  1.2775723106477148e-09  1.9444052352245071e-10  1.5253930059696373e-09  4.6667520378865141e-10  2.2893241763615416e-10  1.1955862954829561e-10  3.6045906725350365e-11  5.8720515952481814e-11  1.2914379328952210e-10  1.3530837355239497e-10  5.3840149288028122e-11  8.2748552790919383e-11  1.0560368281075343e-10  1.0723396909031946e-10  1.6304896925944726e-10  5.6783444420791226e-10  3.1129140406348319e-10  1.7358822025975138e-10  9.3233959803347486e-11  5.5169949299323814e-11  5.9201131729618731e-11  7.5922170683232232e-11  1.8021686924222544e-10  2.8731180083903222e-10  1.0375366449087955e-10  1.0658205090002650e-10  2.3611036174459699e-10  1.3303677183840539e-10  6.6113122598821815e-11  5.4598715090999702e-11  9.7610321580445623e-11  2.9989611822989320e-11  2.0493430026330874e-10  3.4996854707513397e-11  1.6014275744114357e-10  1.8520036510160145e-10  1.7957556970167336e-10  3.9409693116820509e-10  7.4047158546996968e-11  6.8798509314974076e-11  1.6454449975448643e-10  3.7732790818436324e-10  1.5114745799546230e-10  2.5484875814208680e-10  1.0561817285744505e-10  1.4585785221564012e-10  1.7896545810297877e-10  3.0021129988507374e-10  1.1730404142406691e-10  3.1544450713115235e-11  1.2207683804943281e-10  1.1598491844733628e-10  1.4348306095107132e-10  2.5857631635146100e-10  1.7414854714928799e-10  3.1406841284483817e-11  1.2826136808476153e-10  2.2608061825995574e-10  1.9067804999774811e-11  3.4264223906132218e-10  1.5892602890998387e-10  3.2478927397951793e-10  1.2790292744050788e-10  2.6404407974699479e-10  3.1548221044479466e-10  6.8363984395833126e-11  1.0378006122952281e-10  2.4973930295760392e-10  5.7631719091280307e-11  4.9988596901152398e-10  1.2391702485090742e-10  9.2431408699125903e-11  1.1676048480614504e-10  2.2955392546208086e-10  6.7787640761536059e-10  4.2257472785096786e-10  1.5930008936745382e-10  1.9976385522878694e-10  2.4155157710272759e-10  4.1506432109499437e-10  4.0114430493107310e-11  2.4751962256167119e-10  6.9036421150489909e-11  1.3713520099973136e-09  1.0398605241000289e-10  4.5827400637259107e-11  5.4331500899746872e-10  3.5231066731827630e-10  2.4354461600281639e-10  2.5629552622286986e-10  5.5590495906227976e-11  1.4843450134620725e-10  3.4826061013167228e-11  4.6212181066422345e-10  7.5194965557920248e-11  1.1509816844658827e-10  1.3662402385169824e-10  6.9466494562902338e-11  3.5308794811763749e-10  3.3053600019494064e-11  1.0926111255236502e-10  2.7373112853670252e-10  1.7042573990274886e-10  7.8217251720065791e-10  9.5455035642008305e-11  6.1582247200985201e-10  1.4551631783247081e-10  3.0555101483266779e-10  5.9379594743181359e-10  2.2044242767715890e-10  1.5272489475332177e-10  2.7136683831303364e-10  5.0308376988092148e-10  4.2402342731755794e-10  6.2492370942801004e-11  5.2685525372654989e-11  1.6025352988227467e-10  3.9293739889798236e-10  2.0931035578369764e-10  1.1161731908314241e-10  1.5413021364051490e-10  7.7235085752011152e-11  6.9091207825340907e-11  2.2312222184550926e-10  5.5832006809985599e-11  2.2528827795994373e-10  9.5288985168609100e-11  5.6237957207754003e-10  6.3657541677397871e-10  8.4329190611637913e-11  3.3469184873042701e-11  5.0195559969008483e-10  7.3323371163603808e-10  2.4323455570746899e-10  1.0587535419988804e-09  2.8243057632241566e-10  3.2619413892008565e-10  2.4725177234754465e-10  2.4808316094190529e-10  9.9650643284398281e-11  2.3885011637523197e-11  2.0330937350667541e-10  8.7995853789545326e-11  2.0379516374370694e-10  7.4345245753261732e-11  1.3217018376304312e-10  2.2284757453633227e-09  1.6819876054906324e-10  7.3963992976466615e-11  8.4747143071742360e-11  4.4451707758971021e-10  2.1830366511989647e-10  1.8538164573043868e-10  1.9987811798008457e-10  4.2320528146924502e-11  7.7140372485414086e-10  2.6562375300794207e-10  6.5324589660765634e-10  2.8148987303966341e-10  2.1446748815596173e-10  3.2744757841359426e-10  8.9395318449514122e-11  2.9625042786017546e-11  3.1504146537664358e-11  3.9333305149785355e-10  2.7311175789470667e-11  9.5738593244830914e-11  1.3071638640642114e-09  6.8551308720958128e-11  3.2481696442769586e-10  2.7667574436334420e-10  6.5486650196096725e-11  5.3647669373685164e-11  1.3956801351487893e-10  2.5753855333140485e-10  4.3338269613862389e-11  9.9166632494620156e-11  1.6671236053793655e-10  6.6284603517772299e-11  1.8506199982762398e-10  2.0501944615524877e-09  3.0806983690584304e-10  3.1185132611685748e-10  1.0394470674677139e-10  1.0521778614582367e-10  1.7265914380572086e-10  6.1479351048429354e-11  1.2922777405212109e-10  4.9215393118087470e-10  7.8172138035582395e-11  2.3788937516433401e-10  2.5049877289828956e-10  1.4065277354772242e-10  3.9332956525546386e-11  5.9703818921391306e-11  4.2691587444972487e-11  1.5505173127436066e-10  1.0786432441644835e-10  2.1210445929440278e-11  5.8894980536995309e-10  2.6521517654219947e-11  6.6759465982084637e-10  1.2564208596991636e-11  2.9295689564416743e-10  2.2815426448343859e-10  2.5998904842614827e-10  1.0113503386002191e-10  2.3340248901787284e-11  8.1344542647229084e-11  2.6219728974944098e-11  2.3192337011405107e-10  3.8733241354503526e-10  2.3956441650282589e-10  3.1317557603178600e-10  1.2999337966964619e-10  7.6816730536254534e-11  5.1859861830907164e-11  3.9530129596434334e-10  5.6715643534911889e-10  1.1637014440189417e-10  9.8597984839689484e-11  1.3710934194259785e-10  7.4655161875421601e-11  4.4270985110282627e-11  4.0873154949948156e-11  2.4566885949370050e-11  8.4946737528757899e-12  1.4934326363427848e-11  7.8469765334556664e-11  1.5755967992640270e-12  7.8704874418801783e-12  1.8805902215919643e-10  3.9608458368373524e-09  1.9394244660552904e-10  3.0622719889388801e-11  2.2577596354406401e-10  9.9772199913673801e-11  1.1724469295431310e-10  4.1903931261329342e-11  1.3094160403916683e-11  6.6152102370278881e-11  7.2677259101133906e-10  7.2344297534096858e-11  1.9166079012018690e-10  3.4307288545991750e-10  6.9099142485504482e-10  8.3934043487993137e-11  9.7866277730137744e-11  5.3810048946012153e-11  7.0740665592212679e-11  1.0052464877733779e-10  5.5922681361753077e-11  8.8186493949375169e-10  5.7016070781675184e-11  2.7220873871851216e-10  7.5300417535691680e-11  1.1428512923521571e-10  3.2674277159402076e-10  4.0991399324523826e-11  4.8338893998708906e-11  2.7268433234659077e-10  1.0176813919664406e-11  1.2237955235394820e-10  7.5806017756535074e-11  6.3417268375747193e-11  5.9972826115731177e-10  1.9553822833187038e-09  3.5672903679334428e-10  2.7477326764401887e-10  8.1123817954887037e-11  7.1642534607638490e-11  2.6961710691019901e-10  1.1706593666548528e-10  9.1309995521706260e-11  9.7160808252606643e-11  2.2924538522482880e-10  7.4215387185409403e-11  4.6210358750876653e-11  5.7631135455651149e-11  3.5933248928794652e-11  8.3736673774355552e-11  1.7880739133232837e-10  1.7435223412827445e-10  1.0594360326037564e-10  3.6093381566431940e-10  4.3599992183863825e-11  1.4115025062022669e-10  5.3526687297533379e-10  5.7695921143612936e-11  9.1492020803051497e-11  2.6280741424426299e-09  6.4716218291322709e-11  3.6350780369539929e-10  5.2343227712418515e-10  1.4951982307403631e-10  1.1578023190472782e-10  1.2185055495566194e-10  7.4749299774443974e-11  2.1842032780117007e-10  2.8454027090824555e-10  1.7886371363345086e-10  4.4648231624856846e-10  4.7212953401370685e-10  1.3127417084213642e-10  2.2321318393618141e-10  6.3199700093868850e-11  8.5678974299484603e-11  6.0593159664638384e-11  2.4652903114563129e-10  3.9523513106459958e-10  3.0619542822791464e-10  3.6725517807117685e-10  8.6071746116559926e-11  1.8643971935117183e-10  4.3120338249159620e-10  1.8683614677326434e-10  5.3649589466586284e-10  1.7108348029729079e-10  1.2735172436974753e-10  1.0585509988671611e-10  4.7218565433117822e-11  5.0412802361771110e-11  4.0984357925887241e-10  6.4077253369147415e-11  6.2083837605964049e-11  1.3019193786545467e-10  3.2525053435703157e-10  3.9458077162158441e-10  1.5474222090968895e-10  1.0335426626559811e-10  6.7734047594796047e-10  6.8637073153261195e-10  1.8528839114068557e-09  2.7286457781162246e-10  1.7188364221473299e-10  4.3030729004675443e-10  4.8286439166826989e-10  1.2424970052770011e-09  3.1485369502000704e-10  2.6086344436339499e-10  2.7900921906563505e-11  1.2491553899727554e-10  5.0487898176611077e-10  7.6069949359806451e-10  2.1990106818270293e-10  8.2907094304821077e-10  3.1242830849989286e-10  1.6626387317639239e-11  5.2529003577495677e-10  2.9788570445315507e-10  3.5642906743926916e-11  3.2229650382248147e-10  3.9243635086364978e-10  5.4362135515383540e-10  1.4221685067782651e-10  7.7176182755377910e-10  1.9477288101534339e-10  4.1868813262552787e-11  1.2088678476161974e-10  1.2794077262726427e-10  2.4615159345148832e-10  6.9682903505496031e-11  3.2221808521202981e-10  1.7589463301185893e-10  5.8798392711886483e-12  8.8715004303043113e-11  5.4575573957337344e-11  8.6903682702640284e-11  1.2151339559810052e-10  5.8319528357464342e-10  4.4120988427383807e-10  2.9443064424863593e-10  1.0646745109883770e-10  1.4195522960339444e-10  8.7811121539404001e-10  5.4477900851509178e-10  1.4938595286255962e-10  1.3773890537771415e-10  7.5893081158952471e-11  5.3814947259205220e-10  1.5057441184242211e-10  1.9480727912698469e-10  9.8684460124775082e-11  6.2827876819031377e-11  6.1165141421540662e-11  1.5741695885068857e-10  8.3984380244051418e-11  1.4559986026991874e-10  5.4442157525617551e-10  6.8793817949690354e-11  6.7714212250213402e-10  1.3567676303172397e-10  2.2140014484357426e-10  3.1751797092876735e-10  5.6332656760604292e-10  1.0582930510986719e-10  3.8145815754505674e-11  5.5624258549396419e-11  1.3658851299830744e-10  1.4298627194174550e-10  5.7768779480838961e-10  7.7001060542176318e-11  1.3687099525868967e-10  2.2170631215664078e-10  1.2355999436511064e-10  2.5049819219596922e-10  3.3271765939584768e-10  3.2937554569485349e-10  1.1725795662120918e-10  1.9637115840018970e-10  1.5866121858285048e-10  2.2537709425699255e-10  2.9467292517591513e-10  4.0112192173135057e-10  2.0214363685980011e-10  2.2135095603571960e-10  1.2011394732111011e-10  1.4633052720432972e-10  3.0177143656746680e-10  4.2469343547525559e-10  3.8705040210864669e-10  1.5521566318045389e-10  2.0611879362063416e-10  1.9468953150764084e-10  1.4585861247812472e-10  4.1685332147145781e-10  2.5982166904328857e-11  1.0838295140080953e-10  1.2766020407419380e-10  2.7735860442848994e-08  4.4088567914789044e-10  1.8125448363724932e-10  6.2782091183439748e-11  2.7167737943396785e-10  1.5098656342423974e-10  6.1885622411500562e-11  1.0155050784669532e-10  2.1061877043300754e-10  2.0676477900156590e-10  1.8660719581153739e-10  2.0739966305098958e-10  2.9814390947995353e-10  5.5463770428431387e-11  7.7561651532504981e-11  2.1737336619240763e-10  1.2312164554613209e-10  3.3521458821204219e-11  4.4622890099268527e-10  5.7211941189934683e-11  5.7686123933637246e-11  1.8489251472288245e-10  8.9649507578796151e-11  2.4538472146711118e-10  3.2150027889219592e-10  6.1613413805395965e-10  7.3002016382906035e-11  1.7697593929853324e-10  9.2687314693680750e-11  2.5790026034409658e-11  8.0718767638136832e-11  4.5054927713199838e-11  6.2425355221053367e-11  1.9248868025601629e-10  4.2757101257584013e-11  6.1701178269774060e-11  8.3032948426401026e-11  8.3291909112288877e-11  9.1839686123029108e-11  3.3511354708117512e-10  8.1305490764815766e-11  1.6671102683733808e-10  1.9559916715379158e-10  9.9407796925243252e-11  1.5123004362092546e-10  3.1277322958912906e-10  1.1913889051751977e-10  6.1682139504416819e-10  1.8997113086516670e-10  1.5237577563589364e-10  1.4299302925848507e-10  2.2287821464987512e-10  3.9155839179656448e-11  3.5595760854912508e-11  7.1435459440715533e-11  6.1424090932021828e-10  1.7235728946769913e-10  7.4428580649504505e-10  4.6355689109732550e-10  1.1931826139258334e-10  6.3122156302771921e-10  3.7170150162801111e-10  2.0534842274174694e-10  6.6296064059425039e-11  8.3740234743210270e-11  1.5660463992393133e-10  1.8780986159435343e-10  3.4683655895274521e-11  5.2472607411082623e-10  2.7891567083258515e-10  4.8996256669029031e-10  4.2769005967327897e-11  4.3298863866189930e-10  2.4556707085553206e-10  5.6298131131710800e-10  7.8562743898646948e-11  5.5969257309017661e-11  2.6361867728777013e-10  6.7961474576220789e-11  3.6269626942300940e-11  1.3488514056492026e-10  2.1037833458458846e-11  5