<?xml version="1.0"?>
<VTKFile type="UnstructuredGrid"  version="0.1"  >
<UnstructuredGrid>
<Piece  NumberOfPoints="4852" NumberOfCells="9430">
<Points>
<DataArray  type="Float64"  NumberOfComponents="3"  format="ascii">-0.9999999999999999 0 0  -1 -1 0  0 -1 0  0 0 0  1 0 0  1 1 0  -1 1 0  0 1 0  -0.5 1 0  -1 0.5 0  -1 -0.5 0  -0.5 -1 0  0 -0.1608775713298009 0  1 0.5 0  0.5 1 0  0.1967448868031411 0 0  -0.3403826422672088 -0.1757704244709699 0  -0.3365271566321633 0.2240496363015032 0  0.1739324490579735 0.3458198087393867 0  -0.1848385453581288 0.5546847743258582 0  -0.5034937637429104 -0.5374382829797996 0  0.4904768539471452 0.2568920630488392 0  -0.06427176021936623 0.2008228864970705 0  0 -0.5061325913258391 0  -0.25 -1 0  -0.5610310206421304 0.5771468543983022 0  0.6614475110068987 0.6337112892194983 0  -0.1766848378698544 -0.537698557772224 0  -0.5386173124313213 0.02538756136023003 0  -1 0.25 0  -0.2059270833545185 0.02374356704842296 0  -0.654277400889728 0.3091578680155236 0  -1 -0.25 0  0.03921251097798659 0.5913930164407077 0  0.1950609874731499 0.1286758562197775 0  -0.1361692063312226 -0.2198383944549702 0  0.3710471061038194 0.6141572544385216 0  1 0.25 0  0.5355652144809806 0 0  -0.75 -1 0  -1 -0.75 0  -0.6447843284764979 -0.3230416964741322 0  0.25 1 0  -1 0.75 0  0.02757118475249542 0 0  -0.25 1 0  -0.75 1 0  1 0.75 0  0.75 1 0  0 -0.02898318711980711 0  0.05422119498614617 0.1420889243223793 0  -0.07760928141916966 -0.02777617217065989 0  -0.7008886265561014 -0.1323944842575479 0  -0.321332731955043 -0.3472759176749601 0  -0.3398841037387983 0.4370507259554087 0  -0.09985299197999743 0.7640291375606076 0  -0.3828842201614656 0.702422024097643 0  -0.05473334411408581 0.3985905930045215 0  -0.07881859854545237 0.07188498556303921 0  0.3589180745465972 0.3692621573288154 0  -0.7158191727970705 -0.7298990830461363 0  0.411819836978717 0.08981604057295953 0  0.6899483549563116 0.1915776456913974 0  -0.7472290663252457 -0.5269366606798093 0  -0.3873334908141129 -0.7105920099207944 0  0.7215654180655481 0.4185240517952246 0  -0.7758543126072327 0.09692989101929492 0  0.1967378293938651 0.6983918297520444 0  -0.1984728048128369 0.288213762673534 0  -0.798728545766211 0.5772464216291505 0  -0.7165602129549548 0.766197085251956 0  -0.05052149818895519 -0.3732533607463643 0  0.5846336275315454 0.816437477931965 0  0.8203093815859993 0.8058446868392498 0  -0.1051588225102561 -0.6973829421281125 0  -0.5141991939047126 0.1625522696595688 0  -0.2016085529359608 0.1254805500356018 0  -0.3588880926753941 0.07523198949953992 0  -0.3648392491207956 -0.05236567239944172 0  -0.4963338507238713 0.3947794662564362 0  0.375 1 0  1 0.125 0  -0.01184515147702422 0.0711638278327591 0  0.0621584932620441 0.3915218416961142 0  -0.171180935671165 -0.1223614947402095 0  -0.2427059777125355 0.7734996351669451 0  -0.625 1 0  0.5333778234221253 0.4540585810003898 0  -0.5757856134786067 -0.8300384452159966 0  -0.2573197017166676 -0.7836403115252213 0  -0.3195745661945933 -0.5084006554625533 0  0.83395903679994 0.5951754693165241 0  -0.548397392721786 0.7906721613716375 0  0.125 1 0  -0.06737377283071923 -0.09338377407322851 0  -0.49425536276448 -0.1432469505209281 0  -0.8750000000000001 -1 0  0.02954775333966071 0.04157240409146112 0  1 0.375 0  -0.875 1 0  0.05733492177108537 0.7937875481664548 0  -0.1960795117107147 -0.3735261071657671 0  -0.07272020578772181 0.5707831451979206 0  0.2364570149323567 0.517608248122276 0  -0.7921173274573831 0.2292773961701578 0  -0.4948143294155713 -0.3890801618653816 0  0.0001615266591295481 0.2708756029764366 0  0.5098743327356935 0.6399787009459387 0  0.3988166384893548 0.8071779082889881 0  -0.8059859707997014 0.424249912094715 0  -0.064191282168131 -0.2205381390454265 0  -0.7093833768471635 -0.01417383402876499 0  0.09049661317517824 0.0524135137641144 0  -0.4778389131848571 -0.2512943428480943 0  0.7238467213337242 0.08284663539324022 0  -0.8084404390033527 -0.4110154316298825 0  0.3374966325130759 0.1534191244178848 0  -0.7943119443300853 -0.2507939966573215 0  0.2362957480452572 0.2540816910760422 0  -1 -0.8750000000000001 0  -1 0.875 0  0.1842913574111451 0.04782872092723338 0  -0.2472083147459544 -0.2290999871262167 0  -1 0.375 0  -0.1708736645763432 -0.04175119099346024 0  -0.6485661660665247 0.4672312894486028 0  0 -0.07736776745332727 0  0.08042971151114924 0.2596501936355435 0  -0.375 1 0  -0.2166543028489934 0.4245069602090997 0  -0.1199146522585467 0.1500081738711148 0  0.1332499929356498 0.553884872486246 0  0.1319205208124734 0.1935854770783495 0  -0.4744503797263473 0.2693185266587306 0  -0.04613126684627637 0.01391977929348752 0  0.8514057521772822 0.3701767484680734 0  -1 -0.125 0  0.2855505078160049 0.8367620833103754 0  -0.1106134496638049 0.3128045261277317 0  -0.125 -1 0  0 -0.7575037395175259 0  0.07821397079968176 0 0  -1 -0.375 0  -0.375 -0.9999999999999999 0  -0.625 -1 0  0.7474787146812756 0 0  0.625 1 0  0 -0.2918843213980812 0  -1 0.625 0  -1 0.125 0  -1 -0.625 0  0.3284075310660084 0 0  0.004929205892015135 0 0  -0.125 1 0  0 -0.006571003003944568 0  1 0.625 0  1 0.875 0  0.875 1 0  -0.5623653109218563 -0.6763543425237397 0  -0.004661545627688317 0.1600897421628211 0  0.3623474503222878 0.262879783923024 0  0.6529595055905876 0.2938601187598068 0  -0.854565469217216 -0.646530910337815 0  -0.8634267598204378 0.7870576324253328 0  0.4304653496177396 0.501184265304684 0  -0.3983151199725549 0.8557590312790478 0  -0.7786464873633308 -0.8747634351204159 0  -0.8703838990502776 -0.7843119724447104 0  0.1541585234237468 0.8421053732774154 0  -0.6583177518890959 0.1526110146257008 0  -0.5773755363321735 -0.06416201299285255 0  -0.8544696679624084 -0.06254956394234094 0  -0.2956989190668471 0.561991627522387 0  -0.4234055107914126 0.5697523347046589 0  -0.3757774950506433 0.3308668065592181 0  -0.6180961540265431 -0.2163777305935243 0  -0.2726017595766351 -0.09004406574560188 0  -0.6397835901621204 -0.5885167428950315 0  0.8597016599876711 0.2660145750349612 0  -0.03278377322783384 -0.03291746886957925 0  -0.05468812263930947 0.1144851908931634 0  -0.1335713524418254 0.4318149133983959 0  -0.1196608703971223 0.03236895116652328 0  0.5377531983286773 0.06459233069562946 0  0.5792232004411295 0.3592694264730486 0  0.6913135717607436 0.7747449394489401 0  -0.7934323262464694 0.8811385067237439 0  -0.6430225370512037 -0.4291931450124455 0  -0.1170065703821962 -0.3967781820764482 0  0.8721822107845588 0.4886810571949995 0  0.07593897167737697 0.09379110705700276 0  -0.6645180770611498 0.8681501106216231 0  0.4546276074170182 0.3505308053649359 0  -0.02627189988529 0.03581526200410356 0  -0.4088122488032183 -0.4402869376107073 0  -0.3615572105863141 -0.2688347347375155 0  0.3235452915486376 0.4816287178854456 0  -0.1958827730609344 0.201372851053656 0  0.7056322506979731 0.530841053901543 0  0.2617955778023163 0.3559242455152766 0  -0.3764539625251181 -0.8518241305532013 0  0.1092006508382423 0.6818804030144698 0  -0.2847603882583396 -0.6120173533701569 0  -0.4410168947236648 -0.6200919355437243 0  0.2962120663013869 0.6922113653069862 0  -0.874814270745196 -0.1747675651273634 0  -0.1799705313685058 0.8549050668839914 0  0.4547219979863363 0.1633542464636869 0  0.280264386409409 0.04666202160287768 0  -0.1422018845110983 0.6573549252778618 0  -0.01131690271724225 0.7085324754600082 0  -0.05331542852125651 0.8749842475748693 0  0.005462093714787693 0.4696802961260667 0  -0.3874747376007308 0.1534175688832695 0  0.5491468771901511 0.1332193875348742 0  -0.4756536074466715 0.6823452787607802 0  -0.8514378134577981 0.3327309716889738 0  -0.09170088871918367 -0.5362368853057357 0  -0.02602111736107904 -0.5521134653925812 0  -0.2134620187020618 -0.2876486111175387 0  0.8684871585400255 0.151553010213169 0  -0.1696383821154991 -0.6611175900368438 0  -0.8891647917188316 -0.5284293112337219 0  -0.2815202360382879 0.3381969184631965 0  -0.6761173981578105 0.5740328047593537 0  -0.8974213465660922 0.5313657771438164 0  -0.8983689767665274 0.6609069445145582 0  -0.6442210189031131 0.07234361615875125 0  -0.8590621083300767 0.02855060797540649 0  -0.8881024000322353 0.1678546071329868 0  -0.1300303802631348 0.228856897158427 0  0.1603740819687922 0.4460779353282477 0  -0.04351378148642594 -0.1257673953266662 0  -0.75333538189629 0.6699727997076066 0  -0.6022869164233134 0.6978887627089104 0  -0.2542398146699026 0.07850185805589294 0  -0.2491698198156014 0.6487204927461575 0  -0.02739925524632772 -0.006344765289564624 0  -0.4942695220103229 0.8770027464027262 0  -0.4766922863991325 0.4904470219609066 0  -0.290275252896185 0.143994833083662 0  0.002271553106455274 0.02361285557582869 0  0.7795059042405745 0.6836300801390961 0  -0.4696868456811813 -0.8247402192293123 0  0.2719125759563484 0.1949264325194043 0  -0.1484684014886258 -0.8632928062699362 0  -0.06496852219541337 -0.8296529588017481 0  0.4433578016766165 0.7059470638412442 0  -0.1173358437791474 -0.2881416135636304 0  -0.2647346788704319 -0.02617894556432122 0  -0.8938051103887282 -0.8964931186536761 0  -0.5727536552579338 0.2371305648271853 0  -0.4759695484404768 0.08754713770878618 0  0.4911852394566019 0.8258082425939033 0  -0.02826578336345371 -0.2605009473657593 0  -0.3099718986156429 0.8753718745308101 0  -0.1429157023674609 0.08049211963673478 0  -0.4691184492021947 -0.03491011912651465 0  -0.387804984778023 0.01210658402148314 0  -0.2915662128430888 0.02755116965523277 0  -0.3847169904340248 -0.1204656647972134 0  0.8881708590168715 0.6980578762189297 0  0.7926815867864669 0.9107842334994892 0  0.5766238019080369 0.2079637338430532 0  -0.5597912861657089 -0.4694119007764277 0  0.5988600313026372 0.7059840166450208 0  0.6782016237876816 0.8883755815317329 0  -0.05099585518453521 0.3030371639433378 0  -0.9022165489260084 0.9046879712666581 0  -0.127394719499177 -0.06709925640992107 0  -0.1688613614589144 -0.1825548719575059 0  -0.2521758832075022 -0.1437029708748244 0  0.03707275972664381 0.2015310779711534 0  0.9017989269
[...]
<PointData  Scalars="w"> 
<DataArray  type="Float64"  Name="w"  format="ascii">1.7461470478750407e-10  1.0334536862534352e-11  4.4440080531869884e-10  2.6260937965534862e-09  6.2415240562865677e-10  1.5622052245418649e-12  8.6706095600406177e-12  7.4926130131293592e-11  4.0496285309472446e-11  2.1108469468283017e-11  1.0797363043331485e-10  9.6124764613546650e-11  4.0373762670333860e-10  2.7674725889895612e-10  9.1278130284307641e-12  5.2480981463571542e-10  9.1053602092553998e-11  7.2332878971216633e-11  1.3087687361079075e-10  3.5595873680027974e-10  6.7108620349658298e-11  1.0437861136946821e-10  5.7408191874150469e-10  3.8694708032476934e-08  5.7910912690698116e-10  1.0848427710848316e-10  8.8897543691012138e-11  1.7072270933019604e-10  7.6691324835708739e-11  1.8828930580323891e-11  4.6854725574553290e-10  9.8028197761128983e-11  2.4352332388809206e-10  1.8124346732740308e-10  4.5447687414175514e-10  2.2549248715811501e-10  7.8214264874009827e-11  4.7790909556410353e-10  5.8693565220218857e-10  3.1179723406968180e-11  5.2465967654794847e-11  1.0832381672975642e-10  9.2617307485883787e-11  1.9630069802047656e-11  1.0483104276316879e-09  8.8068604882366893e-11  3.1972558434597460e-11  9.6206665092061483e-11  1.2429254936069618e-12  5.8854028055673445e-10  2.2074333492607430e-10  2.1363455396900766e-10  8.2686423414293420e-11  2.5237129004072023e-10  2.5993120904521118e-10  2.0538032017630809e-10  3.5781905704869698e-10  8.9293132213751284e-11  5.7850047593566231e-10  2.5198378863477606e-10  3.1392666349981353e-11  3.1469610377085131e-10  3.7882561854254452e-10  1.4392531573332651e-10  5.4108731301191252e-11  1.7810556885522733e-10  7.0722470509592933e-11  1.7885640957521409e-10  2.3335348526926522e-10  4.6038004306019469e-11  6.4954397196728369e-11  4.4474669528357680e-10  5.6844995779841702e-11  8.8185818899080622e-11  1.7522057654645688e-10  1.7051865604383773e-10  2.5684635853140980e-10  2.9062106285084747e-10  1.8300576137223812e-10  1.9565586900185401e-10  6.5064736513837035e-11  2.5225684768936634e-10  2.6251550228155671e-10  2.0116714585708884e-10  2.3414353504887139e-10  1.2513055126601976e-10  4.6481056114972650e-11  1.0994996707235180e-10  9.4798395562053221e-11  2.5340218002294306e-10  6.9178592299550536e-11  9.9396199077447755e-11  7.8439727103350847e-11  9.4543411576616828e-11  3.8914524478148614e-10  2.0997098390574352e-10  2.5495959246996783e-11  6.5263434940523004e-10  2.5684918187004212e-10  3.1548174287839786e-11  2.7762349350019093e-10  4.1292702463271653e-10  7.1203591099127343e-11  9.7239998241570941e-11  1.5704572584488639e-10  6.3791733500578564e-11  2.7409011877987411e-10  8.3455799013072943e-11  1.4720471119766996e-10  6.6138363058698813e-11  3.1074908162598094e-10  2.4769661552668125e-10  2.3168317979635314e-10  6.4524177717815637e-10  1.2106648187094101e-09  1.4932456257088828e-10  1.6526329769190038e-10  1.0252927465841642e-10  4.5900463011852042e-10  2.5954819639476880e-11  2.5614922672175235e-11  2.7800146387903677e-10  9.1458759732963501e-11  6.1293782996007544e-11  5.0207832105215983e-10  5.7502723962229386e-11  5.9638628959770346e-10  1.1859736978641959e-10  7.7059130979986351e-11  8.2720680035432932e-11  3.4221721870393087e-10  1.7300473507901715e-10  4.6522140970049708e-10  1.3519241707826118e-10  6.2060036496666791e-10  4.4443652595371443e-10  1.0926949309916651e-10  5.2138085253682574e-11  1.3015200803711837e-10  2.5782131340966784e-10  3.3870600202338338e-10  6.0326942569390367e-10  9.3195766771603353e-11  1.1969561110019788e-10  6.8829643057851684e-11  6.5623179334458510e-10  8.6050377999571832e-11  3.3232796299425458e-10  1.4763098436236253e-10  1.2423635245583214e-10  2.0064159533543066e-11  2.8313293922148253e-10  1.5777287344072150e-09  5.6986233302707261e-11  9.6065772082066847e-10  7.9061619663841102e-11  2.4424344278395731e-11  2.4152550613983883e-11  1.2209671806896158e-10  5.5985281088027443e-10  4.4476961707894259e-10  1.6114464519665013e-10  1.1529732550065914e-10  1.6698993523218916e-10  1.8750850822964005e-10  5.8676066467605771e-11  7.8013104009808119e-11  2.0403084400264422e-11  6.0151720431366177e-11  2.9563942491695515e-10  9.2360785313360701e-11  1.0624403353849508e-10  8.2753529972642430e-11  9.6465173765138942e-11  5.3358472320131389e-11  9.6055959726008697e-11  4.5623487173944437e-10  5.7060370452042044e-11  1.6413704119500119e-10  1.7159293355475574e-10  4.6349456188888566e-10  1.9854462382799539e-10  2.8245605851893715e-10  1.4291414399177226e-10  1.4511857556052185e-10  1.5064235489813044e-10  2.1141652268656806e-11  2.8825978066541981e-10  6.6330409585680104e-10  2.5579271828580851e-11  2.5117789244514358e-10  8.9478047230838761e-11  1.5799504722316331e-10  1.1085085699667150e-09  1.3725932557253491e-10  1.6381037286030199e-10  2.3429942323235389e-10  2.8780167683764888e-10  1.0604834695570008e-10  2.0484580722549270e-10  4.2059308013056385e-10  2.1945829689279535e-10  2.3960306924216624e-10  1.1013156265570149e-10  1.1284710272037377e-10  1.1322162377848204e-10  7.1480603693959867e-11  2.0853456032359388e-10  8.8413824308209660e-10  7.8146564438609525e-11  1.0857925511852767e-10  7.7903518258528462e-11  9.7095535600392511e-11  1.6246818553847836e-10  3.7747588574925332e-10  7.9487059741683706e-11  8.5379586064603530e-11  8.2593544610418812e-10  9.3418062476818301e-10  2.9271602926620177e-10  1.9985795145431508e-10  7.7424989369801569e-11  8.1111354132551439e-11  3.3727492732793081e-10  5.8843363494904393e-11  8.3747853359471113e-11  5.0293900877296983e-11  9.3595651995179504e-11  4.1528133027949168e-10  9.0709504852823225e-11  1.9742186578553350e-10  1.6651490058878211e-10  9.0102182387983669e-10  6.2016142754534514e-11  1.9931236270851624e-10  1.1538983950009350e-10  1.1250139587042307e-10  7.4748450361369471e-10  7.5503465673722583e-11  8.5468622348462172e-11  1.1811007009707931e-10  1.1119586088746789e-09  4.1083790967016883e-11  7.7974231696362473e-11  2.7915871789693024e-10  2.5418803713666135e-10  3.4942861283621984e-10  1.8320109320012159e-10  2.0456816703828097e-10  4.0463370743814571e-10  2.9486620942903084e-11  1.0566036765930026e-10  1.2837966836931993e-10  3.7704494800929525e-11  2.7596458840685404e-10  4.3929096845973205e-11  3.3376490938231047e-10  1.3617202468647320e-10  1.1053550075464865e-10  1.9161128503188896e-10  5.0360186703091962e-10  7.3339125687305878e-11  2.7022334823074663e-11  1.4482526564909729e-10  8.2341585982675214e-11  5.9616415927068877e-11  7.6407661695643267e-11  1.7930152427997010e-10  4.9220803843773510e-11  2.6360703679890412e-10  2.5439168426340683e-10  1.2898636220858790e-10  1.2875285912818655e-10  1.3723832328810836e-11  7.1513550664494802e-11  1.4655675051979211e-10  1.6898204436748893e-10  4.9739831809234172e-10  3.6948883903849729e-11  8.2242399143768941e-11  3.3494223928748815e-11  2.3845802267206215e-10  1.2595979604005295e-10  1.8564540353611544e-10  7.5313077686425914e-11  8.8241133540247011e-11  1.2092905659288089e-10  2.0314138494596319e-10  2.2422110846460175e-10  2.6164537138186728e-10  4.3763306089683605e-10  2.1440302108717482e-10  2.0989323715437756e-10  1.4533828500341770e-10  8.0061290713360148e-11  1.7178976959705049e-10  1.6641397489318955e-10  6.2471549634061439e-10  1.2984483187137911e-10  6.2445001368358162e-11  4.0685536248070493e-10  1.8970976012929141e-10  2.0881486677266210e-10  1.2535071635178023e-10  3.2761404676853721e-11  4.4939770043600365e-11  9.8975367354031193e-11  6.8059173381404386e-10  2.9311364178671397e-10  1.8104473052680719e-10  1.3681244433708575e-10  3.3525680021027211e-10  6.7434511497696667e-11  1.0947177981657257e-10  3.5320352786639710e-10  1.1973878277394787e-09  9.9259697359282617e-11  2.8265608168507604e-10  6.1324250959523815e-10  1.2276370207482217e-09  1.9772772366390794e-10  1.5250332064345698e-09  4.1815792900636719e-10  2.2602220818085864e-10  1.1557033079273953e-10  4.1894682931988123e-11  6.6056787604911821e-11  1.2680618975041682e-10  1.5704529394626834e-10  6.3815467042350309e-11  9.8876202318423697e-11  1.0727223430243708e-10  1.2793126592874732e-10  1.9247295740226055e-10  4.9674218356380228e-10  3.1888935236881834e-10  1.6653518612274440e-10  9.6216759165030185e-11  6.1909080094989940e-11  5.9365657847601096e-11  7.0964360175261583e-11  1.8251607979865299e-10  2.2759772995498068e-10  1.0631635629453795e-10  1.0598425571639508e-10  2.3942571617215443e-10  1.3675417181504133e-10  6.9903949712920019e-11  5.9623689371453597e-11  1.0556224418872998e-10  3.4330904408605630e-11  1.8736569029080527e-10  3.3060107826702467e-11  1.6113778306889496e-10  1.7960729203402507e-10  1.5205340723363335e-10  4.0027691490145285e-10  7.9634712344553237e-11  8.3243002863353172e-11  1.4531488972488635e-10  3.0908307831699424e-10  1.4397540712331877e-10  2.6351118444913892e-10  1.1101279818070108e-10  1.3609289726387561e-10  1.5778376148007556e-10  2.7983933167614922e-10  1.2770018227872592e-10  3.3817005323055300e-11  1.1796274161325731e-10  1.1248816638872374e-10  1.4833615879622544e-10  2.5397717890104262e-10  1.7139778499707416e-10  3.5104550391667529e-11  1.2974082819121463e-10  2.3179842414580008e-10  2.9144949103725447e-11  3.3045845186580341e-10  1.6374398905258084e-10  3.8907687975203325e-10  1.1288916443135173e-10  2.3779599445669655e-10  3.2579590157498543e-10  7.5862745609422872e-11  1.0574154121829986e-10  2.1863521714163742e-10  7.3652473999734959e-11  4.8257138532316280e-10  1.5988527793638586e-10  9.8488456636022198e-11  1.0884883784454100e-10  2.1013202257926274e-10  5.4159363012616141e-10  4.7693517033351281e-10  1.8058416509621008e-10  1.7246118124871222e-10  2.0880044154928738e-10  4.0207065152510819e-10  4.5649626576453990e-11  2.2628886710160433e-10  8.2125719234841483e-11  1.2406308167605215e-09  1.1839762942720828e-10  4.6182514581089048e-11  5.4906700667776862e-10  3.3197321173526039e-10  2.4750000225754947e-10  2.1123515795303157e-10  6.4261730889964807e-11  1.5379146849159221e-10  3.3595570315093814e-11  4.3880288046089018e-10  8.2315453874377456e-11  1.3788899441353339e-10  1.2772681628788135e-10  6.6307856606713461e-11  3.4878455528463118e-10  4.3377524861580865e-11  1.1829203653895829e-10  2.4482250571985287e-10  1.7907219972611883e-10  7.1217851082267382e-10  9.2812981240670522e-11  5.7577107416391996e-10  1.4806502887535844e-10  3.5404835106946267e-10  5.5007498160660312e-10  2.4393210002266211e-10  1.5512688956072606e-10  2.7221509430595957e-10  4.8026986322187845e-10  3.4522344281819488e-10  7.5614058581683993e-11  4.9661065185600525e-11  1.6362038361403764e-10  3.5671348509541913e-10  1.8689406938332416e-10  1.2728424516799600e-10  1.7174187260559218e-10  8.1554384547088045e-11  7.1559678866955726e-11  1.9962938681871536e-10  5.8200335243982017e-11  2.0755353247671028e-10  9.0842245132361761e-11  4.7994982333496518e-10  4.9724340983534817e-10  8.2131541471389134e-11  4.1871085873468243e-11  3.9715708380891657e-10  6.4830846522876786e-10  2.5897900035387879e-10  9.8433236308454867e-10  2.8798054352300602e-10  3.1695146213306007e-10  2.7253760807356886e-10  2.6597155941293853e-10  9.7788333500045408e-11  3.1373633091778081e-11  1.9457441047416224e-10  1.0604946093439754e-10  2.1542058802589809e-10  7.5578561428999830e-11  1.2408098803863973e-10  2.0456956070120145e-09  1.7704838554283264e-10  8.1124841790714248e-11  8.2732323156728714e-11  3.9953620143769602e-10  2.4296403547814859e-10  1.8984884819652752e-10  2.0822412414669540e-10  4.4789595932130768e-11  7.5519670621891468e-10  2.4214620515939821e-10  5.3430908599161817e-10  2.4975362622618287e-10  2.4250447671571287e-10  3.1258352247561606e-10  9.4540030432892600e-11  3.3091460219469410e-11  3.6123684002945733e-11  3.6796129181374988e-10  3.5934474084585651e-11  1.1682340990504484e-10  1.0189815982727454e-09  7.5274846038956945e-11  3.5079792514096567e-10  2.6311125056877484e-10  6.2098072877984556e-11  6.0136250068956095e-11  1.7994593026720555e-10  2.4524483103001779e-10  4.8595799206917483e-11  1.1344138334555818e-10  1.6138438280225743e-10  7.5970696535981060e-11  1.7036611599099638e-10  2.1216623234124483e-09  3.6661754938355225e-10  3.1959672568001836e-10  1.0699499352705930e-10  1.0788948151911170e-10  1.8815926849321240e-10  8.0469982400904933e-11  1.3452785861398610e-10  4.9866297615251564e-10  8.7079981878853661e-11  2.4256201428204551e-10  2.1591062462166586e-10  1.3913505759142554e-10  5.1486122194853262e-11  7.7851880867501332e-11  5.5497523427796753e-11  4.9943330522214291e-10  1.0647125588023674e-10  2.2121677676757313e-11  5.7072634529657559e-10  3.0692856331535702e-11  6.2117326808777083e-10  1.1672526689679957e-11  7.2522185115215462e-10  1.7597567338795176e-10  2.4980501045189114e-10  1.0494750299244851e-10  2.8729763696385108e-11  8.5567557604888761e-11  2.7988737871617110e-11  2.0706926284777962e-10  3.7257254356257914e-10  2.7158799232269931e-10  3.2910797502295704e-10  1.3517037655064604e-10  9.4290509845915873e-11  6.3416121047406874e-11  3.6107665185333433e-10  5.0315266604292467e-10  1.0605567383892828e-10  1.0088083565221080e-10  1.4692876564030651e-10  7.6559857372525138e-11  4.5674963809540028e-11  5.4662599335978615e-11  3.1992912475740875e-11  8.8645884522191913e-12  1.7817222993253446e-11  9.8684694566560737e-11  2.2272715942311113e-12  1.0937717030459899e-11  1.8603445367972048e-10  3.4870177264062491e-09  2.2467668637780283e-10  4.2511864205671720e-11  2.2059990846011923e-10  9.3270829817286303e-11  1.1266553994335296e-10  4.4043673028295359e-11  1.7066615569796802e-11  8.7787013131625208e-11  7.2880929757509385e-10  7.9905213932625546e-11  1.8374641836346652e-10  3.2415687883458674e-10  4.8606829746725096e-10  9.6488797772503087e-11  1.0195810481847576e-10  5.8491126830487048e-11  7.7024719639535259e-11  1.1220832071573501e-10  5.7638316335511027e-11  6.1742622215459728e-10  5.9306732942072187e-11  2.7755239093148626e-10  8.8215605454479650e-11  1.2803450538051707e-10  3.1244864534444675e-10  4.1616790259172510e-11  6.3194464028408583e-11  2.8668770897097305e-10  1.1943707676807336e-11  1.1363512294154068e-10  8.8391961999248131e-11  7.6849383584962287e-11  5.6176050990801651e-10  1.6136575315032109e-09  3.0463843438277685e-10  2.8916854887256745e-10  9.0871728762198112e-11  6.9466638615981516e-11  2.5492478353722306e-10  1.1777336049889015e-10  9.9672003899433730e-11  1.0473859126062728e-10  1.9900966650780754e-10  7.4203704011467624e-11  5.2769420253844621e-11  7.0664883993971113e-11  3.9814635637909917e-11  8.6745166859148027e-11  1.9135700525589948e-10  1.6231537257185395e-10  1.1183823232208666e-10  2.7812745495235221e-10  4.7337816303639631e-11  1.3638644408897234e-10  5.2162822735259621e-10  6.6808244669684281e-11  1.1790249281227192e-10  1.3934661886214766e-09  5.8432030974205447e-11  3.3653830831850237e-10  5.1077811584820790e-10  1.5801231779355900e-10  1.2860558916540326e-10  1.2597888336608858e-10  9.0074327260433023e-11  2.4838007526507008e-10  2.8582835400041623e-10  1.7776150930724443e-10  4.6752237829972313e-10  4.2315542874743289e-10  1.2185816093661746e-10  2.1116978553450786e-10  6.6736365077518335e-11  8.5022537122792214e-11  6.2716952889605415e-11  2.3987391965945502e-10  4.0083416162232289e-10  3.0786578704946191e-10  3.2456569825034066e-10  8.6143791128079415e-11  2.2736375951426536e-10  4.7879888127151662e-10  1.7215175411947684e-10  4.8128896636044011e-10  1.8348816817952638e-10  1.3851629375640890e-10  1.1175762345893692e-10  5.1392548300461144e-11  5.4528975624662604e-11  3.3181451004228552e-10  6.2930959212288150e-11  6.4737789290598576e-11  1.2966467412365134e-10  3.2157521611703041e-10  3.1968857657542836e-10  1.5764388052430949e-10  1.1767499885329548e-10  5.9038459641939031e-10  6.2752824912907918e-10  1.5968452572362923e-09  2.6793207700523642e-10  1.9898570680488679e-10  4.4290098694126849e-10  4.5561462823981279e-10  1.1671365460171482e-09  2.9668063563398771e-10  2.4682220301321627e-10  3.3094799956392399e-11  1.2944984158098458e-10  3.3123995914320561e-10  5.2243709661546894e-10  2.1320638650215791e-10  6.6558617192391010e-10  3.0574044250300998e-10  2.1501273819586256e-11  4.8413730424355701e-10  3.3250304662546637e-10  3.8806766100341397e-11  3.3382381920373449e-10  4.1403089861953497e-10  5.4376747990461886e-10  1.4568515686668323e-10  6.7214977928341990e-10  1.9563504153691840e-10  4.7450907324366510e-11  1.2743649088351823e-10  1.3279346725067869e-10  3.1391539222380934e-10  7.9024401770474321e-11  2.6503342042873748e-10  1.9561233420167118e-10  8.1374151923656298e-12  2.2175352218822755e-10  5.8072270817686548e-11  9.0389055985307445e-11  1.2423565046131864e-10  6.3094724185597087e-10  4.1175479360137459e-10  3.0377967852434937e-10  1.1725676340956624e-10  1.3247105531237665e-10  8.9752298002231077e-10  5.3924638583226426e-10  1.3482763264675910e-10  1.4240999270442895e-10  9.3389582739981408e-11  4.8836220343714135e-10  1.3890063758450131e-10  1.7476751192666787e-10  9.5226655581319391e-11  7.0643950244210917e-11  6.3466131856138433e-11  1.4977454220426534e-10  9.8159359619877840e-11  1.2960579371390702e-10  4.3525902604173121e-10  7.6920224071939217e-11  5.9534006058650000e-10  1.2753147962566518e-10  2.2420127575754977e-10  2.8141608149357521e-10  5.4889322761395923e-10  1.1633549974672812e-10  4.1139530759039373e-11  6.3000500314451514e-11  1.4204550743029678e-10  1.5904389202395848e-10  5.1744860992315939e-10  8.4321412119846231e-11  1.6236361817840097e-10  2.5206814723473471e-10  1.3742510175330456e-10  2.3618693068185688e-10  3.3192056486319602e-10  3.1179702827230487e-10  1.0512056611670614e-10  1.7501405505800332e-10  1.4909786859898176e-10  2.2829649845701022e-10  4.9605064021399081e-10  3.7428172518615954e-10  2.0209339631978822e-10  2.0565353990223269e-10  1.2541231609581683e-10  1.7242467636155190e-10  2.9997643251419671e-10  3.8119566935529453e-10  3.6171532566574559e-10  1.6587123506643908e-10  2.2014227960145296e-10  1.9515794610342474e-10  1.5417925830735633e-10  3.9906027286733766e-10  3.1685488220382960e-11  1.0561739606983885e-10  1.2707358178100685e-10  3.0711400965816915e-08  4.0750303329812507e-10  1.7667034768079523e-10  6.1193176377789072e-11  2.5692289985738111e-10  1.3828397989542724e-10  6.4590183124817679e-11  1.0559140709231554e-10  2.0284331264498834e-10  2.0622201830983679e-10  1.9508143540973789e-10  1.8954642800664703e-10  3.0924848575182478e-10  6.5378389433374947e-11  8.0297711199767815e-11  1.9159213953010124e-10  1.2253280102926911e-10  3.5453210786486870e-11  4.0276700452595979e-10  6.4757836169250313e-11  6.1939381078416573e-11  1.9396904693276082e-10  9.9205540044007905e-11  2.3729352811378152e-10  2.9283397909369843e-10  1.8386766877003622e-10  7.8593490045279953e-11  1.8778504667391527e-10  9.6446913295836773e-11  3.2717921522676081e-11  9.0681286063575444e-11  5.8295247607196218e-11  7.8684405643989132e-11  2.2527962763684655e-10  4.7397361764340523e-11  6.6409113849203241e-11  9.4703952300288534e-11  9.3784071501276365e-11  9.4037384308010131e-11  2.5684755621429552e-10  8.7783531844876690e-11  1.8461436431038663e-10  2.0182571865336294e-10  9.8968679567049385e-11  1.6086634968374647e-10  3.1535774111581650e-10  1.2428243182793748e-10  6.1477122125056483e-10  1.7114325031074316e-10  1.4949469896418310e-10  1.3871372189296306e-10  2.2843320909758089e-10  4.4174503129837425e-11  3.9996978086638592e-11  7.7055962284684197e-11  4.3501769736000914e-10  1.9999967366052274e-10  6.3847531302986792e-10  4.4263268251938163e-10  1.2139394127358006e-10  5.4733440908497302e-10  3.6479661154906534e-10  1.8890976691435930e-10  7.0972656741762954e-11  9.3761578833647757e-11  1.7455172410326282e-10  1.8782186593506695e-10  4.1599298916630980e-11  4.8348213134079427e-10  2.7877127317910633e-10  3.0687910127940026e-10  5.3579176507287962e-11  3.5216967432916762e-10  2.6684395718035919e-10  5.8000454500047299e-10  7.3468851639942021e-11  6.1695795351619395e-11  2.3934347590478990e-10  7.2747833237788645e-11  4.2656353617533075e-11  1.4780843817301071e-10  2.4328210806468946e-11  6