<?xml version="1.0"?>
<VTKFile type="UnstructuredGrid"  version="0.1"  >
<UnstructuredGrid>
<Piece  NumberOfPoints="4852" NumberOfCells="9430">
<Points>
<DataArray  type="Float64"  NumberOfComponents="3"  format="ascii">-0.9999999999999999 0 0  -1 -1 0  0 -1 0  0 0 0  1 0 0  1 1 0  -1 1 0  0 1 0  -0.5 1 0  -1 0.5 0  -1 -0.5 0  -0.5 -1 0  0 -0.1608775713298009 0  1 0.5 0  0.5 1 0  0.1967448868031411 0 0  -0.3412060211940393 -0.1759918017054559 0  -0.3374609183126875 0.2246688873129173 0  0.1738360502676321 0.3469806936699357 0  -0.1854927270066548 0.555475390879964 0  -0.5039722422642904 -0.5376625317368319 0  0.4906434940829159 0.2577545776964714 0  -0.06484343367614932 0.2016882023338934 0  0 -0.5061325913258391 0  -0.25 -1 0  -0.5615763442883783 0.5775748583054631 0  0.6615372099441633 0.6340783352474019 0  -0.1770354464905915 -0.538031110624536 0  -0.5394731406990469 0.02556358623412232 0  -1 0.25 0  -0.2068151070681852 0.02398458668639501 0  -0.6548812895158979 0.3095394671579297 0  -1 -0.25 0  0.03877759950211503 0.592312199560186 0  0.1952654196378757 0.1294189524510327 0  -0.1366720000244334 -0.2201972690215855 0  0.370984894511155 0.6149848962605445 0  1 0.25 0  0.5355652144809806 0 0  -0.75 -1 0  -0.9999999999999999 -0.75 0  -0.6452844853852699 -0.3232184940925503 0  0.25 1 0  -1 0.75 0  0.02757118475249542 0 0  -0.25 1 0  -0.75 1 0  0.9999999999999999 0.75 0  0.75 1 0  0 -0.02898318711980711 0  0.0541306830715818 0.1428756969645397 0  -0.0780347915106173 -0.02780482438305808 0  -0.7014291929814263 -0.1324489215837133 0  -0.3220100395466562 -0.3476379380693513 0  -0.3406671366509412 0.4377437952190957 0  -0.1002680721448902 0.7645595364477286 0  -0.3834105844400628 0.7028711148690651 0  -0.05533517127570924 0.3996196816395967 0  -0.07934456691604176 0.07230417562560044 0  0.3590012091606059 0.3703349020779448 0  -0.7159455903474768 -0.7299710538806133 0  0.4120216350917886 0.09024633056888982 0  0.690043379521178 0.1919665176563423 0  -0.7474664851421663 -0.5270592016580297 0  -0.3878009761500135 -0.7107850227786577 0  0.7216530664692996 0.4189889140896601 0  -0.7763089228983905 0.09706108238981884 0  0.196551678883827 0.6991375895787654 0  -0.1992940044270319 0.289051538187498 0  -0.7990005564237662 0.5775248876694467 0  -0.7168296219006868 0.766403182837785 0  -0.05112045922119881 -0.373697021506156 0  0.5846986554336322 0.8166950587128665 0  0.8203686134967642 0.8059054645292555 0  -0.106447248323094 -0.6974479407313573 0  -0.5150695369498581 0.1629611052443073 0  -0.2024847757993326 0.1260416474317122 0  -0.3598796336055486 0.07558602645609402 0  -0.3657892765463701 -0.05230560296151283 0  -0.4970715989552232 0.3953152607572772 0  0.375 1 0  1 0.125 0  -0.01206015926133115 0.0716005364499812 0  0.06179410313179058 0.3926435476493489 0  -0.1718491912401226 -0.1225941693483065 0  -0.2431591135963515 0.7739208536191413 0  -0.625 1 0  0.5334721636828225 0.4548564927754521 0  -0.5759515677896487 -0.8301402084590659 0  -0.2579108503647644 -0.7837872632235457 0  -0.3201696629472321 -0.5087154184319781 0  0.8340345360617242 0.5953271324169149 0  -0.5487760602210889 0.7909171005226606 0  0.125 1 0  -0.06768024724030286 -0.09356089422499039 0  -0.4950491619200414 -0.1433212194150824 0  -0.8750000000000001 -1 0  0.0295728203708257 0.04184061450651595 0  0.9999999999999999 0.375 0  -0.875 1 0  0.05707041395473638 0.7943239030662724 0  -0.1965633234970283 -0.3739912063801279 0  -0.07329430474538723 0.5716556377142296 0  0.2363062569933485 0.518646521173543 0  -0.7925255041032643 0.2295074438446756 0  -0.4954139587587583 -0.3893322050854892 0  -0.0002759620048019779 0.2719144767199407 0  0.5099088294981294 0.6405896990086997 0  0.3988003420749905 0.8076165443534757 0  -0.8063021626845512 0.424534374978668 0  -0.06451303832667735 -0.2207512578396804 0  -0.7099548904749896 -0.01411409765304101 0  0.0906256494895757 0.05277157082621756 0  -0.4785508993079343 -0.2515108366485346 0  0.7238731174608851 0.08300538822593109 0  -0.8086763055879067 -0.4111387759436096 0  0.3377411101624623 0.1541837871381601 0  -0.7946462825566775 -0.2509118447530321 0  0.2364210995287007 0.255152542330406 0  -1 -0.875 0  -1 0.8750000000000001 0  0.1844424226021159 0.04818209297720031 0  -0.2479161258774715 -0.2294531068326617 0  -1 0.375 0  -0.1716360930574653 -0.04176549880065058 0  -0.6490919890887812 0.4676350849804619 0  0 -0.07736776745332727 0  0.08023027766691679 0.2607269451497641 0  -0.375 1 0  -0.2174285468016398 0.425338221574001 0  -0.1206202287150322 0.1506910358634032 0  0.1329627800363732 0.5548873223105886 0  0.1319465956283902 0.1945536609342044 0  -0.4752983813447056 0.2698372032622142 0  -0.04644478807824495 0.01402725329404243 0  0.851459475242047 0.3704006331552657 0  -1 -0.125 0  0.2854858734106498 0.8371724214532373 0  -0.1113177577812642 0.3137582915639285 0  -0.125 -1 0  0 -0.7575037395175259 0  0.07821397079968176 0 0  -1 -0.375 0  -0.375 -1 0  -0.625 -1 0  0.7474787146812756 0 0  0.625 1 0  0 -0.2918843213980812 0  -1 0.625 0  -1 0.125 0  -1 -0.625 0  0.3284075310660084 0 0  0.004929205892015135 0 0  -0.125 1 0  0 -0.006571003003944568 0  0.9999999999999999 0.625 0  1 0.875 0  0.875 1 0  -0.5626610936799588 -0.6765146838138895 0  -0.004992567696719322 0.1609029559111761 0  0.3625380703847799 0.2638851875719234 0  0.6530839132595009 0.2944477490068432 0  -0.8546530398213307 -0.6465938025040253 0  -0.8635355688637005 0.7871723270282698 0  0.4304896907208781 0.5021040630135262 0  -0.3986329798669807 0.8559872911173957 0  -0.7786872690720674 -0.8747796871072359 0  -0.8704209382659771 -0.7843322927994749 0  0.1540285491189456 0.8425361951719338 0  -0.6589746221402438 0.1528888856490201 0  -0.5781344618083563 -0.06413576821254841 0  -0.8547621902777564 -0.06255849789699124 0  -0.2963802749307965 0.5626601259122976 0  -0.4240519377608806 0.5703005344534405 0  -0.3766292313013433 0.3315248571139657 0  -0.6187042450653993 -0.2165126115074926 0  -0.2734877813488103 -0.0901351980724487 0  -0.6400793660060656 -0.5886632094387453 0  0.8597586984922264 0.2661603076505009 0  -0.03294752278883026 -0.03296876862192915 0  -0.05515904498297351 0.1151012265165075 0  -0.1342763984510862 0.4327479704263186 0  -0.1203250096629895 0.03261643921888342 0  0.5378248117018546 0.06482770569880156 0  0.5793380010091758 0.3600418165097779 0  0.6913901267416809 0.7749369121001407 0  -0.7935613967030193 0.8812129528913332 0  -0.643443145908008 -0.4293661500170277 0  -0.1171590016331088 -0.3973186471168718 0  0.8722350093863243 0.48884496095681 0  0.07599641494478895 0.09437741528001997 0  -0.6647322236073155 0.8682628103217952 0  0.4547559939743639 0.3514980494692235 0  -0.02650595282324205 0.03604504416344235 0  -0.4094313663101187 -0.4405866897857412 0  -0.362296423834146 -0.2691404958368949 0  0.3234991490629541 0.4826662436661878 0  -0.1967348172088413 0.2021029304569735 0  0.705735986277522 0.5312428051165469 0  0.2618129163630259 0.3570676571115702 0  -0.3767839001462266 -0.8519411167750593 0  0.1088953512876469 0.6826595187333869 0  -0.2853653643479635 -0.6122597828613693 0  -0.44148995634001 -0.620315001540122 0  0.2960987668845483 0.6929308124411573 0  -0.8750460611184643 -0.1748347295703088 0  -0.1802845381390358 0.8552119245143972 0  0.4549170761696439 0.1640594737524677 0  0.2804099380680478 0.04692515476932661 0  -0.1427591553860747 0.6580455091169691 0  -0.01174152413931582 0.7092142829123094 0  -0.0535343018579141 0.8752971206251036 0  0.004960065249965255 0.4707245819478051 0  -0.3884360376763307 0.1539088096908793 0  0.5492730351968701 0.1336910004240406 0  -0.4761700676955991 0.6827591380277156 0  -0.8517069620441162 0.3329596832497961 0  -0.0915703672337147 -0.5365434906280973 0  -0.02689619636295094 -0.5522790364969083 0  -0.2140754785450492 -0.2880652300220224 0  0.8684958180629315 0.1516527147316495 0  -0.1704551933986658 -0.6612663810594744 0  -0.8892634067580215 -0.5285134609607869 0  -0.282368840026793 0.3389591171047875 0  -0.6765429060253539 0.5743888079965029 0  -0.8975682711280145 0.5315498921279485 0  -0.8984777386938796 0.6610579229140228 0  -0.644919590495601 0.07253493117927722 0  -0.8593576324537063 0.02859814068065777 0  -0.8883463574992759 0.1679504809488023 0  -0.1307665513615479 0.2297019442704241 0  0.1601659438455484 0.4471973084634592 0  -0.04368635452449104 -0.1259256510899942 0  -0.7536238168048996 0.6702424567121189 0  -0.6027101313693775 0.6982148732099681 0  -0.2551931804131343 0.07891124483465835 0  -0.2497607980060666 0.6493322157016924 0  -0.02756311598940311 -0.006357654447339113 0  -0.4945524581336357 0.8771621657927271 0  -0.4773700966097745 0.4909852806015286 0  -0.2912404799885709 0.1445405527286676 0  0.002229237895465414 0.02376507260026944 0  0.7795922933112114 0.6837789096802989 0  -0.4699472267794511 -0.8248786837649654 0  0.2721307954656718 0.1958473279722703 0  -0.1490441514351036 -0.863385106428765 0  -0.06572149977997295 -0.8297528676042794 0  0.4433427003142842 0.7065330441096778 0  -0.1177865322811251 -0.2885397440379288 0  -0.2656734954402412 -0.02608907801506047 0  -0.8938183407704234 -0.8964976507620783 0  -0.5735118696824871 0.2375439275377048 0  -0.4768995576477755 0.08786948164144093 0  0.4912217607083252 0.8261408136268098 0  -0.02856692486395638 -0.2604889789896825 0  -0.3102677922198949 0.8755878645668973 0  -0.1436732180693843 0.08094005472879733 0  -0.4700135965934928 -0.03480837501440201 0  -0.3887812029903836 0.01230687033728379 0  -0.2925430826259173 0.02780320885506778 0  -0.3855997761827108 -0.1205464886213686 0  0.8882216821264017 0.69811646576193 0  0.7927364834273913 0.9108012398574509 0  0.5767619994160875 0.2085819728876048 0  -0.5602689600453697 -0.4696217385415566 0  0.5989304724001683 0.7063727923637836 0  0.6782723871927492 0.8884646867156636 0  -0.05158281051264187 0.3040513932986029 0  -0.9022676597175709 0.9047341284583066 0  -0.1279922713261801 -0.06722524518137153 0  -0.1694640111388798 -0.1828896900744453 0  -0.2529728918066462 -0.1439306525955976
[...]
<PointData  Scalars="w"> 
<DataArray  type="Float64"  Name="w"  format="ascii">1.7297815308186924e-10  1.0332849879579506e-11  4.4484435220276359e-10  2.7325838721816142e-09  6.2424703032550839e-10  1.5620771061785473e-12  8.6649087680637139e-12  7.4329371121578614e-11  4.0197918625837123e-11  2.1015817841534149e-11  1.0738729099570927e-10  9.5536726176407495e-11  4.0593259572534020e-10  2.7527358896495861e-10  9.1042223947300395e-12  5.3067640507567388e-10  9.0723373250604784e-11  7.2001876639260113e-11  1.3051098095914861e-10  3.5211806150982161e-10  6.6655326458923212e-11  1.0410699834377210e-10  5.7495788770981684e-10  2.7335851637282364e-09  5.7417787049612473e-10  1.0751526437190765e-10  8.8564898058996899e-11  1.7035127039304457e-10  7.6180378319801480e-11  1.8741619727647888e-11  4.6878983697534585e-10  9.7106864252883796e-11  2.4155949839182243e-10  1.7918192838090036e-10  4.5803605510899408e-10  2.2603079258519044e-10  7.7340429080703227e-11  4.7634325830050033e-10  5.8869809650556264e-10  3.1170141260872349e-11  5.2379566851019537e-11  1.0753308387760233e-10  9.1893668635826340e-11  1.9518427480812552e-11  1.0658858231315057e-09  8.7612731766568295e-11  3.1897035531095650e-11  9.5967720176706970e-11  1.2459135366181816e-12  5.9575286651155602e-10  2.2302290086736367e-10  2.1602455016894520e-10  8.2118159732430835e-11  2.5116021959597592e-10  2.5774172342050049e-10  2.0257223846117567e-10  3.5406910271245145e-10  8.8734740187767178e-11  5.8565018031607565e-10  2.5035867903361457e-10  3.1242667029495072e-11  3.1541301046121690e-10  3.7779401982726030e-10  1.4301947791742484e-10  5.3787475189163558e-11  1.7753625452911863e-10  7.0018894223626213e-11  1.7723119303025778e-10  2.3235271695319240e-10  4.5743110532383699e-11  6.4526492930761177e-11  4.3226320367522137e-10  5.6404496117292218e-11  8.8002691717865285e-11  1.7383351507126347e-10  1.6917814914039464e-10  2.5686574480815855e-10  2.8830285797908692e-10  1.8211290525996371e-10  1.9381333977103089e-10  6.4612929722662673e-11  2.5213035807528222e-10  2.6698786474193224e-10  1.9946226631990528e-10  2.3437807550911170e-10  1.2384676242873190e-10  4.6104763978701312e-11  1.0929509883218052e-10  9.4242592119102207e-11  2.5075685310185854e-10  6.8800718376532407e-11  9.8808847891338285e-11  7.7798784126859806e-11  9.3500209730619191e-11  3.9185872462544387e-10  2.0840451527518603e-10  2.5484582747537680e-11  6.6471282309178681e-10  2.5584177542734277e-10  3.1425785071046031e-11  2.7377211030406272e-10  4.1226420742126798e-10  7.0864031357933803e-11  9.6514436838475518e-11  1.5564526603346692e-10  6.3365148969616733e-11  2.7365262270692676e-10  8.2594136570850116e-11  1.4575967814925327e-10  6.5647134408764277e-11  3.1417771926169971e-10  2.4514777476148220e-10  2.3514527842327554e-10  6.4037512129411134e-10  1.2113584002587468e-09  1.4823541750735791e-10  1.6655442824832402e-10  1.0182732071611237e-10  4.5852372747295770e-10  2.5935883234622522e-11  2.5558024612241453e-11  2.7986642066951685e-10  9.1391593105417541e-11  6.0771531367422564e-11  5.0424238762573998e-10  5.6976260868036930e-11  6.0604701460271149e-10  1.1866171167864321e-10  7.6506881870569058e-11  8.2145688788960177e-11  3.4291386533193229e-10  1.7099242720322495e-10  4.6538351727359069e-10  1.3405482692063163e-10  6.3145689891242050e-10  4.4079181309070487e-10  1.0838849556625147e-10  5.1713959608768993e-11  1.2977283835964363e-10  2.5692922461259433e-10  4.1224868440853126e-10  6.1360152132669470e-10  9.2502181013039897e-11  1.1849756283873512e-10  6.8495246073490466e-11  6.5709220392398469e-10  8.5553058289842884e-11  3.3756825435240090e-10  1.4657129337048296e-10  1.2312827644231925e-10  2.0007854027238262e-11  2.8433261236151631e-10  1.6101813767617120e-09  5.6591128166124195e-11  9.8131340881689710e-10  7.8738982839931509e-11  2.4369215437956464e-11  2.4148601136658320e-11  1.2131241482169372e-10  5.6341100513034841e-10  4.4516286909547728e-10  1.6099852026453426e-10  1.1481594648258751e-10  1.6606365141514899e-10  1.8669728528501205e-10  5.8189036602483339e-11  7.7792703275534521e-11  2.0369467766164913e-11  5.9524417466592475e-11  2.9238059146713264e-10  9.1849882433445324e-11  1.0532362799242042e-10  8.2267351494308716e-11  9.5649570957604078e-11  5.3069453406587284e-11  9.5347276635922306e-11  4.5499631221976237e-10  5.6807242440993074e-11  1.6395111007277917e-10  1.7329552967392194e-10  4.6731926885948425e-10  1.9692396893231283e-10  2.8444425177308042e-10  1.4336898082580224e-10  1.4442821099193385e-10  1.4974323358144592e-10  2.1058820294563495e-11  2.8575449234056034e-10  6.6281798065847691e-10  2.5440333617125899e-11  2.5336161836628688e-10  8.8856556893536414e-11  1.5729104605327884e-10  1.1337726206826573e-09  1.3634472632296491e-10  1.6346692054750013e-10  2.3267082168012404e-10  2.8667357198474661e-10  1.0575877167130827e-10  2.0397605317941076e-10  4.1698135715224292e-10  2.1757135783060993e-10  2.3819138143691232e-10  1.0930746568459919e-10  1.1197367748589464e-10  1.1216034678873663e-10  7.0651490126514577e-11  2.0824467343491787e-10  8.9022969254532532e-10  7.7407402409000171e-11  1.0736995705189557e-10  7.7507931722878631e-11  9.6408715316454663e-11  1.6177275861557259e-10  3.7733951006480862e-10  7.9023685774820329e-11  8.4402230694395321e-11  8.3445508883971632e-10  7.5915967474567887e-10  2.9208674295014004e-10  1.9995910697017873e-10  7.6765349804966607e-11  8.0662315623047567e-11  3.3431807666905784e-10  5.8380908705551966e-11  8.3054943231041475e-11  5.0063194333533829e-11  9.2849994322933849e-11  4.1033367218455347e-10  8.9892571451694398e-11  1.9726605949263821e-10  1.6524497034228700e-10  9.0749148807245468e-10  6.1616477716079482e-11  1.9752832122000316e-10  1.1537307027649108e-10  1.1133052555349018e-10  7.5945163326001911e-10  7.4803564393623929e-11  8.4794935104154005e-11  1.1786559407474932e-10  1.1417990445066911e-09  4.0926475988519149e-11  7.7500718760179337e-11  2.8036469555555495e-10  2.5197031927611097e-10  3.4840657017933370e-10  1.8116458942857732e-10  2.0452877061749102e-10  4.0344115610690800e-10  2.9469161453908928e-11  1.0496249931869854e-10  1.2746099420429403e-10  3.7456096600756826e-11  2.7455899281382063e-10  4.3552887611301530e-11  3.3526915214703042e-10  1.3551993587112289e-10  1.1003318020148014e-10  1.9157601958770149e-10  5.0085926643901602e-10  7.3115272311241918e-11  2.6951278091895355e-11  1.4463614145207379e-10  8.1737279053411666e-11  5.9292161023971833e-11  7.5885356340831697e-11  1.7865061275393138e-10  4.9008049906808229e-11  2.6511560730090314e-10  2.5453542993484572e-10  1.2924131555382239e-10  1.2942980306150761e-10  1.3700546505153132e-11  7.1588933741473424e-11  1.4760031219697707e-10  1.6726705873231559e-10  5.0340978082992527e-10  3.6722223353559723e-11  8.1949341207012068e-11  3.3413901147882116e-11  2.4079858477609729e-10  1.2502279501444106e-10  1.8398756854820552e-10  7.5329851643716901e-11  8.7148447415257391e-11  1.2022977244412773e-10  2.0117242588405322e-10  2.2379421864896724e-10  2.6025218463136440e-10  4.3987130477333449e-10  2.1321328148839686e-10  2.1054698563607449e-10  1.4377021562625556e-10  7.9517469439200354e-11  1.6972045363359531e-10  1.6460468290146718e-10  6.3399183593821276e-10  1.2914911200160092e-10  6.2093171574951987e-11  4.0840889521019862e-10  1.9179414398449360e-10  2.0681546531596617e-10  1.2387125360456431e-10  3.2697579880460000e-11  4.4764696758007329e-11  9.8227553385720235e-11  6.8463969999028893e-10  2.9611594629178293e-10  1.7995888005859064e-10  1.3533441418255764e-10  3.3376754710692787e-10  6.7012297413072373e-11  1.0909143461779392e-10  3.5522482415824837e-10  1.3070624355860658e-09  9.8655889631945642e-11  2.8337619812861200e-10  6.2021695510911302e-10  1.2469106503424617e-09  2.0039350762179922e-10  1.5481810828537650e-09  4.2042631675144368e-10  2.2603596569041322e-10  1.1640234470759094e-10  4.1533273413543312e-11  6.5522269267423726e-11  1.2627599866519986e-10  1.5585993630780180e-10  6.3319014657011731e-11  9.9004906857327671e-11  1.0674894234648059e-10  1.2686042781783046e-10  1.9424701710576340e-10  5.0351452155696197e-10  3.2011795110891083e-10  1.6546740134721647e-10  9.5318446533525842e-11  6.1455658668818566e-11  5.9096249861015745e-11  7.0470067545221661e-11  1.8069553187816525e-10  2.2607500886138349e-10  1.0503386708565744e-10  1.0427115300017502e-10  2.3687059400821075e-10  1.3612910550587975e-10  6.9394657839226442e-11  5.9134168902532730e-11  1.0535003700771206e-10  3.4104507557772767e-11  1.8500331504024910e-10  3.2849407763741800e-11  1.6069311538953027e-10  1.7935032719147706e-10  1.5151906967894187e-10  3.9747338012463294e-10  7.9183417117041281e-11  8.2607203877606816e-11  1.4414439386601488e-10  3.0640780425682374e-10  1.4311602251169763e-10  2.6322685046540630e-10  1.1032088681916545e-10  1.3456552092490854e-10  1.5551003387827946e-10  2.7866360824615294e-10  1.2787040738204472e-10  3.3636438290820740e-11  1.1703339941992332e-10  1.1165537115344534e-10  1.4672876867126294e-10  2.5095105852535396e-10  1.7024985850954064e-10  3.4751620743768024e-11  1.2869783947312951e-10  2.3211087769138413e-10  2.9064199230291853e-11  3.2882786035413708e-10  1.6409142648450438e-10  3.9586938428521312e-10  1.1209306149427076e-10  2.3561873458891802e-10  3.2345055000528297e-10  7.5238987697213510e-11  1.0545637336555680e-10  2.1724122211514790e-10  7.3390323802045131e-11  4.8373648518401468e-10  1.6026957427812449e-10  9.7550092103552198e-11  1.0810043319057263e-10  2.0856067420984700e-10  5.4379968429506445e-10  4.8197134084708042e-10  1.7884876475995923e-10  1.7101781329305116e-10  2.0648858056654222e-10  3.9785306252987215e-10  4.5395969013898869e-11  2.2432831133867401e-10  8.1523235801736517e-11  1.2447929987318373e-09  1.1759179170630715e-10  4.5808960242473193e-11  5.5637524565775821e-10  3.3235881469500917e-10  2.4601363909726677e-10  2.0924355162107324e-10  6.3771800521508433e-11  1.5248813415086945e-10  3.3312847878059530e-11  4.3628177333853119e-10  8.1721136371063788e-11  1.3624500150683512e-10  1.2655117168446526e-10  6.5699475639925925e-11  3.4634586041306909e-10  4.2825067073162966e-11  1.1683956468769577e-10  2.4439148542269955e-10  1.7852122655968309e-10  7.1656954094069828e-10  9.2354270575655777e-11  5.7676916134395389e-10  1.4742628028319480e-10  3.5870039202900212e-10  5.5995556175805914e-10  2.4405918907548638e-10  1.5438241840546375e-10  2.7374582498983129e-10  4.8459235835367343e-10  3.4382199695905807e-10  7.5010875608075696e-11  4.9285039433497213e-11  1.6422277856523685e-10  3.6016031598057912e-10  1.8455250528768932e-10  1.2630293330242336e-10  1.6947220539410711e-10  8.1200257613784456e-11  7.1040252628552224e-11  1.9837254410736303e-10  5.7742125144397848e-11  2.0577046947425197e-10  9.0288301806735539e-11  4.8195673415463867e-10  4.9084735715826737e-10  8.1646420040929826e-11  4.1613673383592239e-11  3.9600277438109456e-10  6.5205263559970552e-10  2.5797178961925942e-10  1.0006350041997693e-09  2.8844284298322091e-10  3.1744478814019340e-10  2.7719721431411847e-10  2.6827801015523528e-10  9.7087529937857081e-11  3.1263968323384742e-11  1.9294368722270452e-10  1.0467595224615905e-10  2.1305981173165897e-10  7.5313365617486999e-11  1.2303224583894373e-10  2.0952440948890238e-09  1.7704250378828275e-10  8.0870953008617285e-11  8.2207755506841552e-11  4.0161870616138415e-10  2.4248354932458130e-10  1.8935148018535380e-10  2.0736602184222811e-10  4.4558118468631626e-11  7.6228574102513456e-10  2.4127893368974449e-10  5.3447576032816492e-10  2.4908368178213089e-10  2.4019193967136723e-10  3.1030010053274783e-10  9.4458547785918489e-11  3.3082843635164983e-11  3.6107879638650372e-11  3.7383181060478384e-10  3.5747338093485724e-11  1.1587198876743437e-10  1.0246981797667470e-09  7.5085457829571879e-11  3.4884215149944738e-10  2.6204122223225639e-10  6.1878921742614140e-11  5.9847120026161885e-11  1.8105729038777570e-10  2.4582869914992077e-10  4.8371213317273880e-11  1.1284814945420198e-10  1.6001025591577194e-10  7.5607796361239278e-11  1.6929958407901756e-10  2.1550656992448324e-09  3.6220034733763251e-10  3.2007698684596211e-10  1.0724901789757313e-10  1.0757202293046079e-10  1.8616512160602740e-10  8.0042554770193675e-11  1.3370892703763688e-10  4.9503598783903470e-10  8.6396467385320753e-11  2.3920390913516830e-10  2.1336370162274650e-10  1.3906901299759325e-10  5.1104727005582104e-11  7.7348061404557515e-11  5.5058386481409023e-11  4.1097106235254322e-10  1.0560224246637446e-10  2.2101859697165560e-11  5.7194972222508335e-10  3.0583675912455613e-11  6.2169621266330269e-10  1.1690698327970096e-11  8.4354374138123154e-10  1.7540576181445704e-10  2.4696208742738108e-10  1.0399282689959046e-10  2.8665203472276980e-11  8.4846868279744623e-11  2.7820799036237338e-11  2.0602275118815874e-10  3.7267035823333501e-10  2.7128257596044273e-10  3.3417230399583554e-10  1.3620295948636774e-10  9.3268805542234230e-11  6.3142949072822335e-11  3.6656582627825220e-10  5.0161064354169606e-10  1.0525380047372548e-10  1.0008299767518762e-10  1.4575913889354467e-10  7.6502402682459068e-11  4.5381897391569710e-11  5.4297355092862301e-11  3.1845609216026861e-11  8.8590738046117136e-12  1.7789137523274782e-11  9.8488126717403475e-11  2.2257301506947769e-12  1.0935884265495913e-11  1.8660571332330268e-10  3.5074548214383656e-09  2.2187947882244830e-10  4.2317916661120455e-11  2.1901459138393564e-10  9.2556547959700018e-11  1.1186989809009062e-10  4.3911707030020701e-11  1.6995641773189552e-11  8.7353622322594259e-11  7.4822985820588455e-10  7.9649026549864717e-11  1.8363759643467595e-10  3.2337949310368483e-10  4.8392815659814722e-10  9.6449243041158578e-11  1.0161523746492420e-10  5.8101911790120462e-11  7.6727608982893594e-11  1.1146339703149937e-10  5.7187851618862476e-11  6.1656220323821261e-10  5.8956452351836249e-11  2.7926760753418277e-10  8.7574063303851745e-11  1.2760390531136120e-10  3.0830083258773139e-10  4.1433128222505241e-11  6.2516439160237344e-11  2.8305586084906411e-10  1.1868709300536018e-11  1.1278071443062238e-10  8.7829052131532462e-11  7.6524374535676196e-11  5.6316653025532830e-10  1.6191781229086922e-09  3.0036427004396933e-10  2.8958706194937396e-10  9.0250145569448167e-11  6.9086555213040728e-11  2.5250976469011201e-10  1.1723301371614004e-10  9.9011409206348277e-11  1.0397480817089659e-10  1.9695717555022474e-10  7.3646512450056565e-11  5.2684222734396539e-11  7.0509850499140506e-11  3.9771258835284408e-11  8.6553310456300264e-11  1.9194001597635405e-10  1.6202458316840678e-10  1.1164076451639932e-10  2.7803129377455808e-10  4.6972671859173656e-11  1.3557413914687194e-10  5.2615582555614060e-10  6.6320167520562152e-11  1.1706608774551898e-10  1.3918415094925606e-09  5.7859643539596993e-11  3.3739301225371094e-10  5.1535063472006070e-10  1.5792870471234072e-10  1.2785699812374702e-10  1.2541936652740028e-10  8.9946773115578963e-11  2.5283668308054305e-10  2.8638588826320710e-10  1.7698840912025664e-10  4.7173419290255509e-10  4.2403615830177026e-10  1.2064648456158339e-10  2.0893743322866582e-10  6.6503328967111589e-11  8.4473482510663519e-11  6.2466035109483051e-11  2.3786059633073256e-10  4.0033131891064810e-10  3.0803970647237020e-10  3.2349005279286672e-10  8.5496243634763524e-11  2.2991615476730676e-10  4.8309709813685758e-10  1.7072738429637765e-10  4.7530127232991702e-10  1.8180644450436540e-10  1.3758893363364624e-10  1.1099478215819762e-10  5.1010636042409568e-11  5.4169684889308950e-11  3.2964962200766936e-10  6.2407899806093895e-11  6.4540066398064892e-11  1.2909200383165622e-10  3.1943625440107176e-10  3.1764512262535676e-10  1.5697946650662124e-10  1.1751641462936105e-10  5.9920827374545746e-10  6.3026487874567250e-10  1.6328735564522070e-09  2.7197675875848872e-10  2.0076099231005011e-10  4.4770393154530599e-10  4.5232321320768841e-10  1.1927565563212661e-09  2.9815329562119113e-10  2.4530332491687212e-10  3.2856162957808915e-11  1.2822486464395495e-10  3.3231386226809666e-10  5.1367792891502794e-10  2.1432585347308054e-10  6.6345936166659993e-10  3.0207709154312613e-10  2.1418210443749495e-11  4.7839874411627458e-10  3.3572463946612351e-10  3.8580905363352988e-11  3.3350429344478324e-10  4.1371861995376443e-10  5.4282179832629386e-10  1.4527875507606244e-10  6.6870144985967555e-10  1.9405106708395141e-10  4.7067516479514869e-11  1.2684834800970529e-10  1.3182862385742581e-10  3.1664220144253948e-10  7.8209894663924949e-11  2.6240401994916609e-10  1.9410320101900878e-10  8.0974248572406492e-12  2.3815248020939119e-10  5.7895384488377372e-11  8.9661316335754201e-11  1.2349613467306008e-10  6.3757930811798690e-10  4.1568953944733510e-10  3.0745151676197932e-10  1.1642469889586362e-10  1.3144896392891002e-10  9.1385827604995964e-10  5.4976600380362050e-10  1.3378753905047918e-10  1.4162529650282095e-10  9.2948105053414372e-11  4.8531291627728920e-10  1.3745634644409733e-10  1.7321703260881244e-10  9.4383783466222213e-11  7.0363553927468965e-11  6.3295714727849984e-11  1.4845378764867794e-10  9.7266985969501834e-11  1.2858315051005089e-10  4.2833829200076867e-10  7.6101507277633684e-11  6.0596490903215681e-10  1.2638650653324860e-10  2.2385172929034615e-10  2.7835553320691073e-10  5.5820308305719313e-10  1.1556259695921084e-10  4.0837695473250403e-11  6.2563952014536867e-11  1.4142349986466004e-10  1.5798858627565482e-10  5.1173600273669717e-10  8.3869650434999416e-11  1.5992784506137934e-10  2.4978384465832168e-10  1.3671642076195269e-10  2.3471912472833809e-10  3.3072884700260269e-10  3.1185919793053013e-10  1.0394270994287217e-10  1.7393075451528761e-10  1.4810775087750015e-10  2.2701689949664375e-10  4.8060209454382613e-10  3.7349529537873998e-10  2.0151437462168678e-10  2.0318468310238427e-10  1.2392229515117849e-10  1.7185775418978160e-10  3.0106649002482835e-10  3.8106587195772756e-10  3.6202168694150169e-10  1.6577368577280462e-10  2.1950811318859153e-10  1.9358427727664632e-10  1.5271518219250570e-10  3.9792788585819562e-10  3.1525655477251470e-11  1.0482541661706790e-10  1.2621321619814224e-10  4.2344958042623485e-08  4.0465604005454115e-10  1.7582013106127728e-10  6.0788915245865302e-11  2.5700774921311676e-10  1.3718648875632100e-10  6.3967607715200218e-11  1.0490517824492133e-10  2.0265592158767338e-10  2.0480548247038706e-10  1.9286473358902586e-10  1.8780643848352214e-10  3.0670204624442116e-10  6.4493838289792343e-11  7.9811934190682966e-11  1.9011133869438342e-10  1.2190030212872465e-10  3.5387194901939719e-11  3.9919508922552271e-10  6.4233305989264362e-11  6.1668840995984725e-11  1.9271877064202444e-10  9.8303725303891291e-11  2.3642958225226569e-10  2.9147631509174041e-10  1.3558457191190629e-10  7.8625374305250994e-11  1.8584929868171874e-10  9.5790720654985276e-11  3.2648820964010874e-11  9.0459154983113483e-11  5.7978604787296883e-11  7.8712228888718726e-11  2.2884742480855158e-10  4.7079040853074444e-11  6.6080038987415994e-11  9.4202294847763724e-11  9.3161558917557254e-11  9.3404321178749958e-11  2.5729235805729500e-10  8.7588705507627714e-11  1.8312863814902224e-10  2.0214208385442746e-10  9.9168777342436944e-11  1.6095912470831152e-10  3.1465637719443676e-10  1.2329101129319178e-10  6.1954009364319148e-10  1.6977757011965011e-10  1.4840740210172147e-10  1.3902433366197058e-10  2.2616118740785173e-10  4.4072836417691421e-11  3.9895520167699209e-11  7.6541635108597333e-11  4.3310810834104133e-10  2.0084400614984258e-10  6.3466785911411295e-10  4.4367031754045264e-10  1.2045561769318541e-10  5.4931634430533618e-10  3.6415768466988327e-10  1.8760522835125806e-10  7.0239565891582189e-11  9.2980303606393866e-11  1.7417521014283633e-10  1.8786954416346365e-10  4.1420515653596015e-11  4.8062832678729340e-10  2.7653760061481318e-10  3.0227385994602803e-10  5.3458374820299330e-11  3.4952367773289812e-10  2.6504551188161357e-10  5.9259846638023811e-10  7.3079245490065007e-11  6.1305496969848670e-11  2.3883273011751719e-10  7.2286680433408144e-11  4.2357835308304490e-11  1.4657065719569455e-10  2.4234130783922514e-11  6