<?xml version="1.0"?>
<VTKFile type="UnstructuredGrid"  version="0.1"  >
<UnstructuredGrid>
<Piece  NumberOfPoints="4852" NumberOfCells="9430">
<Points>
<DataArray  type="Float64"  NumberOfComponents="3"  format="ascii">-1 0 0  -1 -1 0  0 -1 0  0 0 0  1 0 0  1 1 0  -1 1 0  0 1 0  -0.5 1 0  -1 0.5 0  -1 -0.5 0  -0.5 -1 0  0 -0.1608775713298009 0  1 0.5 0  0.5 1 0  0.1967448868031411 0 0  -0.3435814123737163 -0.176549253994585 0  -0.3409960543518581 0.227363338438241 0  0.1744151428277032 0.3497736733510393 0  -0.1881324030931719 0.5585240115682957 0  -0.5064275019407792 -0.5401654488169672 0  0.4914694854858792 0.2604911100675625 0  -0.06653274468229817 0.203607233091639 0  0 -0.5061325913258391 0  -0.25 -1 0  -0.5661031315066199 0.5804935835706787 0  0.6634276379569469 0.6379508848669537 0  -0.1756917029064553 -0.5397033152785222 0  -0.5424170089213659 0.02646865208291268 0  -1 0.25 0  -0.2088655057705686 0.02487274420253941 0  -0.6577687892705748 0.3134845274367704 0  -1 -0.25 0  0.03853604699124936 0.5951754820111049 0  0.1952151112676341 0.131240293215864 0  -0.1372679423713896 -0.2209559401760867 0  0.3727406108627724 0.6177332499723943 0  1 0.25 0  0.5355652144809806 0 0  -0.75 -1 0  -1 -0.75 0  -0.6474366498494871 -0.3249537778702973 0  0.25 1 0  -1 0.75 0  0.02757118475249542 0 0  -0.25 1 0  -0.75 1 0  1 0.75 0  0.75 1 0  0 -0.02898318711980711 0  0.05309777457349946 0.1441788584839243 0  -0.07848909689257831 -0.02693666477930782 0  -0.7037104006568001 -0.1328674105115607 0  -0.3236732718043857 -0.3494111955998022 0  -0.3442813348243667 0.4408280269056531 0  -0.1013527126780855 0.7661397676906775 0  -0.3869938468232554 0.7053295342351983 0  -0.05663398559624973 0.4026467083587636 0  -0.08019155228965373 0.072867864288282 0  0.3602072645156873 0.3735933416595349 0  -0.7194226311760883 -0.7329535138402514 0  0.4125041003741738 0.09162230284297881 0  0.6903985660745848 0.194200850999832 0  -0.7498527852958199 -0.5303555839560046 0  -0.3896260621365362 -0.7123343502220624 0  0.7220224671116399 0.4229871815841132 0  -0.7785104723131528 0.09873339254532099 0  0.1982736071589181 0.7016413741915103 0  -0.2020865599945987 0.2918994879264262 0  -0.801206897545189 0.581033405865693 0  -0.720848405443377 0.7686509282945782 0  -0.04017900889838719 -0.3750156753964883 0  0.5870825464372644 0.8197080111025969 0  0.822357974282225 0.809677541970111 0  -0.1000555885887413 -0.6975374436705483 0  -0.5181115228100118 0.1658960840949723 0  -0.204920834537883 0.1276941472840081 0  -0.3630023214072121 0.07703397386158944 0  -0.3686948277493225 -0.05174404966363762 0  -0.5011328366927897 0.3987601599380134 0  0.375 1 0  1 0.125 0  -0.01306996962490174 0.07147119621181566 0  0.06153893864067423 0.3956525058856584 0  -0.1734969938579843 -0.1224234090294179 0  -0.2462473857623945 0.7755156224899186 0  -0.625 1 0  0.5351773844030531 0.4586027539158439 0  -0.5789588807283474 -0.8315134534437719 0  -0.2579641392494132 -0.7843356819172895 0  -0.3214406058205097 -0.51070485870924 0  0.8347046257455353 0.598702309340633 0  -0.5523912377214593 0.7928972077869841 0  0.125 1 0  -0.06852231655343616 -0.09305012154455593 0  -0.4982101144957672 -0.1436530329780748 0  -0.875 -1 0  0.02820269840216562 0.04205153122839444 0  1 0.375 0  -0.875 1 0  0.05744072014871539 0.7962104411009108 0  -0.1963061696777067 -0.3757025732906015 0  -0.0748369788543178 0.5746210873293282 0  0.2376063476379403 0.5216032317961332 0  -0.7939952311510893 0.232321144922446 0  -0.497831980507475 -0.391345675287411 0  -0.00128028772485151 0.2743264631777472 0  0.5122822918909696 0.6438689674285343 0  0.4009035936833731 0.8095652671366503 0  -0.8076731091451096 0.4282663624135635 0  -0.06373829446262951 -0.2219800058351252 0  -0.7122623190696431 -0.01362518423824936 0  0.08989898324187359 0.05377011805917264 0  -0.48135589006215 -0.2527999836937709 0  0.7241198652043138 0.08396244208398272 0  -0.8103310955325641 -0.4133573036255984 0  0.3383029060162375 0.1563966988656499 0  -0.7961530977734689 -0.252406323014312 0  0.2370184771147169 0.2575419682363014 0  -1 -0.875 0  -0.9999999999999999 0.875 0  0.1843162499737528 0.04934130928755293 0  -0.2496309198582382 -0.2302050669679659 0  -1 0.375 0  -0.1732143002336127 -0.04121417510502218 0  -0.6525752288865003 0.471129101543179 0  0 -0.07736776745332727 0  0.07996718877610094 0.2631471653457148 0  -0.375 1 0  -0.2209559205135412 0.4283578770638187 0  -0.1224924081516456 0.1522403661814361 0  0.1339623129521671 0.5576279552613999 0  0.1317680543540462 0.1966526778494833 0  -0.478872596040737 0.272904279974998 0  -0.04618619855761375 0.01449159153091858 0  0.8509961171674276 0.3734783174751581 0  -1 -0.125 0  0.2868044112334733 0.838918543601748 0  -0.1135187070695016 0.3165318702728572 0  -0.125 -1 0  0 -0.757503739517526 0  0.07821397079968176 0 0  -1 -0.375 0  -0.375 -1 0  -0.625 -1 0  0.7474787146812756 0 0  0.625 1 0  0 -0.2918843213980812 0  -0.9999999999999999 0.625 0  -1 0.125 0  -1 -0.625 0  0.3284075310660084 0 0  0.004929205892015135 0 0  -0.125 1 0  0 -0.006571003003944568 0  1 0.625 0  1 0.875 0  0.875 1 0  -0.5656893824660271 -0.679028870940123 0  -0.006144280558016624 0.1622432291381978 0  0.3635343680116292 0.266308816783459 0  0.6537435278103005 0.2973419527581266 0  -0.8558721601906362 -0.6499496996693662 0  -0.8664521063611953 0.7901701980703001 0  0.4319787170113022 0.5055086969592109 0  -0.4004867500078858 0.8575144154274449 0  -0.7816074245878712 -0.8758669570500326 0  -0.8718147661084129 -0.786951102254431 0  0.1555971631945072 0.8438818863437576 0  -0.661568608709994 0.155616523822172 0  -0.5808604154165036 -0.06428994425036205 0  -0.8560317231425315 -0.06231671756800641 0  -0.3001305090089081 0.5654978421080954 0  -0.4281695993706202 0.5732507393543451 0  -0.3803957518666639 0.3348977901758624 0  -0.6209264487334032 -0.2175554000925183 0  -0.2757513454576742 -0.090016131813915 0  -0.6430459712525749 -0.5919697699823712 0  0.8596349467117015 0.2675461750911514 0  -0.03322364501730623 -0.03234803149684386 0  -0.0563434019713999 0.1159119812165229 0  -0.1366559839750029 0.4357976403930747 0  -0.1212298166503332 0.03342023688351212 0  0.5381898407923607 0.06577091652453468 0  0.5805951486972385 0.3638698698003208 0  0.6938355005617302 0.7783419127899074 0  -0.7977120570823529 0.8827087882638747 0  -0.6459680504647828 -0.431695803558507 0  -0.1134585160610806 -0.3987853718274508 0  0.87189551240111 0.4921240501968617 0  0.07501109417777506 0.0954975458876216 0  -0.6678732175551506 0.870287736671553 0  0.455950734617853 0.3547730894141012 0  -0.02653007874461548 0.03570817442517988 0  -0.4113609978989921 -0.4429539956602369 0  -0.3646258531219645 -0.2704302028760698 0  0.3250594418837002 0.485990270074725 0  -0.1993738112196606 0.2042122455110052 0  0.7069395613145723 0.535075701080857 0  0.2627949477206385 0.3601217614861255 0  -0.3787446135271115 -0.8521971007090133 0  0.1095969358632685 0.6849207949361314 0  -0.2858335303549039 -0.6137970917959019 0  -0.4438680514652352 -0.6224300576508113 0  0.298047910074842 0.6955893765541481 0  -0.8756575339375623 -0.175491477322813 0  -0.1820843169195964 0.8568066251181938 0  0.4555915608053296 0.1664100181090573 0  0.2805597620815631 0.0478061552493628 0  -0.1448812301325238 0.6602305064150626 0  -0.0124701955607868 0.7111617062494772 0  -0.05392882493379499 0.8768281481731139 0  0.004293364010793656 0.473673761898197 0  -0.3918953798196644 0.1562416426839965 0  0.5499445095201746 0.1355109892217068 0  -0.4802548770685583 0.6853256623528814 0  -0.8528245677409495 0.336024580315898 0  -0.0842089959274256 -0.5379077667384385 0  -0.01656629343791556 -0.5531141461248383 0  -0.2148634141940726 -0.2893958630634941 0  0.868428673519094 0.152775172967769 0  -0.1684617348519988 -0.6621085992326176 0  -0.88977174773533 -0.5309514953845815 0  -0.2857584073328814 0.3421223912917346 0  -0.6800168283572918 0.5778593017908012 0  -0.8984045467426517 0.5341048166556264 0  -0.900056442232756 0.6638133379145084 0  -0.6474679677202306 0.07411655759977342 0  -0.8607127153569033 0.02949704671002014 0  -0.8893900915459154 0.1689189017644142 0  -0.1329357281910397 0.2319745383929821 0  0.1611113831187387 0.450364416509464 0  -0.04433336329049022 -0.1258187408592808 0  -0.7569382411063571 0.6729599150573524 0  -0.607146586229978 0.7005451139160345 0  -0.2578023201488726 0.08028601777775676 0  -0.2531813240647597 0.6518202334740815 0  -0.02729196424289817 -0.005756331924194874 0  -0.4976888885035314 0.878253003480305 0  -0.481810534933097 0.4944328789108468 0  -0.2941918224463035 0.1465219923859004 0  0.001369015968020145 0.02302670840613686 0  0.7811161279285368 0.6877472571046392 0  -0.4722303370394803 -0.826000456924279 0  0.2726110862991071 0.1982192772120139 0  -0.1477876603790254 -0.8633953293965264 0  -0.06168625439265719 -0.8287519919265662 0  0.4455202157995503 0.7094864501660629 0  -0.1164122068793288 -0.2899310291136676 0  -0.2680818416122297 -0.02543738348991451 0  -0.8954754325666686 -0.8976895624057224 0  -0.5765122173502634 0.2410783911653325 0  -0.4799414130860931 0.08964390702539754 0  0.4937115996661551 0.8284515229993598 0  -0.02683046235064436 -0.262869480255443 0  -0.3128472416749937 0.8771305431373435 0  -0.1452269301369752 0.08198178300010478 0  -0.4730137772250843 -0.03418719095176236 0  -0.3919133773884119 0.01327955319049694 0  -0.2953552458605822 0.02883168214829603 0  -0.3884330146773652 -0.1206813433241496 0  0.8889747563901732 0.7010709777337989 0  0.7954342246020114 0.9128552982562257 0  0.5776303924337046 0.2111016240995013 0  -0.5623674591021003 -0.4722621938600121 0  0.6013645241785671 0.709869166793199 0  0.6801910530966987 0.8905975846434974 0  -0.05316805993737275 0.3067866632289744 0  -0.9042203597599751 0.9062955507121201 0  -0.1291590846988126 -0.06654780291547935 0  -0.1708556958276888 -0.1832206242699043 0  -0.2549697911835416 -0.1442000759576977 0  0.03596091894965413 0.2043717298843333 0  0.9035192843122214 0.8976593843084076 0  0.85443232688505 0.
[...]
<PointData  Scalars="w"> 
<DataArray  type="Float64"  Name="w"  format="ascii">1.6369179496798166e-10  9.6839504952928141e-12  4.4351571143843452e-10  1.6814478471680146e-09  6.2662915424915637e-10  1.4888272268188783e-12  8.3919044037047339e-12  7.0640096640206818e-11  3.7195479851273184e-11  2.0863907518309946e-11  1.0555161061990355e-10  9.3963210940164821e-11  4.1577412912448955e-10  2.5603639943077589e-10  8.5343469696835419e-12  5.5654930279132469e-10  9.1696860219486366e-11  7.1424173559833598e-11  1.3206804403144209e-10  3.4708897631309470e-10  6.5721354932082171e-11  1.0172007059922115e-10  5.9538554236158114e-10  8.7347441767036422e-10  5.7786528740139742e-10  1.0393417699022776e-10  8.6257184418197403e-11  1.7365054038186696e-10  7.5827649540741038e-11  1.8668765984006567e-11  4.8717519093130905e-10  9.4737983466107337e-11  2.3779911972433183e-10  1.7752773980299613e-10  4.7736601583362622e-10  2.3432192461399060e-10  7.6001368242103885e-11  4.7075217099838808e-10  5.9830352340381064e-10  2.9033527781491788e-11  4.6234440663244707e-11  1.0842437438096416e-10  8.7321598276968368e-11  1.6391651508684939e-11  1.0596300760442994e-09  8.5361661573864769e-11  2.9873659386590784e-11  8.7089669579829947e-11  1.4315903023811062e-12  6.0154163701209804e-10  2.2954116467491645e-10  2.2552826270042649e-10  8.1802154252189850e-11  2.5736860368754153e-10  2.4670185116097741e-10  2.0576489995553988e-10  3.4925549175982366e-10  8.7885863401718354e-11  6.2192478666867763e-10  2.5111426396397381e-10  3.0459537690367435e-11  3.2236875432840909e-10  3.7323686863418528e-10  1.3648716136467087e-10  5.1893759584554832e-11  1.7460004170556049e-10  6.6029671975108761e-11  1.8032093617323377e-10  2.3682310285784328e-10  4.1986610929893526e-11  6.3059796049745503e-11  3.9878480710457205e-10  5.3371785126670182e-11  8.3347628719216665e-11  1.9205888955345412e-10  1.6709402765008561e-10  2.6192618507742277e-10  2.8513903752042114e-10  1.8538281510738713e-10  1.9437860335565107e-10  6.0833737055725649e-11  2.4889837876543212e-10  2.8837454325695756e-10  1.9797509803678821e-10  2.3896478072686580e-10  1.2270458513015496e-10  3.9624419951236940e-11  1.0694878870654781e-10  9.3631011860805775e-11  2.5580101458513920e-10  6.7372223079704855e-11  9.5949070425223679e-11  7.4681338255346239e-11  8.8891499695725388e-11  4.0187462906374273e-10  2.0792509414631625e-10  2.3339232793511767e-11  7.1319802367589495e-10  2.5407646005722540e-10  2.8044491364818479e-11  2.6871357751007445e-10  4.3294249307856646e-10  7.1033599104590735e-11  9.3250395121636925e-11  1.4828076611433272e-10  6.1889153178252305e-11  2.8221483955399895e-10  8.1389431877065592e-11  1.4516392837124914e-10  6.2302032531370658e-11  3.1839685930903549e-10  2.4773622158238098e-10  2.4608818134596098e-10  6.4960989827779256e-10  1.2382089177601996e-09  1.3542726931745055e-10  1.7053997517069850e-10  9.5153813936241623e-11  4.6872368498289255e-10  2.4213208966029296e-11  2.3402179478440920e-11  2.8992799120587707e-10  9.3437261421898797e-11  5.7616017328192114e-11  5.1866741948113681e-10  5.3002957722721045e-11  6.2252502670555666e-10  1.1837424403806837e-10  7.2642127802320023e-11  8.0642748065350993e-11  3.5525943687675782e-10  1.6362934961946389e-10  4.8255736723632868e-10  1.2698255126629523e-10  6.8381217457197137e-10  4.2599037222976728e-10  1.0391353238961551e-10  4.8521508402429503e-11  1.3242797849930848e-10  2.6409210848799300e-10  1.3394456884292394e-09  6.3727343338896434e-10  8.9309603832384157e-11  1.1556473488466725e-10  6.1113867592382357e-11  6.6249497713505127e-10  7.8269342449685612e-11  2.6601319004602540e-10  1.3575533535349440e-10  1.1811389735446611e-10  1.8507550785749298e-11  2.8880020255303163e-10  1.4402143629606102e-09  5.3155494091227401e-11  9.3778493818919279e-10  7.1524285962729847e-11  1.9887621685326733e-11  2.0813893637619947e-11  1.2286320759074988e-10  5.9174117238847720e-10  4.4501676725666989e-10  1.6081389131591239e-10  1.0749039837317234e-10  1.5279642943943252e-10  1.8596166798159262e-10  5.4778102635912370e-11  7.3095935410106852e-11  1.8306869367267877e-11  5.5666140395355208e-11  2.8946472322077453e-10  8.8559112427798096e-11  1.0209804458654894e-10  7.8275980625078526e-11  9.2342691620485894e-11  5.0967698805559199e-11  9.3295532967292442e-11  4.6546918653598443e-10  5.4788673643632545e-11  1.6322372943941934e-10  1.7761062440215799e-10  4.9054823139419131e-10  1.9856615585641610e-10  2.9681008046146367e-10  1.4496704281728531e-10  1.4453918267220412e-10  1.4739724476015408e-10  2.0648511686102559e-11  2.9263322718121592e-10  7.4055206581978736e-10  2.3495388072474179e-11  2.6441089186817336e-10  8.5551767140028311e-11  1.5785897957673452e-10  1.2430042803133459e-09  1.3799402631063929e-10  1.6634053179585034e-10  2.3558293969398980e-10  2.9249354355075833e-10  1.0210938654018437e-10  2.0554049580075612e-10  4.0778104537016685e-10  2.2135633901070437e-10  2.3736685550895051e-10  1.1113264786524814e-10  1.0964239912928219e-10  1.0743847873638138e-10  6.9107311327401718e-11  2.1179056820675689e-10  9.1716166277811371e-10  7.4378153037070725e-11  1.0125613171537202e-10  7.7913427927535754e-11  9.6705617766123120e-11  1.6055822758737811e-10  3.8024319716314098e-10  7.8980269724595588e-11  8.0072180382388155e-11  1.0345491001740881e-09  4.1196152169789501e-10  2.9862866228508764e-10  1.9999621024719877e-10  8.1128686537735317e-11  7.7017984864911612e-11  3.3880937253523897e-10  5.5224013988333381e-11  7.9549220892169545e-11  4.7012799254641743e-11  9.2470016457202772e-11  3.9331345222205737e-10  8.5679516627735903e-11  1.9865702860499634e-10  1.6596824837603434e-10  9.5339987105293896e-10  5.8055771643689269e-11  1.9254149097669021e-10  1.1751294919218560e-10  1.0645424589823519e-10  7.9311928563383187e-10  7.2530827573720401e-11  8.3072347579927185e-11  1.1680798534054530e-10  1.2751034595346296e-09  3.8235348641478350e-11  7.4080434911277890e-11  2.8670382810346361e-10  2.6836452468387063e-10  3.6892832444416355e-10  1.8114904313746986e-10  2.0442735027200260e-10  4.1492802688679673e-10  2.6925284817962291e-11  1.0277777216151178e-10  1.2707379025970239e-10  3.5560492435941713e-11  3.1799052103493813e-10  3.9195727071979641e-11  3.5877692141986065e-10  1.3362453810769410e-10  1.0997632110337079e-10  1.9223596775789460e-10  5.1285205079147988e-10  7.2126998512365675e-11  2.4719234162896371e-11  1.4268444950443381e-10  8.1795890757711436e-11  5.7252077289337231e-11  6.9399758417134636e-11  1.8075789578367982e-10  4.2415540362824576e-11  2.7548595362518107e-10  2.6137334193937679e-10  1.3073572782767858e-10  1.3441795578497721e-10  1.1881257609267527e-11  7.1166642816971600e-11  1.5241741527131115e-10  1.6145752223899676e-10  5.3651370533367412e-10  3.4981573496492843e-11  7.9605431844049723e-11  3.0849915644133050e-11  2.5166235863214488e-10  1.2129214935264919e-10  1.8084993757623315e-10  7.5131853052350200e-11  8.4310436455493322e-11  1.2019311857744838e-10  1.9725495801622938e-10  2.2855650359161479e-10  2.5884275715149277e-10  4.6293225104879059e-10  2.1783156491883813e-10  2.1355240522181540e-10  1.4266607063599097e-10  7.9416314877067023e-11  1.6729351898671478e-10  1.6595175668993024e-10  6.5087329607175149e-10  1.2969685721085259e-10  5.8799646194519194e-11  4.1745319115357604e-10  1.9628366355853693e-10  1.9871953043100989e-10  1.0498631933996555e-10  3.0012432394088273e-11  4.3427198107801774e-11  9.2074789069945621e-11  7.2850014239588513e-10  3.0596121125233419e-10  1.7784898146628772e-10  1.3309589075673866e-10  3.3863153994382827e-10  6.7144830029090646e-11  1.0979279411539119e-10  3.7035922619820939e-10  8.9657624488188072e-10  9.5876020593733945e-11  2.9033443404064759e-10  6.4141477479233034e-10  1.2917482658420155e-09  2.0824583669549861e-10  1.6147270247727019e-09  4.4048748440250367e-10  2.2650607319157459e-10  1.1963358405298330e-10  3.8659481518663657e-11  6.1692033795088331e-11  1.2781477666025506e-10  1.5033981290179602e-10  5.8983499484824318e-11  9.8861756429131144e-11  1.0813596986323692e-10  1.2159170192188820e-10  2.0029668469894512e-10  5.3717022572231529e-10  3.2446180475614489e-10  1.6618352047164311e-10  9.2415246035499798e-11  5.9577197611188962e-11  5.8867646193258883e-11  7.0517884035113609e-11  1.8027259968171658e-10  2.2682948783914532e-10  1.0152622297721895e-10  1.0131045622256035e-10  2.2937408038386602e-10  1.3332236749416606e-10  6.6370383549641000e-11  5.6637415689046806e-11  1.0488036450105881e-10  3.2036300208908293e-11  1.8280828487134278e-10  3.2176706803957728e-11  1.6209017274830814e-10  1.8125350032059065e-10  1.5823211734772453e-10  3.9035620012835911e-10  7.7580723071123576e-11  7.7295833992022689e-11  1.4249097475811524e-10  3.1575502491512297e-10  1.4851456251022772e-10  2.6194261278042243e-10  1.0719792311507707e-10  1.3463077038159294e-10  1.5419562841218599e-10  2.9089300357678836e-10  1.2932655245240176e-10  3.2281527510846144e-11  1.1557228323484148e-10  1.1141592386878248e-10  1.4108764450940205e-10  2.4198945698507446e-10  1.6641266158250224e-10  3.3071353579767286e-11  1.2658400313303278e-10  2.4128987236043090e-10  2.4606659370250026e-11  3.3321395195408174e-10  1.7026767173233831e-10  4.1855096231167213e-10  1.1555683824301351e-10  2.3580624541906883e-10  3.2049721171640748e-10  7.1730608252391968e-11  1.0323020818909034e-10  2.1815014393280173e-10  6.5342950751747338e-11  4.9865296143843057e-10  1.6078203432484878e-10  9.4158292609206667e-11  1.0801361826431211e-10  2.0587220607466662e-10  5.7681899971931525e-10  4.9916238022104201e-10  1.7227495502686772e-10  1.7263248617528180e-10  2.0331966719285222e-10  3.8678175847912170e-10  4.3276239039709825e-11  2.2163282422357766e-10  7.5691838007535861e-11  1.2904345862927995e-09  1.1452508376098108e-10  4.4899039021197294e-11  5.9945045770996372e-10  3.4745770766441495e-10  2.4791835527857853e-10  2.1409551483961598e-10  6.0665474950210126e-11  1.4867897745353948e-10  3.2417572860877247e-11  4.4321631560377120e-10  7.6882081133295118e-11  1.2494851590130819e-10  1.2713566529947486e-10  6.3980380835060420e-11  3.4475973816227510e-10  3.9380388479397379e-11  1.1080480043434833e-10  2.5368714912175572e-10  1.8065625876052252e-10  7.5704521895232095e-10  9.0716595431301087e-11  5.9571903101275601e-10  1.4151641122845803e-10  3.7312133268673389e-10  5.2046277979745599e-10  2.4934645422875499e-10  1.5244611820570792e-10  2.7987108930307426e-10  5.0854707556736811e-10  3.5378648664256959e-10  7.0155531036443489e-11  4.9585892189329183e-11  1.6918419938639778e-10  3.7622919113394045e-10  1.8343205488111947e-10  1.2026743946817576e-10  1.5925467719801982e-10  7.8119640060195183e-11  6.8657544893324885e-11  1.9979352135706104e-10  5.6038537507572147e-11  2.0592988430434652e-10  9.0394892882364885e-11  5.0546316467386095e-10  4.9642966409853657e-10  8.1022861742623560e-11  3.8971115765804612e-11  4.1730153584664511e-10  6.6863595434281260e-10  2.5875180142356317e-10  1.0616354171436584e-09  2.9712872621073640e-10  3.2556472009416732e-10  2.8907995469039804e-10  2.7603004901259176e-10  9.6161704982312025e-11  2.8406266067317966e-11  1.9422262209590353e-10  9.5750993164278319e-11  2.0699041254756713e-10  7.5672612726224503e-11  1.2208871609865020e-10  2.0527070881984466e-09  1.7731734096552228e-10  7.8091927451498229e-11  8.2162624882491084e-11  4.2649947422739259e-10  2.4538636285382785e-10  1.9115650102937862e-10  2.0922287323393412e-10  4.3019641111899200e-11  8.1562772652665137e-10  2.4615430151551673e-10  5.4625504474408292e-10  2.5915163495313456e-10  2.2768491849197290e-10  3.0648645353687954e-10  9.3532645288789516e-11  3.1256897396381766e-11  3.3456108132886858e-11  3.8513205231963206e-10  3.1553937881812268e-11  1.0467367452887985e-10  1.0685724156147681e-09  7.3787510553061418e-11  3.2907554990639200e-10  2.5796446274670184e-10  6.1824056310816593e-11  5.6796899064169861e-11  1.8199865717597902e-10  2.5183918929707835e-10  4.5428924328301785e-11  1.1064722313024188e-10  1.5677424991183157e-10  7.4175258556979505e-11  1.6974643419482875e-10  2.1974471311025866e-09  3.6352040478480348e-10  3.2108375115543281e-10  1.0831763154460030e-10  1.0408224276994471e-10  1.7460782775191739e-10  7.2051852272265628e-11  1.3269250988664867e-10  4.8818148536854356e-10  8.3991215414225577e-11  2.3076654300249467e-10  2.1482682792375194e-10  1.4118511652180456e-10  4.6184660456698117e-11  6.8405623037381778e-11  4.7768216409804253e-11  9.1790012664203137e-11  1.0268163816362840e-10  2.1604865747917361e-11  5.7902009834752636e-10  2.7897235955475872e-11  6.2823561515884453e-10  1.1562696824055194e-11  1.3889955568153092e-10  1.8706750358319926e-10  2.5159135293631160e-10  9.9052367911038076e-11  2.6163953667996099e-11  8.0787868762784405e-11  2.6180773910983496e-11  1.9981972756245006e-10  3.7497122476785396e-10  2.6652963304541144e-10  2.6578058195958884e-10  1.2887014991685378e-10  8.6596743920850433e-11  5.7000805127610280e-11  3.6664469233279149e-10  4.9835896920417293e-10  1.0455188313147745e-10  9.6949965045750685e-11  1.4096429579924670e-10  7.3932920342872092e-11  4.3366253299940992e-11  4.6718011443909827e-11  2.7695943391151865e-11  8.5592745630133398e-12  1.6324143349052475e-11  8.7694396485357751e-11  1.8496427392461417e-12  9.1089819021321438e-12  1.9137552645931365e-10  3.5317767818826673e-09  2.0351680157987883e-10  3.6891394051150922e-11  2.2033534364228284e-10  9.1671836420471174e-11  1.1211825132422296e-10  4.2407880332534713e-11  1.4965647267037805e-11  7.6581969538382084e-11  8.2930999685032743e-10  7.5781243233726172e-11  1.8588062997409593e-10  3.2541357014171263e-10  5.0721069657040823e-10  9.4996788251385968e-11  1.0093419365411521e-10  5.5897216598557964e-11  7.5042725798700677e-11  1.0234898923140392e-10  5.4794187803048444e-11  6.8072423807650912e-10  5.8830327132091600e-11  2.9217085271023784e-10  8.3583887732384912e-11  1.2528617083487506e-10  3.0228310899790570e-10  4.0487117750711504e-11  5.6104302411622153e-11  2.6174879397569978e-10  1.0864930771388365e-11  1.1217403960985281e-10  8.4442641182127491e-11  7.2693015356189063e-11  5.7281817760472778e-10  1.6535654752132090e-09  3.5458681522509445e-10  2.9445399977347528e-10  8.8560554558803154e-11  6.8111357787493145e-11  2.4843898015525470e-10  1.1562242899354649e-10  9.2459406066370170e-11  9.8928955123027347e-11  1.9700756528164816e-10  7.2119045632382541e-11  4.8788344987994535e-11  6.4676752451532863e-11  3.7478462852883066e-11  8.3570242308498340e-11  1.9672256395903828e-10  1.6582031429088252e-10  1.1301084397574509e-10  3.0066441665084849e-10  4.4540721227680654e-11  1.3567705706860666e-10  5.4145328721326264e-10  6.2339077783515705e-11  1.1047210662389663e-10  1.7111760832371988e-09  5.7904871193767933e-11  3.5508091224804509e-10  5.4365390921472294e-10  1.6049334495626439e-10  1.2385598769330183e-10  1.2608738760620683e-10  8.2355331693848455e-11  2.6117123638596987e-10  2.9624490424035515e-10  1.7846905945413804e-10  4.8472323336646418e-10  4.3483210507335371e-10  1.1877390310236580e-10  2.0437853357472229e-10  6.4219033654188211e-11  8.2055595399334206e-11  6.0775734039036878e-11  2.3419322028401698e-10  4.0232181146428423e-10  3.1034084521397868e-10  3.3373527209102594e-10  8.3931753641709308e-11  2.3873221479019640e-10  4.9866460446605611e-10  1.7169685166904122e-10  4.6754892850213421e-10  1.7534575164797646e-10  1.3665574140558264e-10  1.0942961222839396e-10  4.9607946059789882e-11  5.1343222158273319e-11  3.3802780809111854e-10  6.0786033192576482e-11  6.3241097139106537e-11  1.2782612812073756e-10  3.2342955977554608e-10  3.2670625877745941e-10  1.5695187608966385e-10  1.1557001981232017e-10  6.5089026013132437e-10  6.6799561852308752e-10  1.7832897303817866e-09  2.8502939253966381e-10  2.0609476967642924e-10  4.6429081369492108e-10  4.5950600732894158e-10  1.2813381406052977e-09  3.1203465394400118e-10  2.3723436935808830e-10  3.0923952893687881e-11  1.2293629104854261e-10  3.7386825698741697e-10  5.9600207317276552e-10  2.2348596554072687e-10  6.9908804080219114e-10  2.9399869682290516e-10  1.9096314964935972e-11  4.8607687635975028e-10  3.3600264700503744e-10  3.7752205246054514e-11  3.3876046104812542e-10  4.1084617277725951e-10  5.5506161959159314e-10  1.4669358156106423e-10  6.8932502521376146e-10  1.9336778221230547e-10  4.5292197657340246e-11  1.2521857773669458e-10  1.3052969576760665e-10  3.0743782220268062e-10  7.3295783819167375e-11  2.6475943997242688e-10  1.8292868984553523e-10  6.9743223723054295e-12  1.5332583000282282e-10  5.5416366964854599e-11  8.7846425983427595e-11  1.2101126387407404e-10  6.6614064430785974e-10  4.3049000189429895e-10  3.1741639828518921e-10  1.1526767882108948e-10  1.2925949254228060e-10  1.0215990566460306e-09  6.0902456787373960e-10  1.3475546595465485e-10  1.4162900628248380e-10  9.2149310285984735e-11  4.9836753968889883e-10  1.3527036166061511e-10  1.6935680559213102e-10  9.2213708217870771e-11  6.7849904001871522e-11  6.2206740666097996e-11  1.4708894762522310e-10  9.2991552886329776e-11  1.3047011009241664e-10  4.2822335117170690e-10  7.1607021183526593e-11  6.2697855333568129e-10  1.2400860315085129e-10  2.2728222737803838e-10  2.7378237256026831e-10  5.9396888896145405e-10  1.1217623080634191e-10  3.9079291484657477e-11  5.8587319196783591e-11  1.4090911188312764e-10  1.5536412540854509e-10  5.1385260617059681e-10  7.9275114740843681e-11  1.4703951338431180e-10  2.3518472755694578e-10  1.3658929329814711e-10  2.3570012513923700e-10  3.3428281033307659e-10  3.2455063485605839e-10  1.0294550919371318e-10  1.7526420200233061e-10  1.4962861650666579e-10  2.2889934198753604e-10  3.8170208238176689e-10  3.8289602566853830e-10  2.0386542917991546e-10  1.9533370076550833e-10  1.1936506920614239e-10  1.6341468253587806e-10  3.1125819612819359e-10  3.8743936902844974e-10  3.6760170038942162e-10  1.6715791658238921e-10  2.2065812282318738e-10  1.9422896627167811e-10  1.4525795173048802e-10  3.9568180352851455e-10  2.8808626675001853e-11  1.0456431071050899e-10  1.2858837214808674e-10  3.4360663482310514e-08  4.1011311247816517e-10  1.7252360297319899e-10  6.0664677781130375e-11  2.6634780069301444e-10  1.3704089470850675e-10  6.1467264585370716e-11  1.0173652814716855e-10  2.0570996692372841e-10  2.0272178755995025e-10  1.8657136052716155e-10  1.8656797248566589e-10  3.0046610395783030e-10  6.0446096170231525e-11  7.8248841348287109e-11  1.9022018610058065e-10  1.2423371990753565e-10  3.3575746124182844e-11  4.0143366193392562e-10  6.1615673858922692e-11  5.8877197624169021e-11  1.9248756019248003e-10  9.3829612245023870e-11  2.3443667865774293e-10  2.9706954879765141e-10  2.1958783208366544e-10  8.1605978804882558e-11  1.7707198219475725e-10  9.3106827265534411e-11  2.9371816797669625e-11  8.4281063126530372e-11  5.5188946726786766e-11  7.8210256264164148e-11  2.4111254396137007e-10  4.4547920226410163e-11  6.2720053092516832e-11  8.9776021801408220e-11  8.8146660660126174e-11  9.1989340226429801e-11  2.8357096212031410e-10  8.6338441730919828e-11  1.8133967135115556e-10  2.1060913418306925e-10  1.0388089973389566e-10  1.6029760824684217e-10  3.1585431705516569e-10  1.1973009410676534e-10  6.5340424920689649e-10  1.6976544331125541e-10  1.4649079643293689e-10  1.4252097129555139e-10  2.1429481750001907e-10  4.1667671571517919e-11  3.7545579117619657e-11  7.3934682559242464e-11  4.5465365736027429e-10  2.0490774912169950e-10  6.5205835784308318e-10  4.6362412391771515e-10  1.1986734504162699e-10  5.7693725176453458e-10  3.6234306966099196e-10  1.8731718695715390e-10  6.7933639006636721e-11  8.9732202815961124e-11  1.7577625788112878e-10  1.9124458903744299e-10  3.7817208784200614e-11  4.9598299121273824e-10  2.7855656774805578e-10  3.4953961324490033e-10  4.8201909996195890e-11  3.6293315161003321e-10  2.5954164803598384e-10  6.0708342699083430e-10  7.2955405659284652e-11  5.7535804192015145e-11  2.4627830477245471e-10  6.9679122099024863e-11  3.9448510986373495e-11  1.3831962287724781e-10  2.2530560937580414e-11  5