<?xml version="1.0"?>
<VTKFile type="UnstructuredGrid"  version="0.1"  >
<UnstructuredGrid>
<Piece  NumberOfPoints="4852" NumberOfCells="9430">
<Points>
<DataArray  type="Float64"  NumberOfComponents="3"  format="ascii">-1 0 0  -1 -1 0  0 -1 0  0 0 0  1 0 0  1 1 0  -1 1 0  0 1 0  -0.5 1 0  -1 0.5 0  -1 -0.5 0  -0.5 -1 0  0 -0.1608775713298009 0  1 0.5 0  0.5 1 0  0.1967448868031411 0 0  -0.3407853879385729 -0.1758423540647187 0  -0.3370432835573062 0.2243353324141512 0  0.1738256665101779 0.3463315030939783 0  -0.1851972342078402 0.5551020844656825 0  -0.5039500321194731 -0.5376121775413698 0  0.4904676302224651 0.2572454253932775 0  -0.06460769166490916 0.2011916943567005 0  0 -0.5061325913258391 0  -0.25 -1 0  -0.561866992189338 0.5774798372261125 0  0.6616425033897066 0.6341918810819356 0  -0.1774410159631654 -0.5377749908791837 0  -0.5389996081196622 0.02536461703749943 0  -1 0.25 0  -0.2063614070862319 0.02379214946292053 0  -0.6546853757646521 0.3097186748005077 0  -1 -0.25 0  0.03899553730312831 0.5918443904251617 0  0.195084187373943 0.1290326844884034 0  -0.1365179507644169 -0.219952411589851 0  0.3709811681392008 0.6145668220217819 0  1 0.25 0  0.5355652144809806 0 0  -0.75 -1 0  -1 -0.75 0  -0.64511437475351 -0.3231143934574553 0  0.25 1 0  -1 0.75 0  0.02757118475249542 0 0  -0.25 1 0  -0.75 1 0  1 0.75 0  0.75 1 0  0 -0.02898318711980711 0  0.054093353522026 0.1424348308641065 0  -0.07780697067451277 -0.02784386975359388 0  -0.7011989774969146 -0.1324937195122463 0  -0.3217968270383012 -0.3474060009543981 0  -0.3403454644824755 0.4373756731958781 0  -0.1000316389259344 0.7642639742417352 0  -0.3833844829283394 0.7028327880275972 0  -0.05498164994443307 0.3990528741273116 0  -0.07911598416132379 0.07201589943535427 0  0.3588543176605811 0.369807202474069 0  -0.7165670546474945 -0.7303903065370162 0  0.4118620817233594 0.09002018895883954 0  0.6899455891105163 0.1918102241488781 0  -0.7476490919011612 -0.5273865066556996 0  -0.3879343742408843 -0.710732282468797 0  0.7215326722153313 0.4189251804024517 0  -0.7762173499627323 0.0970938869317502 0  0.1968048829010582 0.6988427585079979 0  -0.19887125560332 0.2885996003119149 0  -0.7991211427935601 0.577978780913904 0  -0.7175644115943899 0.7666436619317352 0  -0.0521689031742399 -0.3733096115621126 0  0.5850086418649422 0.8170869998079255 0  0.8207862252514563 0.8068227548070279 0  -0.1060210298014432 -0.6974687384360528 0  -0.5145558144654555 0.1628907847410478 0  -0.2020510040917338 0.1257155777578917 0  -0.3593525884588712 0.07533074965341778 0  -0.3652979404287505 -0.05232832599181055 0  -0.4969397786888587 0.3951407283925333 0  0.375 1 0  1 0.125 0  -0.01199421498561239 0.07134286078939023 0  0.06193561210225469 0.3920362129540048 0  -0.1715478325549157 -0.1224560423217796 0  -0.2432459046063032 0.7737413283005874 0  -0.625 1 0  0.5334801912134528 0.4545008791888933 0  -0.5764375896240307 -0.8302507929743446 0  -0.2580872322758984 -0.7836864159216579 0  -0.3201411293660165 -0.5084797959912679 0  0.8340646435562227 0.5955988133225311 0  -0.5490872389256651 0.7910255147485006 0  0.125 1 0  -0.06750262728223058 -0.09348630644430575 0  -0.4947645350260955 -0.1432887944756702 0  -0.875 -0.9999999999999999 0  0.0295222069455639 0.04169858159946663 0  1 0.375 0  -0.875 1 0  0.05728206613933529 0.7941183940521918 0  -0.1965515253607833 -0.3736598376720963 0  -0.07300656677659215 0.5712074099662509 0  0.2363523544913935 0.5180989365210075 0  -0.7922804445504301 0.2297021521158342 0  -0.4952402869145737 -0.3891517647032501 0  -7.561070248239119e-05 0.2713129721605835 0  0.5100349973505754 0.6404384062814378 0  0.399030872668969 0.807526365953247 0  -0.806117297924533 0.4249665481148207 0  -0.06447756051306081 -0.2205733620643968 0  -0.7097003340218223 -0.01423239710354029 0  0.09052090613149304 0.05258195478454161 0  -0.4783077120153926 -0.2513814840621802 0  0.7238792490324704 0.08295187826468915 0  -0.8087474539163028 -0.4112487957605751 0  0.3375371810076569 0.1538251904068439 0  -0.7945000901428824 -0.251012038048966 0  0.2362798807884592 0.2545186969758783 0  -1 -0.875 0  -0.9999999999999999 0.875 0  0.18433863889098 0.04802572314553477 0  -0.2476384653568389 -0.2291590544179104 0  -1 0.375 0  -0.1712507524398098 -0.0418213187199941 0  -0.6491629279337088 0.4676947253267327 0  0 -0.07736776745332727 0  0.08029976043322318 0.2601356431271135 0  -0.375 1 0  -0.2172141022673898 0.424852934874771 0  -0.1202839285661145 0.1502918368470136 0  0.1331833600175054 0.5543189844014051 0  0.1318708485455039 0.1940329916487173 0  -0.4749437749035676 0.2695958907431857 0  -0.04631227043060682 0.01393193614989948 0  0.8512923525759211 0.3705245709508114 0  -1 -0.125 0  0.2855968016823563 0.8371229879881353 0  -0.1109953707791317 0.3132025978012203 0  -0.125 -0.9999999999999999 0  0 -0.7575037395175259 0  0.07821397079968176 0 0  -1 -0.375 0  -0.375 -1 0  -0.625 -1 0  0.7474787146812756 0 0  0.625 1 0  0 -0.2918843213980812 0  -1 0.625 0  -1 0.125 0  -1 -0.625 0  0.3284075310660084 0 0  0.004929205892015135 0 0  -0.125 1 0  0 -0.006571003003944568 0  1 0.625 0  1 0.875 0  0.875 1 0  -0.5629166164400397 -0.6766542785521183 0  -0.004857914054759918 0.160437485532594 0  0.3623893231934928 0.2632400205702695 0  0.6529899715663666 0.2940894404031637 0  -0.854764939825135 -0.6472433713061894 0  -0.8642626526704834 0.7879765506765137 0  0.4303639332523558 0.5016862685718033 0  -0.3985269698162693 0.8560119475535793 0  -0.7794184746287377 -0.8748658656720461 0  -0.8706661701031989 -0.7849269535094691 0  0.1543906685354537 0.8423421020354792 0  -0.6586595624436914 0.1529056729026698 0  -0.5777618404197766 -0.06432399515736849 0  -0.8546678308141092 -0.06254194971745691 0  -0.2962365729549546 0.5623210937770574 0  -0.4239981171407297 0.5700771390819356 0  -0.3762993042472307 0.3312692861074762 0  -0.6184259015961521 -0.2164583271899397 0  -0.2730009421318441 -0.09011411114197371 0  -0.6403345698370698 -0.588913017635981 0  0.8596675070017595 0.2660376265291153 0  -0.03284844210667975 -0.03297668079774207 0  -0.05495263217917633 0.1147314688074529 0  -0.1339383613142904 0.4322184919561385 0  -0.1199728656374978 0.03244438062462708 0  0.5377878536655124 0.06471278468452674 0  0.579314453186149 0.3597363886947455 0  0.6917363813371354 0.7753886834766371 0  -0.7947724576324265 0.8814861508138291 0  -0.6434723967998355 -0.4293084066877851 0  -0.1177168682304265 -0.3969514702264295 0  0.8721047762643687 0.4891142201321143 0  0.07591977415532634 0.09406866256915315 0  -0.6653068413131629 0.8686119603427259 0  0.454608996638838 0.3509813915587568 0  -0.02642334772929617 0.03589504653916392 0  -0.4092426791908868 -0.4404701132899135 0  -0.3620320832495448 -0.2689240757715747 0  0.3234846090911198 0.4821977034403179 0  -0.1963069435049149 0.2016427775579299 0  0.7057637604501527 0.5311880358554495 0  0.2617206880481173 0.356489777504546 0  -0.3771700983187701 -0.8517959270200343 0  0.1091172821844506 0.6822381392994749 0  -0.2854427418634804 -0.6120001435926852 0  -0.4415636419539719 -0.6202477981377681 0  0.2962529629326413 0.6926961819171513 0  -0.8748594798028348 -0.1748977025987369 0  -0.1803131638822826 0.8551683047254549 0  0.454747560596763 0.1637213286495004 0  0.2803039360113286 0.04681018121149684 0  -0.1425377297284601 0.6576509427984839 0  -0.01155008805663924 0.7088179299238087 0  -0.05342680321675814 0.8752621416381039 0  0.005219525619334055 0.4701192059183249 0  -0.3879785253579885 0.1536441345446497 0  0.5492102564093128 0.1334526111420165 0  -0.4763216848405287 0.6827300863402319 0  -0.8515606306331348 0.3333069842675335 0  -0.09246288027881762 -0.5364386525688153 0  -0.02628927973027716 -0.5526316848536265 0  -0.2138778085100634 -0.287767704995353 0  0.8684819246962449 0.1516759696241637 0  -0.1707686131937007 -0.6610568006331073 0  -0.8892645798602263 -0.5288595838872676 0  -0.2819659684201491 0.3385767362706141 0  -0.67675619405975 0.5746108912882584 0  -0.8974976530253052 0.5319332142522513 0  -0.8987213218530836 0.6616426348572976 0  -0.6445545313369707 0.07242437707674432 0  -0.8592973388792868 0.02865249344153501 0  -0.8882651159589857 0.1679217471919495 0  -0.1303916581485607 0.2292124449250733 0  0.1603003259919032 0.4466362955112625 0  -0.04360091606626855 -0.1258467808766725 0  -0.7540636054486005 0.6704806493012248 0  -0.6032144095867125 0.6982106253491696 0  -0.2547010117542806 0.07864645741768167 0  -0.2497019973261026 0.6490902369250335 0  -0.02748454302111055 -0.006388410477046454 0  -0.4949421598562936 0.8771327057977542 0  -0.4773883685166147 0.4908459772982184 0  -0.2907151745461209 0.1442064265140244 0  0.002228423560252011 0.02368373941360718 0  0.7797441702743588 0.6842739739292452 0  -0.4702362612090626 -0.8249413007018466 0  0.2719216409903414 0.1953820430476412 0  -0.1490659745907751 -0.8633944329845069 0  -0.0649718945814961 -0.8295956910457817 0  0.4434563547082636 0.7064544198777529 0  -0.1178265333197339 -0.288236275758609 0  -0.265177787498842 -0.02616555803493555 0  -0.8943222903311349 -0.896774197694842 0  -0.5731152878407851 0.2375579721199051 0  -0.4763422212153392 0.08767301643684904 0  0.4915784131777877 0.8262676728405948 0  -0.02861234779057252 -0.2603208007848724 0  -0.310488572676242 0.8756603600261075 0  -0.1432837554753451 0.08064747060133361 0  -0.4695298154238727 -0.03489222668764413 0  -0.3882813069319015 0.01215806058415058 0  -0.2920643415698114 0.02762618237270306 0  -0.3851701217001277 -0.1205141481544641 0  0.8883073477237533 0.6986315341639556 0  0.7935397356859543 0.9114081103801106 0  0.5767107187773175 0.2082557809747317 0  -0.5601239257906248 -0.4696026895385602 0  0.5991348395530217 0.7065346553595454 0  0.6786121250459286 0.8888948303485956 0  -0.05131464027835218 0.303487144416015 0  -0.9028571496383334 0.905199778319747 0  -0.1276820200846271 -0.06717865058281579 0  -0.1692315561103933 -0.1826525015696113 0  -0.2525533498593038 -0.1438098956641075 0  0.03689538525431846 0.201952201971263 0  0.9024023556427877 
[...]
<PointData  Scalars="w"> 
<DataArray  type="Float64"  Name="w"  format="ascii">1.7240074163760736e-10  1.0070192214599486e-11  4.4450105277861009e-10  2.6611222375304052e-09  6.2468459472276200e-10  1.5266975290910303e-12  8.5681647407735964e-12  7.4125060487087448e-11  3.9947228152052008e-11  2.1180728137901841e-11  1.0786885414274231e-10  9.5951632003904319e-11  4.0461791400637918e-10  2.7374298133451547e-10  8.9786375495487354e-12  5.2842965521531751e-10  9.0836499905220097e-11  7.2158458466621477e-11  1.3082794398304112e-10  3.5591714970374802e-10  6.6826798475674027e-11  1.0325022413531316e-10  5.7503013609395144e-10  2.5853053713247664e-08  5.7519832523984580e-10  1.0862144317860354e-10  8.9184102113358950e-11  1.6864925885105111e-10  7.6639306885866240e-11  1.8810052836142509e-11  4.7001646998611628e-10  9.8118272528053573e-11  2.4328130085024066e-10  1.8108620097693165e-10  4.5723157275399171e-10  2.2539381855687554e-10  7.8155547877594414e-11  4.7919247750698140e-10  5.8842117914389165e-10  3.0698908683463278e-11  5.0688497366366487e-11  1.0850844571124253e-10  9.1718288071112072e-11  1.8619206924820789e-11  1.0559091904397810e-09  8.8085319845853357e-11  3.1519156797133932e-11  9.4191675368079932e-11  1.2895309950113228e-12  5.9279102300247121e-10  2.2148649812318504e-10  2.1407875852599011e-10  8.2480115121690008e-11  2.5218309018829000e-10  2.5749668415115734e-10  2.0673387666288642e-10  3.5974620566777549e-10  8.8829691464946462e-11  5.7975491307674972e-10  2.5156230889816286e-10  3.1386672088464555e-11  3.1542991274507380e-10  3.7795051079134831e-10  1.4320457699322891e-10  5.3554324329332100e-11  1.7815608154259994e-10  7.0028550724454945e-11  1.8008027185203622e-10  2.3409686697495590e-10  4.5138693060335976e-11  6.4978292870498964e-11  4.3510935157051480e-10  5.6581791433368725e-11  8.7684917399588765e-11  1.7722002979437700e-10  1.7031831327144233e-10  2.5618347783625478e-10  2.8928810943713187e-10  1.8319228973394054e-10  1.9699211713863271e-10  6.4116188569728871e-11  2.5146299155122872e-10  2.6429773898842684e-10  2.0052994546700104e-10  2.3361824109556700e-10  1.2507445976373357e-10  4.4737153208352737e-11  1.0975416881430211e-10  9.5109281588347074e-11  2.5142857391493750e-10  6.8335891990020157e-11  9.9705652352954356e-11  7.8105857564302002e-11  9.3586431359541677e-11  3.8898924281487199e-10  2.0973946935695688e-10  2.4901635955745314e-11  6.5680001030744555e-10  2.5736494515586950e-10  3.0456059273415172e-11  2.7696713222366250e-10  4.1318204267167618e-10  7.1077627987181029e-11  9.6168053016199450e-11  1.5605276569560850e-10  6.3295041967612930e-11  2.7490688537196091e-10  8.3674317695694268e-11  1.4843231174901853e-10  6.5642658428007110e-11  3.1272638038204559e-10  2.4924618566899856e-10  2.3270753418726909e-10  6.4661257766859901e-10  1.2163079660087826e-09  1.4690083915799926e-10  1.6561292087617632e-10  1.0101455225721102e-10  4.5946606848722732e-10  2.5450066533396331e-11  2.4918794157191107e-11  2.7869742304903170e-10  9.1028586954455862e-11  6.0907176973042796e-11  5.0247731548899437e-10  5.6809026370111479e-11  6.0015852163633018e-10  1.1794053737454909e-10  7.6436076592510229e-11  8.2134172438318725e-11  3.4249104133831201e-10  1.7147126196927168e-10  4.6707974955479322e-10  1.3348828089082848e-10  6.2538449487749345e-10  4.4529359123395535e-10  1.0818067250251988e-10  5.1436553638441028e-11  1.3017827162729350e-10  2.5803170313646293e-10  1.2296787781783086e-10  6.0784404848215603e-10  9.2736748489683495e-11  1.1796277669463241e-10  6.6824561786099034e-11  6.5687018487952675e-10  8.4339228036475340e-11  3.3680667241820509e-10  1.4556200341388386e-10  1.2300840737344192e-10  1.9644274059064403e-11  2.8379291435154599e-10  1.5924317597128106e-09  5.6315870710582719e-11  9.7318188086753508e-10  7.7510472236554436e-11  2.2837773225802832e-11  2.2863367109635388e-11  1.2308091157860151e-10  5.6112824659357859e-10  4.4304075345328527e-10  1.6115363094121909e-10  1.1456197694724997e-10  1.6387171438196571e-10  1.8830009630219890e-10  5.7851076530397896e-11  7.7374893111569101e-11  1.9835868825896604e-11  5.9246549136237636e-11  2.9646280535721357e-10  9.1251363295123140e-11  1.0586022169049672e-10  8.1613977061780509e-11  9.6365612452163431e-11  5.2882352386363847e-11  9.5313291693061701e-11  4.5641292374433878e-10  5.6642449933161018e-11  1.6406095515006490e-10  1.7171178036932197e-10  4.6549077399501604e-10  1.9881885923565224e-10  2.8331552834775838e-10  1.4291196644331728e-10  1.4528979821799523e-10  1.5235009540420869e-10  2.1156825590315719e-11  2.9048296928207021e-10  6.5988709114177740e-10  2.5184768013080330e-11  2.5143405704548437e-10  8.9370643866095635e-11  1.5829272997054101e-10  1.1190397135505301e-09  1.3672355720948176e-10  1.6322848608929436e-10  2.3534393201120101e-10  2.8768774421779764e-10  1.0606012136747600e-10  2.0464938457111046e-10  4.1744191932876132e-10  2.2091054949092925e-10  2.3934584492023498e-10  1.1060372093850488e-10  1.1245881521460546e-10  1.1266901632145076e-10  7.1068673872968856e-11  2.0894248398824645e-10  8.8772038064176058e-10  7.7715983675570496e-11  1.0691981612951813e-10  7.7819218788256036e-11  9.7017359620104566e-11  1.6188218121668456e-10  3.7808472661416000e-10  8.0190634118927674e-11  8.4902667512996666e-11  8.1619021726377370e-10  6.9266042257881494e-10  2.9187779443271719e-10  1.9961646660350748e-10  7.6608198091024623e-11  8.0729745007584009e-11  3.3863025645053017e-10  5.8430189046924248e-11  8.3625454461929034e-11  4.9638136780726220e-11  9.3594864725256193e-11  4.1389351623300152e-10  8.9931117685591162e-11  1.9680871351827481e-10  1.6651482610900905e-10  9.0368822288213242e-10  6.1378255548213259e-11  2.0010770282689063e-10  1.1534271777225937e-10  1.1197310169008066e-10  7.5337729130809304e-10  7.5347778709643831e-11  8.5550648405947743e-11  1.1760524818343130e-10  1.1247528419518961e-09  4.0738952996519272e-11  7.6858753768328332e-11  2.7946152243272198e-10  2.5476471003495779e-10  3.5477212440337237e-10  1.8459436073452606e-10  2.0535951348243743e-10  4.0533534066275550e-10  2.8848861908028972e-11  1.0543934962521452e-10  1.2838551290741398e-10  3.7367387607906606e-11  2.7107365326602690e-10  4.2691495393584452e-11  3.3622918644168009e-10  1.3533512131151445e-10  1.1009303566710492e-10  1.9070579412994751e-10  5.0503770930312689e-10  7.3752180204986337e-11  2.6546980023857685e-11  1.4420975908741591e-10  8.2438579307020158e-11  5.9667969129122115e-11  7.5439064693301769e-11  1.7869655375788695e-10  4.7032665914742539e-11  2.6463764904102941e-10  2.5434236938521169e-10  1.2824907590331844e-10  1.2901494812613451e-10  1.3164931860082651e-11  7.1255024255165591e-11  1.4704882882385617e-10  1.6847210091257697e-10  4.9976681306786222e-10  3.6600287739496720e-11  8.2073118674128002e-11  3.2771478104951391e-11  2.3895421768737575e-10  1.2520576135892189e-10  1.8587955227730621e-10  7.5296866735330673e-11  8.7995375983853667e-11  1.2047120713592586e-10  2.0218599345334337e-10  2.2444815114719210e-10  2.6008423456602449e-10  4.3943277720065183e-10  2.1494256164451334e-10  2.0980162462223534e-10  1.4557530516760344e-10  7.9449398851997371e-11  1.6887099754171325e-10  1.6442119633853530e-10  6.2951351600788098e-10  1.3094794039416619e-10  6.1636432194334868e-11  4.0786492210619951e-10  1.8992535254369353e-10  2.0817539059083879e-10  1.2864924373272095e-10  3.2183423668495361e-11  4.4719977378563235e-11  9.7928815269795838e-11  6.8158018761360829e-10  2.9421548640720161e-10  1.8024588477545202e-10  1.3677145542361406e-10  3.3408492945852580e-10  6.7046739183193159e-11  1.0859626861245800e-10  3.5345374197093536e-10  1.3483366051799715e-09  9.9254388932786134e-11  2.8240253586111502e-10  6.1634886314353410e-10  1.2359270698064351e-09  1.9886982901132884e-10  1.5342579679772379e-09  4.1974586625246938e-10  2.2619571992200417e-10  1.1556900731275728e-10  4.1268698087544784e-11  6.5522167070787468e-11  1.2661275448042119e-10  1.5549576564565749e-10  6.2938476727508209e-11  9.8271711506183921e-11  1.0690740783178362e-10  1.2662426009816217e-10  1.9239563720201745e-10  5.0056796947777773e-10  3.1910429370570302e-10  1.6654157817811204e-10  9.5676982626583190e-11  6.1400270384431547e-11  5.9389597760697103e-11  7.0957119006889384e-11  1.8210945503682950e-10  2.2820431472345389e-10  1.0583088185332324e-10  1.0539958384348439e-10  2.3761229881791618e-10  1.3679619935802542e-10  6.9616425909757018e-11  5.9176238408953399e-11  1.0520665002717185e-10  3.3881287903470657e-11  1.8753933140620422e-10  3.3150280575707092e-11  1.6089646533235070e-10  1.7984960436896206e-10  1.5237001562201250e-10  3.9990904078562480e-10  7.9157854934559348e-11  8.2199793591227331e-11  1.4575097301151927e-10  3.1249200694159210e-10  1.4339504761038555e-10  2.6338999820114465e-10  1.1049284479220608e-10  1.3623068734163308e-10  1.5779274626343557e-10  2.7784842014130656e-10  1.2752549123054246e-10  3.3647453028857900e-11  1.1861299454500359e-10  1.1216228853459663e-10  1.4766107712200829e-10  2.5360622103886076e-10  1.7185717087256710e-10  3.4720657353051253e-11  1.2949976914695697e-10  2.3011113082040273e-10  2.7822530672499406e-11  3.3029668780629874e-10  1.6377322520164134e-10  3.9113128505483247e-10  1.1290250085630288e-10  2.3801108286500384e-10  3.2436351640742305e-10  7.5395343989034099e-11  1.0600193463986162e-10  2.2028875813121229e-10  7.1825534389018111e-11  4.8245304712987090e-10  1.5860181788359113e-10  9.8196824125403511e-11  1.0947036344555218e-10  2.1059455638150652e-10  5.4523760173328701e-10  4.7827991368960608e-10  1.7819507401238858e-10  1.7338311997161175e-10  2.0932860429521012e-10  4.0068854690429650e-10  4.5294961034804491e-11  2.2676763006097748e-10  8.1306414833979520e-11  1.2452622682513082e-09  1.1759424693818904e-10  4.5875317281485561e-11  5.5188213081418254e-10  3.3140189889948784e-10  2.4652972479956063e-10  2.1349427460557311e-10  6.3593155227731278e-11  1.5320734135949059e-10  3.3670398620381746e-11  4.3857016619759289e-10  8.1555490840028984e-11  1.3554301725019575e-10  1.2783401486676443e-10  6.6238172801341882e-11  3.4801560679280641e-10  4.2371522043940982e-11  1.1714411237010849e-10  2.4514567174592001e-10  1.7848120729061576e-10  7.1521248876972237e-10  9.3289425227960720e-11  5.7755664080217840e-10  1.4828151732775889e-10  3.5507904539197542e-10  5.5433751384224965e-10  2.4320244301216529e-10  1.5435377754963540e-10  2.7292031643383248e-10  4.8192800944588012e-10  3.4729404887594292e-10  7.4460805120978073e-11  4.9602437893130766e-11  1.6373218584603172e-10  3.5883602361076102e-10  1.8713473772860976e-10  1.2590117917722664e-10  1.7006748194857224e-10  8.1481441358642647e-11  7.1479914832164489e-11  1.9969305307750050e-10  5.8167910212601244e-11  2.0782187079648334e-10  9.0903563411532771e-11  4.8254731652618048e-10  5.0075266565004147e-10  8.2210018599847861e-11  4.1101957363030479e-11  3.9871761550247962e-10  6.5076697139059356e-10  2.5802058410813296e-10  9.9185623326422311e-10  2.8821187414860420e-10  3.1738884828719714e-10  2.7406239767260428e-10  2.6663246458681580e-10  9.7779512136468542e-11  3.0576459858728548e-11  1.9443572735231925e-10  1.0451347933427533e-10  2.1430637856003340e-10  7.5424176085974700e-11  1.2542608547119889e-10  2.0683321399414625e-09  1.7692497322774429e-10  8.0756019084157249e-11  8.3396974292975187e-11  4.0178228591477876e-10  2.4196650547945083e-10  1.8959190110781477e-10  2.0776355513917009e-10  4.4657580037977131e-11  7.5790447705180271e-10  2.4272231736555342e-10  5.3507047514551124e-10  2.5068996960244393e-10  2.4019810949109989e-10  3.1262564716937351e-10  9.4393921158837359e-11  3.2542792131823135e-11  3.5191504659820260e-11  3.7071428118531388e-10  3.4496293741103988e-11  1.1439934400633116e-10  1.0260407473017821e-09  7.5056594287494140e-11  3.4863345563294490e-10  2.6339681193345863e-10  6.2257624740991441e-11  5.9880253605270687e-11  1.7915161781912071e-10  2.4568425487081259e-10  4.8414760856568193e-11  1.1254807818885114e-10  1.6162960989962374e-10  7.5456583603836356e-11  1.7147554784017162e-10  2.1350873918281337e-09  3.8188339081062861e-10  3.1962975640283075e-10  1.0710499665557805e-10  1.0808851547161241e-10  1.8583798450267174e-10  7.8888141078368130e-11  1.3395901823360990e-10  4.9620300825337957e-10  8.6397913378181972e-11  2.4095235111988034e-10  2.1695557416627078e-10  1.3917096088587149e-10  5.0180344198803994e-11  7.5757664991327368e-11  5.3679867594594921e-11  4.2220736385714328e-09  1.0620536952525555e-10  2.1941246386519411e-11  5.7148470845507898e-10  2.9987314970132530e-11  6.2239657363532589e-10  1.1631222647378082e-11  7.5550223503270182e-10  1.7483960361335266e-10  2.4712574879813412e-10  1.0433485185448757e-10  2.7878588292277417e-11  8.5260300168583535e-11  2.7676891743120984e-11  2.0604304776594384e-10  3.7304822735111678e-10  2.7045414474891764e-10  3.3137926799849641e-10  1.3574548263949944e-10  9.2903563422244094e-11  6.1784191442552201e-11  3.6447109194497188e-10  5.0457979058180278e-10  1.0600829440274013e-10  1.0027573640197970e-10  1.4587734622154164e-10  7.6377732534688419e-11  4.5461801558408671e-11  5.2464921913510684e-11  3.0368269471787584e-11  8.7877633528135151e-12  1.7357178045280699e-11  9.5608006017254618e-11  2.0534548189029348e-12  1.0101734230624703e-11  1.8620918813078482e-10  3.4969924831557158e-09  2.2148581987419712e-10  4.1085917209404713e-11  2.2054939631896257e-10  9.3924064495108947e-11  1.1294127316628272e-10  4.4002716058981655e-11  1.6424146517955195e-11  8.4566931395216522e-11  7.3754628141901198e-10  7.9116754028583453e-11  1.8421681089141286e-10  3.2518437966140517e-10  4.9087868990204809e-10  9.6052885288413399e-11  1.0186175795918881e-10  5.7990226698326882e-11  7.6444570235925493e-11  1.1014631061160157e-10  5.7489508696625999e-11  6.1647533044440134e-10  5.9243302442220372e-11  2.7801912516635834e-10  8.7191769973284560e-11  1.2750972652608089e-10  3.1144127485296689e-10  4.1384246351449047e-11  6.1621556681288645e-11  2.8392199581994861e-10  1.1665632356071484e-11  1.1388965142834276e-10  8.7564558901676654e-11  7.5917547479903897e-11  5.6305821084451956e-10  1.6190683949791109e-09  3.1671953347009421e-10  2.8887376566265747e-10  9.0238590609951097e-11  7.0077915664863061e-11  2.5487350638424723e-10  1.1817799399121306e-10  9.8769709234463587e-11  1.0392799312774051e-10  1.9991699413173198e-10  7.4400235291740395e-11  5.2034873323410593e-11  6.9290452002720199e-11  3.9422930405808601e-11  8.6577138381301740e-11  1.9110173668772208e-10  1.6249156876083737e-10  1.1143959522890275e-10  2.7545090902753332e-10  4.6960621735586304e-11  1.3667240436273382e-10  5.2359868985839215e-10  6.6034794695866471e-11  1.1605946277442538e-10  1.3919653161332056e-09  5.8519522882022601e-11  3.3697077152267970e-10  5.1274702387365607e-10  1.5765694749025483e-10  1.2778958620469265e-10  1.2571095289032919e-10  8.8349412085779657e-11  2.4962103368298766e-10  2.8616650124444130e-10  1.7776656295813971e-10  4.6854298674100124e-10  4.2470231785607305e-10  1.2213898197866582e-10  2.1111946095799190e-10  6.6930877337187385e-11  8.4973950013012918e-11  6.2466716925118121e-11  2.3938713400319685e-10  4.0080679820559611e-10  3.0817391634324247e-10  3.2493555312736692e-10  8.5958753016429077e-11  2.2736049849681439e-10  4.7848179098013261e-10  1.7245867522497398e-10  4.8221612589001596e-10  1.8209906807939106e-10  1.3771306001748201e-10  1.1112399149857938e-10  5.1043233348877173e-11  5.4337136154121485e-11  3.3239620923182785e-10  6.2812930421716334e-11  6.4573017782737549e-11  1.2998946386613437e-10  3.2081410202308434e-10  3.2212335063085736e-10  1.5726740187639864e-10  1.1717729119489347e-10  5.9470419591241661e-10  6.2982444189940762e-10  1.6144768785258309e-09  2.6962711169124855e-10  1.9898872916067992e-10  4.4459289657646747e-10  4.5473100080522181e-10  1.1782158528501313e-09  2.9740441454215537e-10  2.4684246531448618e-10  3.2551100758000876e-11  1.2914242662836467e-10  3.3451821010311275e-10  5.1617174693529596e-10  2.1337224940892680e-10  6.6458407082991272e-10  3.0503426566527914e-10  2.0752722710593270e-11  4.8114866808120506e-10  3.3454435257960695e-10  3.8582687359645410e-11  3.3311672050341732e-10  4.1320410294268458e-10  5.4324083491361461e-10  1.4547373380251796e-10  6.7413291211571332e-10  1.9449178685375989e-10  4.7036534846249823e-11  1.2683737595404038e-10  1.3240021836496060e-10  3.1561008525106428e-10  7.7974168843119522e-11  2.6650398253725649e-10  1.9396341380226701e-10  7.7555113870575698e-12  2.4693571325034676e-10  5.7865879731135569e-11  8.9959934241760975e-11  1.2407338334808004e-10  6.3211354567130223e-10  4.1400971483654205e-10  3.0517147735228850e-10  1.1664358828213880e-10  1.3271298541067706e-10  9.0347660530781059e-10  5.4356598932354083e-10  1.3512534812328119e-10  1.4195864405964268e-10  9.2261763204931092e-11  4.8833353257352155e-10  1.3979433943401088e-10  1.7501354242087067e-10  9.5240956738615840e-11  7.0269706656902955e-11  6.3542364918267702e-11  1.5072705732251408e-10  9.7078147833454479e-11  1.2998444766353631e-10  4.3652940344740616e-10  7.6192940644659451e-11  6.0143973697854561e-10  1.2802709868758276e-10  2.2398699211993407e-10  2.8220739102619081e-10  5.5302363645501212e-10  1.1533954000494325e-10  4.0953121087139739e-11  6.2279426349832332e-11  1.4126888088194425e-10  1.5783722345166734e-10  5.1862971668255544e-10  8.3404260798391840e-11  1.6007788772024754e-10  2.4965773494157079e-10  1.3630045737578465e-10  2.3632906299979887e-10  3.2985885545283589e-10  3.1247577244139108e-10  1.0595237423351507e-10  1.7581548185854636e-10  1.4912541060598867e-10  2.2805116131470732e-10  5.4498706187666057e-10  3.7506783806806966e-10  2.0213911807407124e-10  2.0515670312112551e-10  1.2483181951844074e-10  1.7080083500487547e-10  3.0055326170701526e-10  3.8278581911355760e-10  3.6281046075498697e-10  1.6549193125886025e-10  2.1918986657708763e-10  1.9389042770345488e-10  1.5327594120616651e-10  3.9984651763522301e-10  3.1020881539779498e-11  1.0587040887366609e-10  1.2669705318419116e-10  8.3919355087288111e-08  4.0710956418686329e-10  1.7793115766479150e-10  6.1003108309128982e-11  2.5757576227515840e-10  1.3864870490631578e-10  6.4177853002454839e-11  1.0546660731475049e-10  2.0306216761368854e-10  2.0613946095206795e-10  1.9396814866476951e-10  1.8967336684547352e-10  3.0716144589437107e-10  6.4524151222992951e-11  8.0049323464942778e-11  1.9232475524998670e-10  1.2224714933449588e-10  3.5122579527706282e-11  4.0323966210385348e-10  6.4159656329301645e-11  6.1781601453001771e-11  1.9341125755865623e-10  9.8410859682907542e-11  2.3797067099526681e-10  2.9378973899646113e-10  2.4819882204207219e-11  7.7606303622853400e-11  1.8647969406004985e-10  9.6023572677496635e-11  3.1856022078975255e-11  8.9471505831138321e-11  5.7464420822392549e-11  7.8013183689273429e-11  2.2635142467453200e-10  4.7024749125987806e-11  6.5855227704344586e-11  9.3878517762697005e-11  9.3020864746887936e-11  9.3574502732598785e-11  2.5387325569192758e-10  8.7422590876096626e-11  1.8283859569227436e-10  2.0103853253219944e-10  9.8423015862271136e-11  1.6065890252112145e-10  3.1536963544211392e-10  1.2369085186860186e-10  6.1717001698885685e-10  1.7160638855345057e-10  1.4924899421637404e-10  1.3882918057384295e-10  2.2705934410928770e-10  4.3705679348994858e-11  3.9656078621271079e-11  7.6747708990301988e-11  4.3919722060823450e-10  1.9923249261448669e-10  6.3711472266024627e-10  4.4365362249063680e-10  1.2113506906459223e-10  5.4946778260487075e-10  3.6523006065536558e-10  1.8956793385801383e-10  7.0561811562060016e-11  9.3021668230711244e-11  1.7371191855034611e-10  1.8771472781331196e-10  4.0560699729309646e-11  4.8283373439242743e-10  2.7683753231575076e-10  3.0947468041994805e-10  5.2327846868897004e-11  3.5417865611827309e-10  2.6551089118286800e-10  5.8542483482051542e-10  7.3803435077382325e-11  6.1030981163111654e-11  2.3976310981920138e-10  7.2473177106133659e-11  4.2095752939803520e-11  1.4666033101405024e-10  2.3899825473331114e-11  6