<?xml version="1.0"?>
<VTKFile type="UnstructuredGrid"  version="0.1"  >
<UnstructuredGrid>
<Piece  NumberOfPoints="4852" NumberOfCells="9430">
<Points>
<DataArray  type="Float64"  NumberOfComponents="3"  format="ascii">-1 0 0  -1 -1 0  0 -1 0  0 0 0  1 0 0  1 1 0  -1 1 0  0 0.9999999999999999 0  -0.5 1 0  -1 0.5 0  -1 -0.5 0  -0.5 -1 0  0 -0.1608775713298009 0  1 0.5 0  0.5 1 0  0.1967448868031411 0 0  -0.3414767887887762 -0.1757969689715822 0  -0.3378184910431675 0.2253801334492569 0  0.1745494657205215 0.3471244741204849 0  -0.1869543489754522 0.5559310080333333 0  -0.5064371229877905 -0.5393994143702761 0  0.4905649673288262 0.2591557688886965 0  -0.0645729138473571 0.201454338348811 0  0 -0.5061325913258391 0  -0.25 -1 0  -0.5639266189053319 0.5798402081342849 0  0.6632150857763843 0.637773723200044 0  -0.1702329184591478 -0.5384177438112091 0  -0.5399476738876693 0.02601910715192183 0  -1 0.25 0  -0.2065464901040181 0.02385663361711307 0  -0.6552498244226936 0.3124922746878258 0  -1 -0.25 0  0.03958135852626378 0.5927508383590826 0  0.1954219876463467 0.1295979134734147 0  -0.1351464313234162 -0.2206803749447575 0  0.3724617427516098 0.6164407912790386 0  1 0.25 0  0.5355652144809806 0 0  -0.75 -1 0  -1 -0.75 0  -0.6467052491988587 -0.3244115194932204 0  0.25 1 0  -1 0.75 0  0.02757118475249542 0 0  -0.25 1 0  -0.75 1 0  1 0.75 0  0.75 1 0  0 -0.02898318711980711 0  0.0543683608728931 0.1426485397607415 0  -0.07777678716983698 -0.02795360876819881 0  -0.7017692105223446 -0.1328704030900736 0  -0.3222386214903803 -0.3478995071022981 0  -0.3427597168678316 0.4388971966255021 0  -0.1010511741928426 0.7651490820940046 0  -0.386837734301503 0.7033330064965535 0  -0.05524196405461627 0.3999481268529567 0  -0.07921706532955944 0.07196581278401368 0  0.3593635803584585 0.3707467421059842 0  -0.7192321634309071 -0.7329243421330806 0  0.4118478712776785 0.09116470104624319 0  0.6899972679536388 0.1934636678094137 0  -0.748225662759651 -0.5306201862967928 0  -0.3905107341408848 -0.7111634091519516 0  0.7216383263424581 0.4220339399951364 0  -0.7760572567518693 0.09813473239421094 0  0.1980870203823364 0.699566593038538 0  -0.1998615223921774 0.2892433459114266 0  -0.8004825536952548 0.579924076924545 0  -0.7190994614280293 0.7681629188797292 0  -0.03278535616343012 -0.3744223276264529 0  0.5872015069502532 0.8182738741104609 0  0.822257683815216 0.8093994034554909 0  -0.09499543500893602 -0.694980940871875 0  -0.5156993497475748 0.1643995336089684 0  -0.2023506979039262 0.1259383595465844 0  -0.3598707617730732 0.07590745908705838 0  -0.365827833817516 -0.05246197338556021 0  -0.4984867580114664 0.3974455622754809 0  0.375 1 0  0.9999999999999999 0.125 0  -0.01167872009720103 0.07132248463690187 0  0.06274417390607832 0.3925713514282229 0  -0.1716351782009155 -0.1224067625015701 0  -0.2450372695688552 0.7742031434040932 0  -0.625 1 0  0.5341854988026239 0.4567188075630447 0  -0.579975778174044 -0.8310931689991174 0  -0.2578115451528321 -0.7831128590796786 0  -0.3204878034795056 -0.5092851487368727 0  0.8340658180600929 0.5995400411779807 0  -0.5521587743386054 0.7914001472552942 0  0.125 1 0  -0.06748371483099005 -0.09341933493013986 0  -0.4951838755546862 -0.1435290153568557 0  -0.875 -1 0  0.02964467280587876 0.04162185248858203 0  1 0.375 0  -0.8750000000000001 1 0  0.05788093573290654 0.7943341843515695 0  -0.1932420832264648 -0.3748676055564351 0  -0.07340855655958732 0.5719569080734879 0  0.2374558818084855 0.5191635436133367 0  -0.7927414280576914 0.2325487457905712 0  -0.4967208265576922 -0.3901830032801316 0  0.0002856822698408007 0.2718180427633978 0  0.5117828942284759 0.6429606261807358 0  0.4009174850952187 0.8087164081090948 0  -0.8070546111702452 0.427419057546133 0  -0.061453642753349 -0.2225008069604681 0  -0.7101737616164188 -0.01389507684524168 0  0.09062392567455557 0.05261971459763942 0  -0.4791323230663578 -0.2516520483129269 0  0.7240140364097608 0.08401539848063054 0  -0.808934459381307 -0.4131881861413869 0  0.3376213008526099 0.1546748967753294 0  -0.7948862252133388 -0.2517046185400894 0  0.2366251212404537 0.2553445382851088 0  -1 -0.875 0  -1 0.875 0  0.1844689276375867 0.04845922741245792 0  -0.2477958763227252 -0.2292921214206607 0  -1 0.375 0  -0.1712657594973883 -0.04194610157676025 0  -0.6507129737886035 0.4705527818396748 0  0 -0.07736776745332727 0  0.08084780758613472 0.2605186814856653 0  -0.375 1 0  -0.2185368616977554 0.4258658425812049 0  -0.1204652416216034 0.1503609507260977 0  0.1341612868360604 0.5556492223816514 0  0.132370090591738 0.1943940767381555 0  -0.4763253419134137 0.2717271295181946 0  -0.04633950759534872 0.0138724985243057 0  0.8504161069619988 0.373417929386856 0  -1 -0.125 0  0.287391989062671 0.8373940603868046 0  -0.1114852991765662 0.3138007099387985 0  -0.125 -1 0  0 -0.7575037395175259 0  0.07821397079968176 0 0  -1 -0.375 0  -0.375 -1 0  -0.625 -1 0  0.7474787146812755 0 0  0.625 1 0  0 -0.2918843213980812 0  -1 0.625 0  -1 0.125 0  -1 -0.625 0  0.3284075310660084 0 0  0.004929205892015135 0 0  -0.125 1 0  0 -0.006571003003944568 0  1 0.625 0  1 0.875 0  0.875 1 0  -0.5665038219287428 -0.6785376749584096 0  -0.00447666483189542 0.1605702470040789 0  0.3625678215462719 0.2649608746473265 0  0.6530986703459859 0.2966467126667303 0  -0.8562866147703215 -0.6502047483018728 0  -0.8643727610406845 0.7883945443138678 0  0.4313773231295333 0.5035766622363748 0  -0.4015312320587351 0.8555538994203623 0  -0.7812328268487314 -0.8763843762819898 0  -0.8724392097757248 -0.7869251551820545 0  0.1553624261712915 0.8426329347551943 0  -0.6592883787511917 0.1546684818607467 0  -0.5788749622620851 -0.0639932806754918 0  -0.8547050429318209 -0.0628918091340295 0  -0.2987452478543212 0.5632716872855495 0  -0.4269252672688865 0.5713001514231224 0  -0.3777016326527641 0.3325968170324459 0  -0.6201010231895479 -0.2169748909077349 0  -0.2735012355750508 -0.09007611215820205 0  -0.6429810491668457 -0.5913516997531019 0  0.8592225991681642 0.2679334905998275 0  -0.03276634812996079 -0.03307920513101992 0  -0.0548553950280356 0.1148550499932167 0  -0.1347407653346592 0.4330646696518887 0  -0.120009523205773 0.03244477162131613 0  0.5380478006744395 0.06560803175541487 0  0.5797516153050157 0.36186753802992 0  0.6940106591825161 0.777728818486129 0  -0.7950769767681201 0.8815482938189222 0  -0.6448936299950724 -0.4316809889984292 0  -0.1058133079798468 -0.3995325872050969 0  0.871300855256763 0.4923013583900525 0  0.0762187324406938 0.09404686550925401 0  -0.6669635033585923 0.8682502571707997 0  0.4550076956526682 0.3524247380732841 0  -0.02634798238403467 0.03584272727041715 0  -0.4106486205002594 -0.4413284830430635 0  -0.3627602533199586 -0.2690677794879779 0  0.324336362028064 0.4833002781142843 0  -0.1970081606370358 0.2022379643653439 0  0.7063728270273287 0.5351474139239049 0  0.2622495909795872 0.357288121145896 0  -0.3797271531456952 -0.8513660934609077 0  0.1104756053180248 0.6833763982254561 0  -0.2853615864439917 -0.6126499869902057 0  -0.4439953674609577 -0.6215537459474092 0  0.2974692319718842 0.6937838819696037 0  -0.875695210100586 -0.1755731200799333 0  -0.1813757706853201 0.8543342976238862 0  0.4548361462910444 0.1649773412767678 0  0.2803204204366871 0.04723712845055711 0  -0.1439774306572695 0.6589962339903687 0  -0.01140959634468907 0.7100171811388017 0  -0.05379350568946751 0.874458301373384 0  0.005383078174990195 0.4710834916591215 0  -0.3885594885316961 0.1547207648688751 0  0.5495445008693746 0.1348246344019246 0  -0.4795620227258478 0.6836974176704653 0  -0.8518272225655367 0.335950639525611 0  -0.07697132364057292 -0.5369043983086903 0  -0.01507800848849755 -0.5528750866428412 0  -0.2129456249276182 -0.2884550921155048 0  0.868286786296235 0.1527455328178946 0  -0.1636734094550158 -0.660354877450317 0  -0.8905511611178334 -0.5313698439625465 0  -0.2834465111178924 0.3393498407182007 0  -0.6786320167682124 0.5768946347043679 0  -0.8981001942609256 0.5333809966883207 0  -0.8990371259284339 0.6624145075889509 0  -0.6455182349547272 0.07333466748131297 0  -0.8593270763972934 0.02893285302527304 0  -0.8885812668950503 0.1696153376016356 0  -0.1308300636792402 0.2296730221183262 0  0.1612539980295356 0.4470932182638794 0  -0.04340959474738041 -0.1259796594802887 0  -0.7555735557536308 0.672766136772367 0  -0.6055719209574144 0.7001027437880705 0  -0.2551574486268277 0.07892572206227695 0  -0.251895319424633 0.6499751046672809 0  -0.02741697708663236 -0.006504268323322802 0  -0.4973244879661565 0.8766434721874978 0  -0.4792364910023164 0.4924503680096468 0  -0.2915067449250234 0.1449460877391198 0  0.002402704566384869 0.02367549680977767 0  0.7808220503166359 0.6881175453605732 0  -0.4738492471283544 -0.8250159078662718 0  0.2720496494076007 0.1959566612483446 0  -0.1456374795318567 -0.8620654432844379 0  -0.06110615366835345 -0.8277339490731678 0  0.4455948862828936 0.708078717652194 0  -0.112205573918823 -0.2904753961233318 0  -0.265538520139074 -0.02618609786934725 0  -0.8953701910378955 -0.8978285790624257 0  -0.5741936771111834 0.2398254254989035 0  -0.477387215779411 0.08867847828407702 0  0.4936335155971072 0.8273114674569022 0  -0.02481884121305274 -0.2628885349735156 0  -0.3120471272263127 0.8747013738638538 0  -0.1434145221111311 0.08073818595816529 0  -0.4702658887035647 -0.03484650251259836 0  -0.3887212203647222 0.01228157699709539 0  -0.2924302544010184 0.02777643687859698 0  -0.385762028270755 -0.1205900833725458 0  0.8885304485293242 0.7015973729755104 0  0.7949986186918713 0.9126800735543228 0  0.5769253677157123 0.209735642254565 0  -0.5628948385313187 -0.4714631442427837 0  0.6012192541335315 0.7092101490601775 0  0.6805747964941739 0.8899548339619677 0  -0.05121242536306328 0.30396087069448 0  -0.9029218943386115 0.905315573575761 0  -0.1277623592224891 -0.06723463778552441 0  -0.1690834583301243 -0.1828113272994684 0  -0.2529869991023313 -0.1437741147505795 0  0.03739069193843379 0.2020982845695772 0  0.9031731390732067 0.896519988
[...]
<PointData  Scalars="w"> 
<DataArray  type="Float64"  Name="w"  format="ascii">1.7603710114287906e-10  9.9102788610864584e-12  4.4695454753106728e-10  2.5494637053481585e-09  6.2855824587471350e-10  1.5338184409309696e-12  8.5584585917011484e-12  7.7481788155039081e-11  4.1220189115349496e-11  2.1578275766285677e-11  9.6236493568792828e-11  9.4166847145415824e-11  4.1410053052635460e-10  2.6853416230093354e-10  8.9167115706034954e-12  5.4629450047502146e-10  9.0694779721657219e-11  7.2244206584407263e-11  1.2970806309180793e-10  3.5731792573069710e-10  6.9861789618510484e-11  1.0977634681500806e-10  5.8679223632925952e-10  2.3371525278121944e-09  6.0399159082552413e-10  1.0662502730322464e-10  8.6326379130546405e-11  1.9674001553241351e-10  7.7152176054640620e-11  1.9933999769956585e-11  4.7478944085928965e-10  9.8901724022034310e-11  2.3093383421766888e-10  1.7934174080089190e-10  4.4856993628394541e-10  2.3672314361919478e-10  7.6266127459053761e-11  4.6140255787828107e-10  5.9689674569053405e-10  3.0222915177557055e-11  4.6571206561142731e-11  1.0506331939049361e-10  8.9670253982329345e-11  1.8648781502745531e-11  1.0588347106831150e-09  9.6284945769889910e-11  3.2393920860740899e-11  8.8020579805749915e-11  1.3858525829224787e-12  5.9366950133465077e-10  2.2510910283113885e-10  2.1503474227172458e-10  7.9572755149904123e-11  2.6432174493852243e-10  2.7331420620285780e-10  1.8636373601126672e-10  3.4463771701362641e-10  8.9842612321434908e-11  5.8911630501190903e-10  2.5586564356378363e-10  2.8869274439397476e-11  3.2298530147004749e-10  3.7596644696823520e-10  1.4650820321340430e-10  5.3885737979714484e-11  1.7823687451401760e-10  7.2026760506570124e-11  1.6593394918306095e-10  2.3077239150286187e-10  4.4128970222707427e-11  5.9602983066833663e-11  3.2040534860173089e-10  5.4780246167724308e-11  8.2097520684158108e-11  2.0214916040304587e-10  1.6979727826337794e-10  2.6601191751328949e-10  2.9579481300137284e-10  1.8120967494970619e-10  1.8598653617173320e-10  6.3813830747806763e-11  2.5029834185208407e-10  2.6605081809347572e-10  2.0304042360912109e-10  2.3735590401704200e-10  1.1980347915364018e-10  4.5131489603469096e-11  1.1246403308203824e-10  8.9926357954789123e-11  2.7389477800211451e-10  7.3934695506288534e-11  9.6410934869183838e-11  7.4990854132135957e-11  9.4916737144221981e-11  4.0007463125777480e-10  2.0788745394287176e-10  2.3666998006572770e-11  6.4960727013419892e-10  2.6262697242333055e-10  3.0206237463274513e-11  2.6843640041817702e-10  4.4922534020888247e-10  7.4518013764591773e-11  9.9369017525930581e-11  1.6100732236593208e-10  6.7483272128806236e-11  2.7482140015510905e-10  8.4056428065676950e-11  1.4129789923297490e-10  6.2678956421603788e-11  3.1165431114468988e-10  2.3413629101137150e-10  2.3153159801420655e-10  6.3041865681106437e-10  1.2135317488143906e-09  1.5878576139868583e-10  1.6332265242071550e-10  1.0759702483195389e-10  4.5768170746850533e-10  2.3453149218407401e-11  2.4896816616064539e-11  2.7725121037057827e-10  9.4689098403053351e-11  5.9655394316124566e-11  5.0508970229070565e-10  5.6663790091669220e-11  6.0388727113759990e-10  1.2154887218926175e-10  7.8816980378318104e-11  8.4353895280159073e-11  3.4818255939433345e-10  1.7948059030839516e-10  4.6410793478323656e-10  1.3534390691915613e-10  6.2592951882281803e-10  4.2384592759597626e-10  1.0766775999770425e-10  5.1570876928444358e-11  1.3325466690998519e-10  2.7525126836134603e-10  4.6222909366645262e-10  6.2098345429708523e-10  8.3512237354221767e-11  1.1738906523751537e-10  6.3003391959694832e-11  6.6342087826757460e-10  7.8766287220394983e-11  2.4785208776772721e-10  1.4074585821917898e-10  1.2567205413678833e-10  1.8221944530583463e-11  2.8742095411400684e-10  1.5828931703177227e-09  6.1369608399436364e-11  9.7216687791053652e-10  7.3555209085976826e-11  2.0984216713195530e-11  2.1371487607652922e-11  1.2150440037232591e-10  5.6383588649298290e-10  4.6894670294932581e-10  1.6018670432472270e-10  1.0589338977810008e-10  1.5910031747238888e-10  1.9007498458383041e-10  5.7798506228571995e-11  7.1393270292095762e-11  1.9250928367180615e-11  5.9713787720916236e-11  2.8303099891809947e-10  9.4249664572007489e-11  1.0647706692988310e-10  8.7321497432300014e-11  9.6281338861890338e-11  5.3551936191725556e-11  9.4771535574910895e-11  4.5916419695908398e-10  5.3492621437582798e-11  1.6471274959134449e-10  1.6752354446597579e-10  4.8063126904517869e-10  1.9696776661515831e-10  2.8938989173480299e-10  1.4605661152957933e-10  1.4472556775405845e-10  1.4313499918915247e-10  2.0272249002208728e-11  2.6342373578356286e-10  7.3670251014448070e-10  2.4504053070503124e-11  2.5778874797532052e-10  8.4868615857401923e-11  1.5950465479688329e-10  1.1277258590241158e-09  1.4248767756031109e-10  1.6730302122811991e-10  2.3052981148556019e-10  2.9275569580090613e-10  1.0128090544807969e-10  2.0476369211363689e-10  4.0837440410472090e-10  2.0916486232668243e-10  2.4137766292383171e-10  1.1238105230321792e-10  1.0934367848256649e-10  1.1436159467508250e-10  6.8526973248588801e-11  2.0911061491662600e-10  8.9203911806480957e-10  8.0716175342737546e-11  1.1077586684704261e-10  7.8455214362425589e-11  9.6843328490993984e-11  1.6535879341674495e-10  3.8129104582737814e-10  7.5690592985679060e-11  8.0003184470790477e-11  9.4584587424457805e-10  3.8787176868943655e-10  3.0896867089404528e-10  2.0185750662005144e-10  9.6994261432607347e-11  7.6729531246458202e-11  3.3392835206023383e-10  5.6695393941685136e-11  7.7990138927629247e-11  4.8678122485309452e-11  9.1839608372881578e-11  4.1341175508884280e-10  9.1091850935262798e-11  2.0190019060445871e-10  1.6211445378996359e-10  9.4049785692641273e-10  5.9176678723682331e-11  1.9252924343464264e-10  1.1766592995298273e-10  1.1290242209014417e-10  7.6470289728844824e-10  7.0137534356571649e-11  8.2401459781207843e-11  1.1700040591334900e-10  1.1238185158544073e-09  3.8639437273446995e-11  7.6528629187500891e-11  2.7831552538452359e-10  2.7926758492384717e-10  3.5840876053970605e-10  1.7720554933669796e-10  2.0095823524780818e-10  4.0430105692601849e-10  2.7330825707015089e-11  1.0352295778946588e-10  1.2819703131898696e-10  3.6909536147127664e-11  3.1348761752870498e-10  4.4271392731567977e-11  3.2560499394398552e-10  1.3983539550416112e-10  1.1104509751993133e-10  1.9382027169909859e-10  4.9804833761409834e-10  6.9792915128557666e-11  2.5086565407948154e-11  1.4725978016698457e-10  8.2231204063675311e-11  5.7198594168840852e-11  7.2173580847418459e-11  1.8535555932709027e-10  4.7178089407242846e-11  2.6029940039803102e-10  2.5807634020534462e-10  1.3116399861175971e-10  1.2843828705095215e-10  1.2075475765718384e-11  7.1828516370612453e-11  1.4540117614770855e-10  1.6547499701118271e-10  5.0338226689205440e-10  3.8712455270803575e-11  8.3071529862603680e-11  3.2266035528490825e-11  2.4125497813658239e-10  1.2461910942247477e-10  1.7846130872465869e-10  7.5164422287665767e-11  8.3811873194639651e-11  1.2198970485266286e-10  2.0639632974417260e-10  2.2232903239676595e-10  2.6624053572475612e-10  4.4090018405066274e-10  2.1408996250345903e-10  2.1016185344998737e-10  1.4871983745496700e-10  8.2832662593158201e-11  1.7344075962001788e-10  1.7991913144496181e-10  6.3256507399799466e-10  1.2391780306388435e-10  6.3832727262320096e-11  4.1741975095710904e-10  1.9239852589454654e-10  1.9678747761313665e-10  9.2048553550346054e-11  2.9914988907167776e-11  4.4431705000423436e-11  9.5921251276552427e-11  7.2618322871242284e-10  2.9137462411241620e-10  1.8564211089818717e-10  1.3698436614644186e-10  3.4871847756185062e-10  6.9012950141476306e-11  1.1531105541748314e-10  3.6077160104190262e-10  2.3378552382487206e-10  9.8866299671075921e-11  2.8071221953763873e-10  6.1889031930637566e-10  1.2347541225090760e-09  1.9620527070303441e-10  1.5389592546864658e-09  4.2393387605693478e-10  2.2487942305787520e-10  1.2384966467979218e-10  4.0529529576036611e-11  6.6214502708045212e-11  1.2503950110069839e-10  1.5767805504467095e-10  6.3678666770962651e-11  1.0021851764983118e-10  1.0972449037309779e-10  1.3462513585022405e-10  1.9256709540557836e-10  5.0751049890524465e-10  3.2635679037169999e-10  1.6452869046631705e-10  9.8645720455120513e-11  6.2262506610420530e-11  6.1209985977948521e-11  6.7444496701922164e-11  1.8585029461619590e-10  2.0434996387513551e-10  1.0540003980015482e-10  1.0427279549234795e-10  2.3866218190971351e-10  1.3568444316451537e-10  6.6787384508600386e-11  6.2245822895370471e-11  1.0562728055591427e-10  3.3162132512183574e-11  1.7743042152682961e-10  3.1278609188681506e-11  1.6018826581240977e-10  1.7662845416749398e-10  1.6030584102248105e-10  3.7260875720255124e-10  8.1121679315287342e-11  8.5554517750567630e-11  1.3698438390949561e-10  2.8622561269253394e-10  1.5201056884688756e-10  2.6333794718633720e-10  1.1297281442169926e-10  1.3353097031005592e-10  1.4655395077057514e-10  3.4061401347727539e-10  1.2856244411034756e-10  3.2233052892178015e-11  1.1270029030973833e-10  1.1109930843926047e-10  1.5255663666351335e-10  2.4014304817553068e-10  1.6420859179080011e-10  3.5079728627456155e-11  1.3291530826750406e-10  2.6208390014726797e-10  2.7812937024419074e-11  3.2989644767122842e-10  1.6764631001174368e-10  3.8396975412975193e-10  1.1757553997286096e-10  2.1882390044519556e-10  3.2965813238553235e-10  7.5186838487781413e-11  1.0572184710180172e-10  2.1747264793551507e-10  6.6536957489464706e-11  4.9833445105440273e-10  1.6244901208907013e-10  9.9046840081925604e-11  1.0708003468036973e-10  2.0752716973647940e-10  5.3735672078781401e-10  4.8681687272211367e-10  1.7055795458902048e-10  1.6640287791854037e-10  2.0017964702690861e-10  4.0619701064278517e-10  4.6701120560759972e-11  2.1811518029148235e-10  8.5023331912412176e-11  1.2509917217320919e-09  1.2268926356964128e-10  4.6379532307343028e-11  5.6261214095898709e-10  3.5516374802451340e-10  2.4969640938910769e-10  1.9825505495180858e-10  6.3255725453688058e-11  1.5372095959411904e-10  3.2387889449050357e-11  4.4205412661882106e-10  7.9836748105928312e-11  1.4169441536512566e-10  1.2945271873354540e-10  6.5791564771502851e-11  3.5389403816301716e-10  4.3862969957359194e-11  1.1519394728704607e-10  2.5435743688984325e-10  1.8125848526322960e-10  7.1903553317483083e-10  9.0348320064863396e-11  5.7400127004782640e-10  1.3797063386629580e-10  3.5308367017422915e-10  5.6249354157398061e-10  2.4568447674152880e-10  1.5938698556465695e-10  2.7538415044509473e-10  4.8664841956736651e-10  3.6882956810305235e-10  7.5439199965380285e-11  4.5912335535654710e-11  1.6643491380942409e-10  3.6080074564157891e-10  1.7906783462314849e-10  1.1890634126305634e-10  1.6977333561564995e-10  7.5683038304044981e-11  6.7798362051370461e-11  1.9753585506337686e-10  5.7039015102394456e-11  2.0946477412961809e-10  9.2789979130265157e-11  4.7950386642852003e-10  4.6211288995393718e-10  8.0995898678485154e-11  4.2101517527800948e-11  4.2521371439606471e-10  6.6249359588928010e-10  2.6118970360314810e-10  9.9929842823207876e-10  2.9374002774671709e-10  3.1995962161377350e-10  2.7023564912124778e-10  2.6812350935767913e-10  9.7481367912143309e-11  2.9471016137689533e-11  1.9566915755555769e-10  1.1320854416823987e-10  2.2123754649835582e-10  7.5034712693867627e-11  1.1384884454245459e-10  2.0756457975288536e-09  1.7936754124892397e-10  7.9183650245093129e-11  8.0162998716583744e-11  4.0376294523562824e-10  2.4862328336448740e-10  1.9028046364284086e-10  2.1621093918671240e-10  4.2625178815043496e-11  7.7242984603224078e-10  2.4127154644586983e-10  5.4122398985706434e-10  2.6399447504367898e-10  2.4470411440295491e-10  3.0766750832834864e-10  9.5498825878717474e-11  3.1516255150074094e-11  3.3423109835147788e-11  3.7355454321481608e-10  3.5745728074042541e-11  1.1601222213022680e-10  1.0147962013110079e-09  7.3752320283107604e-11  3.3961349329421749e-10  2.6086057449800228e-10  6.0695577045034020e-11  5.9654261644035399e-11  1.8646779261413970e-10  2.4429847910557159e-10  4.5524493846933392e-11  1.1650458794291701e-10  1.5796312185832244e-10  7.7431730431748499e-11  1.6216794947268145e-10  2.1359471884114004e-09  3.6726714860980913e-10  3.2172648474244733e-10  1.0907493284559543e-10  1.0182348503064669e-10  1.8061386781152842e-10  7.5534070932679416e-11  1.3197677186380008e-10  5.0972067191338132e-10  8.9074501684508826e-11  2.3680748529653737e-10  2.0180596777855713e-10  1.3660707290988802e-10  4.6276856113239483e-11  7.2079323618009268e-11  4.9177459455015620e-11  2.1068950673743646e-10  1.0884620601617027e-10  2.1688631061286868e-11  5.7743224719095237e-10  2.8372844211940338e-11  6.2602997611555806e-10  1.1466213447229856e-11  7.3120901744716753e-11  1.9652020836854670e-10  2.7314998728888017e-10  1.0015077063244976e-10  2.7778001741358539e-11  7.9276782819058268e-11  2.7299436045954048e-11  1.8298247332589179e-10  3.7666995105463180e-10  2.6970278323802124e-10  3.2248232459816840e-10  1.3290531062976641e-10  9.9347966595862682e-11  6.2241525263742950e-11  3.6725887874557477e-10  4.9725359807246344e-10  9.9484688892798182e-11  9.7767048518802967e-11  1.4767119462826040e-10  7.1169760920129569e-11  4.8436169490350956e-11  5.2163940520498855e-11  3.0558266305656597e-11  8.4549222321702820e-12  1.6642055960463337e-11  8.8893271901036659e-11  2.0420027062747396e-12  9.8593682396706589e-12  1.8591051749873381e-10  3.5342103772808803e-09  2.2496244929702110e-10  3.7986603126159105e-11  2.3231458550171260e-10  9.0110692914741078e-11  1.1040943904822012e-10  4.1240881594450920e-11  1.6347230863473350e-11  8.4601780870681528e-11  7.3517850501013875e-10  7.6638571746333080e-11  1.7896478710127896e-10  3.2644941830569908e-10  4.5722180995221806e-10  9.6315259237486572e-11  1.0355870754699582e-10  5.8514578051330092e-11  7.8930991560967023e-11  1.0583262138730215e-10  5.3032332560806249e-11  6.6384938450534009e-10  5.7784023571837637e-11  2.7700682888773867e-10  8.9543953414137612e-11  1.2694054215957383e-10  2.9897286450393208e-10  4.1488396193993650e-11  6.2450735939577235e-11  2.7796639428102877e-10  1.1038060721405224e-11  1.1034696619876955e-10  9.1588046555712511e-11  7.6643459639586796e-11  5.7030707567055889e-10  1.6378517649213566e-09  3.0796186348931046e-10  2.9038328859596209e-10  9.2459323638314302e-11  6.7733218205970859e-11  2.5680166766964204e-10  1.1198355410797463e-10  9.2922713546588615e-11  1.0569604775053412e-10  1.9124736107654267e-10  7.2786030765918489e-11  4.7833933033714253e-11  6.5506751434818107e-11  3.7058136199388690e-11  8.0737077625770389e-11  1.9403783446372367e-10  1.6117526457520688e-10  1.1201691551605674e-10  3.0476405858899178e-10  4.4474934372236944e-11  1.4070714260239414e-10  5.2934953468493893e-10  6.5327602542033407e-11  1.2429338950888348e-10  1.6628485838121675e-09  5.5918479428287651e-11  3.5009183434535772e-10  5.3030559472895817e-10  1.6155878556232831e-10  1.2749756040842964e-10  1.2692300785379698e-10  8.4670825335171964e-11  2.4416747659602309e-10  2.9260044399718761e-10  1.7299753682110396e-10  4.7851439050146423e-10  4.2710708920230889e-10  1.1989441128353684e-10  2.0504975227249153e-10  6.3978216682592413e-11  8.2321107215558413e-11  6.1170007012608706e-11  2.4268025256987388e-10  4.0898214952213660e-10  3.0975451455129085e-10  3.3758275749206120e-10  8.6416648014770228e-11  2.2722452514446251e-10  4.8308471619892423e-10  1.6039818916012564e-10  4.7878788707862117e-10  1.8870374959699462e-10  1.3533420841562991e-10  1.1280295906849728e-10  4.9631265997059071e-11  5.2438205875722201e-11  3.6245548930881085e-10  6.2746915336923407e-11  6.0910902484388142e-11  1.2455120365639910e-10  3.2795298766416496e-10  3.1889536141395934e-10  1.5940813340191119e-10  1.1686968462757798e-10  6.0525017339803923e-10  6.2854885344574927e-10  1.6303934785307514e-09  2.6922659560935603e-10  1.9517612279769117e-10  4.4067595662261077e-10  4.6750448871674491e-10  1.1936540367017237e-09  2.9759603573580637e-10  2.3767600662162089e-10  3.3071799999829246e-11  1.2656852102827190e-10  3.8294588585943996e-10  5.5119127009491816e-10  2.1293445471613111e-10  7.2204525851696823e-10  3.0013262515800379e-10  2.0711422622102013e-11  5.0318129402586557e-10  3.2874082597868572e-10  3.9245043163193812e-11  3.4145891036016445e-10  4.1220947302590814e-10  5.6167869839269105e-10  1.4742500055448365e-10  6.7858391167974398e-10  1.9867378098568890e-10  4.8447759011746653e-11  1.3068681836868138e-10  1.3510154752848321e-10  2.9452803053673344e-10  7.6700934923053095e-11  2.5117229442087861e-10  2.0073355398445930e-10  7.7093943998559876e-12  1.0432704892497843e-10  5.5651691711152289e-11  9.1896506852330780e-11  1.2165367420767075e-10  6.5203124395495556e-10  4.1140483907870800e-10  3.0906792819437539e-10  1.2142798433489166e-10  1.2839639802978806e-10  9.0692746251175455e-10  5.4251545536100015e-10  1.3376309186627639e-10  1.4542079442143537e-10  1.0012137644397286e-10  5.0850540448464460e-10  1.3630067075644573e-10  1.7199191755473341e-10  9.3209343857113108e-11  7.0881694499496038e-11  6.1786752658289460e-11  1.4899713536474786e-10  1.0033026937478602e-10  1.2263956513597221e-10  3.8798508309813604e-10  7.9495355711741571e-11  6.0027919350544278e-10  1.1662481046943873e-10  2.2798605036011144e-10  2.6454092910183990e-10  5.5623062360961056e-10  1.1777363149003509e-10  3.8346529129554283e-11  6.1113446029284942e-11  1.4543658339317656e-10  1.6319452474511937e-10  5.0811850633219263e-10  8.1584277443116465e-11  1.6875469151403667e-10  2.5694093893116513e-10  1.4809890256335320e-10  2.3941710636793046e-10  3.7067635882432274e-10  3.1841259239682655e-10  1.0211207050504769e-10  1.7516915339772074e-10  1.5090417227162357e-10  2.3104860312149132e-10  2.6652317776141566e-10  3.7288656431804991e-10  2.0093732621142235e-10  1.8798580431315706e-10  1.2804533957023626e-10  1.6788589200335575e-10  3.0161726115753115e-10  3.8434195538892302e-10  3.6807010894251936e-10  1.7066485235030346e-10  2.2249128721743032e-10  2.0300239508894103e-10  1.4763687760503735e-10  3.9549353025139493e-10  3.1626716354920236e-11  1.0619649130415015e-10  1.2847682926550619e-10  8.6963529291368411e-08  4.1112743136648829e-10  1.7135986896864780e-10  6.1859461278395014e-11  2.5742919186281117e-10  1.3404209754466170e-10  6.4354233411123728e-11  1.0395179843490037e-10  2.0133535177427402e-10  2.0885993392069149e-10  2.0485617068268997e-10  1.8562711098745188e-10  3.1721279935134559e-10  6.6492441233352460e-11  8.1238317965900520e-11  1.8921346745987735e-10  1.2613002718886317e-10  3.2367599124328811e-11  4.0827104931662076e-10  6.3746165741511496e-11  5.9192931527726584e-11  1.9989141030307597e-10  1.0142813990177273e-10  2.3686882370811068e-10  2.8347581193338505e-10  5.6313881612270213e-10  1.0008327727886490e-10  1.8866806303637041e-10  9.7398091446807848e-11  2.9826580618912624e-11  8.2623543231927658e-11  5.8949223501005498e-11  7.9714547113653488e-11  2.2139315779862562e-10  4.5233766557695668e-11  6.1807263785146468e-11  9.4400698938175049e-11  9.1055518104917125e-11  9.4535484332603787e-11  2.8539518873381147e-10  8.9152704322496932e-11  1.8873653210268142e-10  2.2609827334967616e-10  1.1249206589620178e-10  1.5964817741094732e-10  3.1866433313119964e-10  1.2438628753084396e-10  6.1880583051600353e-10  1.6806085314799578e-10  1.5197820884193180e-10  1.3869083800105473e-10  2.1399979171777835e-10  4.2204946492154459e-11  3.7486149040328038e-11  7.4530759143217940e-11  4.1032342625521441e-10  2.0045309804199457e-10  7.2101006581884155e-10  4.4894452857084813e-10  1.2175093980835013e-10  5.5772662030731718e-10  3.5928818241858405e-10  1.8830433577258068e-10  7.2862946054359132e-11  9.2441678171591114e-11  1.7851266591513746e-10  1.8906300377603766e-10  3.9641109363234218e-11  5.2436077447779031e-10  2.9679806113739629e-10  3.7103928930063863e-10  4.8442151759030821e-11  3.4804217467099691e-10  2.8124159816229600e-10  5.7942130742827024e-10  7.0034681244021819e-11  6.1796139121679299e-11  2.4215563261850004e-10  7.0523949563322564e-11  4.1638291239100692e-11  1.4242317889523705e-10  2.3821721609023397e-11  6