<?xml version="1.0"?>
<VTKFile type="UnstructuredGrid"  version="0.1"  >
<UnstructuredGrid>
<Piece  NumberOfPoints="4852" NumberOfCells="9430">
<Points>
<DataArray  type="Float64"  NumberOfComponents="3"  format="ascii">-1 0 0  -1 -1 0  0 -1 0  0 0 0  1 0 0  1 1 0  -1 1 0  0 1 0  -0.5 1 0  -1 0.5 0  -1 -0.5 0  -0.4999999999999999 -0.9999999999999999 0  0 -0.1608775713298009 0  1 0.5 0  0.5 1 0  0.1967448868031411 0 0  -0.3406433091435208 -0.1755465981739638 0  -0.3366208589235912 0.2240461070410967 0  0.1738247291618277 0.3458977583333357 0  -0.1849611180845143 0.5547653433148299 0  -0.503969847630987 -0.5372964961636409 0  0.4904231711397725 0.2567511306231856 0  -0.06438694419269314 0.2009460291162854 0  0 -0.5061325913258391 0  -0.25 -1 0  -0.5611777682861091 0.5773164067988109 0  0.6615215073298291 0.6337908069856857 0  -0.1755846299761901 -0.5374965053684022 0  -0.5387226187040933 0.02536547147194459 0  -0.9999999999999999 0.25 0  -0.2060563611660239 0.02377076839178055 0  -0.6543037467493614 0.3092804716684597 0  -1 -0.25 0  0.03915915806973113 0.591477548759234 0  0.1950351005647677 0.1287365963784037 0  -0.1365146551545279 -0.2196889333258652 0  0.3709945103540141 0.6142015511279334 0  1 0.25 0  0.5355652144809806 0 0  -0.75 -0.9999999999999999 0  -1 -0.7500000000000001 0  -0.6450436864184392 -0.32291169907317 0  0.25 1 0  -1 0.75 0  0.02757118475249542 0 0  -0.25 1 0  -0.75 1 0  1 0.75 0  0.75 1 0  0 -0.02898318711980711 0  0.05414989825207641 0.1422307536013923 0  -0.07769884230919913 -0.02775596745853706 0  -0.7009885206678306 -0.1323767237842637 0  -0.3217998480652673 -0.3469392205523604 0  -0.3400638431453056 0.4371111553548727 0  -0.09993318497047241 0.7641039779992662 0  -0.383184279101595 0.7023966033108988 0  -0.05482970001543402 0.398704439052217 0  -0.07894143369289518 0.07197181827529582 0  0.3587867025502831 0.3691689576771254 0  -0.7161720544026786 -0.7300583761527926 0  0.4117885076816339 0.08978006365746891 0  0.6899606966723912 0.1913909908578372 0  -0.7473822967181971 -0.527091332791376 0  -0.3878197457173749 -0.7104263748506242 0  0.7215983848372686 0.4183163276170104 0  -0.775842900104455 0.09692132533180126 0  0.1967135770365134 0.6984277334171803 0  -0.198591261650351 0.2882623077145178 0  -0.7988276800995111 0.5774306277240284 0  -0.716681036476558 0.7663182928424898 0  -0.05154343751613502 -0.3734798846301527 0  0.5848264508500782 0.8163968662332745 0  0.8204638617511274 0.806163535074784 0  -0.1044002680545917 -0.696598670322751 0  -0.5143171570908622 0.1625266096511966 0  -0.2017313150384945 0.1255138128831955 0  -0.3589791595482311 0.07521460100403048 0  -0.3649650160799882 -0.0523394976599899 0  -0.4964593298338433 0.3948681649885336 0  0.375 0.9999999999999999 0  1 0.125 0  -0.01191845605296884 0.07127525177880532 0  0.06207881262058252 0.3916099038938585 0  -0.171367247616262 -0.1222533822810622 0  -0.2428351205474934 0.7735137197611149 0  -0.625 1 0  0.533316006909653 0.4538700115031783 0  -0.5762636859122864 -0.8300364922255318 0  -0.2574995367703502 -0.7833828713526635 0  -0.3199264236650612 -0.5081116514443245 0  0.833946206093351 0.5953437890752376 0  -0.5487744757431905 0.7906239823370276 0  0.125 1 0  -0.06744967133056123 -0.09337491828871163 0  -0.4943859162173294 -0.1431489932951741 0  -0.8749999999999999 -1 0  0.02952104960098852 0.04164559319924584 0  0.9999999999999999 0.375 0  -0.875 1 0  0.05733663823709534 0.7938125048172646 0  -0.1961814851914041 -0.373404769542535 0  -0.07277853781578034 0.5708693822490583 0  0.2363451378742218 0.5176401986089761 0  -0.7921394963092976 0.2294553398437086 0  -0.4952146408611682 -0.3888134201355943 0  6.104776375852387e-05 0.2710149540399892 0  0.5098791320526569 0.640009244284792 0  0.3989153274455393 0.8072078478512942 0  -0.8060354957259787 0.4244480801748544 0  -0.06444141210142934 -0.2204531451790806 0  -0.709459351798668 -0.01420125160392086 0  0.09048837192999751 0.05247900791794748 0  -0.4781054134539874 -0.2510445249409573 0  0.72386624660912 0.08277641668704468 0  -0.8085208549542027 -0.4110605932638005 0  0.3374454917383552 0.1533806377297693 0  -0.7944139750846064 -0.2507420316743684 0  0.2362065914077407 0.2541262906197551 0  -1 -0.8749999999999999 0  -1 0.875 0  0.1842823068497169 0.04786382718858389 0  -0.2475900435907289 -0.2288179710454041 0  -1 0.375 0  -0.1709948918166184 -0.04171674027442326 0  -0.6486762840270439 0.4674233523499119 0  0 -0.07736776745332727 0  0.08033688191686207 0.2597711542069259 0  -0.375 1 0  -0.2167571564326345 0.4245623487228165 0  -0.1200432023576874 0.1500926856964066 0  0.1331614630496014 0.5539916368316583 0  0.1318599007224832 0.1936909297001791 0  -0.474575164495991 0.2693555492742449 0  -0.04621205145165504 0.01397206385389198 0  0.8514055543478524 0.3700841961339649 0  -1 -0.125 0  0.2856586477156646 0.8367298340095199 0  -0.1107243556993101 0.3128916764271243 0  -0.125 -1 0  0 -0.7575037395175259 0  0.07821397079968176 0 0  -1 -0.375 0  -0.3750000000000001 -0.9999999999999999 0  -0.625 -1 0  0.7474787146812756 0 0  0.625 1 0  0 -0.2918843213980812 0  -0.9999999999999999 0.625 0  -1 0.125 0  -1 -0.625 0  0.3284075310660084 0 0  0.004929205892015135 0 0  -0.125 1 0  0 -0.006571003003944568 0  1 0.625 0  1 0.8750000000000001 0  0.875 1 0  -0.5628666682684477 -0.676355503157436 0  -0.004753039422561591 0.1602335335214182 0  0.3622648483319467 0.2628502820657465 0  0.6529697900325281 0.2936426878530951 0  -0.8547637309293535 -0.6467931012463773 0  -0.8633305640630655 0.7870176770213764 0  0.4303647081651836 0.5011131972113642 0  -0.3986327148084896 0.8556794413207519 0  -0.7789083207327948 -0.8748936508890446 0  -0.8706237820617644 -0.7845182165067696 0  0.154188346346518 0.8421301467739453 0  -0.6583752890229492 0.1526233460559929 0  -0.5775048334262036 -0.06412779973042847 0  -0.8544813884222443 -0.06261056904960241 0  -0.2958697344985854 0.5620562017072821 0  -0.4236510133654405 0.5698181873567408 0  -0.3758806024466118 0.3308641122929389 0  -0.6183234650035278 -0.2162677099197512 0  -0.2727733999743566 -0.08994130007003837 0  -0.6401767000787201 -0.58855725123017 0  0.8597111772501083 0.2659144528582852 0  -0.03282528198436346 -0.03290964619145497 0  -0.05480199019278553 0.1146114358950781 0  -0.1336607795809508 0.4318984312350639 0  -0.1197843023568999 0.03242116828294143 0  0.5377596727406958 0.06454061588713456 0  0.5792018270651648 0.3590111646721375 0  0.6915372421824233 0.7748591627988943 0  -0.7934194778485436 0.8810517641268463 0  -0.6432942841164021 -0.4291293165179331 0  -0.1162911549863443 -0.3971856830021393 0  0.8721671393262471 0.4886934364823062 0  0.0759087927038536 0.09389253860089937 0  -0.6647054201281196 0.8679735490676262 0  0.4545415406405537 0.350353900249193 0  -0.02634639570650173 0.03589106322456322 0  -0.4092965538355677 -0.4399884955415217 0  -0.3619333196334945 -0.2685120167310497 0  0.3234112537734124 0.4815802665419688 0  -0.1960149698446278 0.2014292131946029 0  0.7056634286691782 0.5308093993341182 0  0.2616610836717605 0.3559282492337174 0  -0.3769002090783261 -0.8516901907781436 0  0.1092151737951972 0.6819722646201365 0  -0.2849458510716408 -0.6117429821564015 0  -0.4414981189202995 -0.6199480113107216 0  0.2961588134788282 0.6922424323326772 0  -0.8749136587006621 -0.1747995807842247 0  -0.1800520523041998 0.8548316286257924 0  0.4546820477684036 0.1632357887724732 0  0.2802499455084248 0.04666593827307604 0  -0.1423129825030072 0.6574728077773733 0  -0.01134128561697771 0.7086433486310977 0  -0.05334453277489593 0.8749252558211459 0  0.00537185843122564 0.469797330968148 0  -0.3875487067961039 0.1534006661210901 0  0.5491481270623427 0.133098179852461 0  -0.4759658212903877 0.6823675414202345 0  -0.851417735506891 0.3329478549241656 0  -0.09044245567138015 -0.5360942672415731 0  -0.02793215101024507 -0.5521415644534217 0  -0.2138974793809384 -0.2873878428444675 0  0.8685172770906896 0.1514713755628621 0  -0.1687008045550968 -0.660642840782299 0  -0.8892877231307403 -0.528637074475521 0  -0.2816495789650691 0.3382008714984338 0  -0.6762657989462693 0.5742001778621256 0  -0.8974417796224432 0.5315204567028795 0  -0.898304150230967 0.6609564774692234 0  -0.6443213868824813 0.07230807699460508 0  -0.8590595887184996 0.02851473817960663 0  -0.8881093093454951 0.1679654423369954 0  -0.1301550610508856 0.2289500849184133 0  0.1602664510274399 0.4461011475107781 0  -0.04356961219406637 -0.1257756964085748 0  -0.7534451194468241 0.6702174049186204 0  -0.6025187821742586 0.6980642855888116 0  -0.254366006951835 0.07850932004955391 0  -0.2493182312718744 0.6487920008900538 0  -0.02744201934061052 -0.006322107253793589 0  -0.4945605331061996 0.8769009767805974 0  -0.4768318275462598 0.4905041003980905 0  -0.2904040603813109 0.1440024106318131 0  0.002236327230688812 0.02366600095520724 0  0.7795682690239772 0.6838922898266995 0  -0.4702041427286462 -0.8246583390178567 0  0.2718414883782382 0.1949232831892919 0  -0.148314759750853 -0.8629257105383893 0  -0.06538379455236962 -0.8293235992941494 0  0.4434292239703456 0.7059542854081799 0  -0.1176249698156379 -0.2881523106632481 0  -0.2648662012814717 -0.02614592650464299 0  -0.8939521383025877 -0.8966321267001672 0  -0.5728558459262713 0.2371750835182243 0  -0.4760879570728309 0.08751866903493882 0  0.4913361062633821 0.8257828801204583 0  -0.02845052844275308 -0.2601767407758212 0  -0.3101016081663754 0.8752658857210084 0  -0.1430489670847707 0.08055710128598519 0  -0.469237218835674 -0.03491878199525847 0  -0.3878945941239967 0.01208563760495916 0  -0.2916781109512125 0.02755287178587158 0  -0.3848911798644944 -0.120351041828387 0  0.8881480260237731 0.698352015111956 0  0.7929247672869553 0.9108742141244965 0  0.5766197827172742 0.2077569556903585 0  -0.5602513065755372 -0.469259673229352 0  0.5989695857216764 0.7060574216091203 0  0.6784533415049486 0.8883577220380816 0  -0.05108903306330691 0.3031478055274441 0  -0.9021900967022153 0.904681879746927 0  -0.1275147613141647 -0.06706724817899853 0 
[...]
<PointData  Scalars="w"> 
<DataArray  type="Float64"  Name="w"  format="ascii">1.7520814730539338e-10  1.0316776887655141e-11  4.4633200072558419e-10  2.6870159190964873e-09  6.2414442499042915e-10  1.5645221408395583e-12  8.6697652312073089e-12  7.5183376213301526e-11  4.0709078208347046e-11  2.1210708919920014e-11  1.0696138613246729e-10  9.5977845752108199e-11  4.0438970838805141e-10  2.7741686830294904e-10  9.1447713294838318e-12  5.2570647022691253e-10  9.0665597816737128e-11  7.2231113273420307e-11  1.3060295720096044e-10  3.5609019824191490e-10  6.7419289552517456e-11  1.0468891693094283e-10  5.7271806322377008e-10  3.6292573239415491e-09  5.8379113831829365e-10  1.0848803045639958e-10  8.9216478829449930e-11  1.7422874227350684e-10  7.6542494086058559e-11  1.8951317332896312e-11  4.6742168058370379e-10  9.8064521439416760e-11  2.4221805862415339e-10  1.8071688075681058e-10  4.5312812869467829e-10  2.2589323975405712e-10  7.8117980544999561e-11  4.7797228386560751e-10  5.8654887782490571e-10  3.1259014603667522e-11  5.2095538730431057e-11  1.0776039033184875e-10  9.2535236026757975e-11  1.9769830240652789e-11  1.0518172356278596e-09  8.8611281640718917e-11  3.2238611551485576e-11  9.5663942914466078e-11  1.2587452019337634e-12  5.9004683568363108e-10  2.2087697917544414e-10  2.1383563052472076e-10  8.2285855712122206e-11  2.5238871670841201e-10  2.6193993964804858e-10  2.0358095646043292e-10  3.5593556889515107e-10  8.9221628923789517e-11  5.7840962301292849e-10  2.5204937780316396e-10  3.1023240693775685e-11  3.1440197324204617e-10  3.7887834274184905e-10  1.4427462731125025e-10  5.4324840571808052e-11  1.7866010761062361e-10  7.0883001310738254e-11  1.7742633994131172e-10  2.3273769426785265e-10  4.5963906606600328e-11  6.4015641960720030e-11  4.2922168268712908e-10  5.6865723760381247e-11  8.7668579383618056e-11  1.7547326411231651e-10  1.7048299005752397e-10  2.5652456123913590e-10  2.9054351789678098e-10  1.8240213961321787e-10  1.9474804677542852e-10  6.5290187352141889e-11  2.5214139024882400e-10  2.6281856761516025e-10  2.0084636325244783e-10  2.3401648817470496e-10  1.2458788710165042e-10  4.6720342630223304e-11  1.1066602093893373e-10  9.4248521759651426e-11  2.5743437689144081e-10  6.9774450701628895e-11  9.9907750876656716e-11  7.8130571629122186e-11  9.4668253363317022e-11  3.9018138188232924e-10  2.0904967076362806e-10  2.5330973353275667e-11  6.5437330593807557e-10  2.5761298955009417e-10  3.1569744679708942e-11  2.7677818683338160e-10  4.1434128468950548e-10  7.1302844933302834e-11  9.7475232639272432e-11  1.5757639092134257e-10  6.3939219649539733e-11  2.7328472624792398e-10  8.3894735510758237e-11  1.4659573680965809e-10  6.5950217401325058e-11  3.1229110069278207e-10  2.4621274854283038e-10  2.3198090409586379e-10  6.4138441923144060e-10  1.2088223849687100e-09  1.5022403972242722e-10  1.6476273616827822e-10  1.0302412577899155e-10  4.5783711498993302e-10  2.5680905284601045e-11  2.5679674554758437e-11  2.7802043663332221e-10  9.1286272577453618e-11  6.1278499343790997e-11  5.0128410687286578e-10  5.7615693800489684e-11  5.9877571209331743e-10  1.1862205291591344e-10  7.7273511095583149e-11  8.2864111182021869e-11  3.4133653699562953e-10  1.7366090478987516e-10  4.6352637213016173e-10  1.3560968034088124e-10  6.2190199823653449e-10  4.4582225002084372e-10  1.0916345333123503e-10  5.2229856471182270e-11  1.3000815129932125e-10  2.6022174938773507e-10  3.9355473705153515e-10  6.0501764370172214e-10  9.2427535251039044e-11  1.1931985322728555e-10  6.8365323413616311e-11  6.5580910820451556e-10  8.5944269405646560e-11  3.2939713302779491e-10  1.4773962489177307e-10  1.2462446436229546e-10  1.9924678258416467e-11  2.8308302218375251e-10  1.5893091290020686e-09  5.7347864923729627e-11  9.6613969132731552e-10  7.8928169547296480e-11  2.4098216178849273e-11  2.3984938192265016e-11  1.2218757100341198e-10  5.5846490796136593e-10  4.4572912398589544e-10  1.6108901816382146e-10  1.1427951381131015e-10  1.6705140951181882e-10  1.8857032318139077e-10  5.8888321956804761e-11  7.7305863653613523e-11  2.0366710065579619e-11  6.0232700787277655e-11  2.9431630411601923e-10  9.2350281253029932e-11  1.0601739789765059e-10  8.3461422873294480e-11  9.6624629927569308e-11  5.3485427296871572e-11  9.5792406919681163e-11  4.5509890022895808e-10  5.6794421911491595e-11  1.6414440003169065e-10  1.7182642423400189e-10  4.6310586715240600e-10  1.9810208266967368e-10  2.8220137612778962e-10  1.4283363338129114e-10  1.4528463149560664e-10  1.5049917750028931e-10  2.1054970698729171e-11  2.8536615054828450e-10  6.5495411152154229e-10  2.5653453006964227e-11  2.5126638640384454e-10  8.8979689023115208e-11  1.5824024954681774e-10  1.1129019130413367e-09  1.3749481600829344e-10  1.6318517213450630e-10  2.3386744572810137e-10  2.8718293412882928e-10  1.0608231730507981e-10  2.0447009732798088e-10  4.1975821001863513e-10  2.1826565751273155e-10  2.4099343060794651e-10  1.1046471017422902e-10  1.1266744687876080e-10  1.1306449052798890e-10  7.1269846325244720e-11  2.0819539149385027e-10  8.8308301176555775e-10  7.8276073912147133e-11  1.0884542285545995e-10  7.7898970305005684e-11  9.6925624444900413e-11  1.6254021297042773e-10  3.7749582114716900e-10  7.9017155917462744e-11  8.5011665963791582e-11  7.6872651558170502e-10  7.5868608021335635e-10  2.9254560302613944e-10  1.9977679682179116e-10  8.0142551292680941e-11  8.0758930536600287e-11  3.3588376994771663e-10  5.8772440009215471e-11  8.3151873456447807e-11  5.0185975440068661e-11  9.3362219117356349e-11  4.1458796290653506e-10  9.0839743811212570e-11  1.9731953326645388e-10  1.6587224346903767e-10  9.0195143617726232e-10  6.1712030144090890e-11  1.9904590251037406e-10  1.1526436298901336e-10  1.1241418387937976e-10  7.5124192291688643e-10  7.5034714919993423e-11  8.5236181621059890e-11  1.1790240565904213e-10  1.1204821872542975e-09  4.1085938167055165e-11  7.8007242546446390e-11  2.7860355595930055e-10  2.5717050900481011e-10  3.4866134363536975e-10  1.8285476731169790e-10  2.0404245842360422e-10  4.0342826382722245e-10  2.9280491041214901e-11  1.0549962495880732e-10  1.2826867960767643e-10  3.7734783158055271e-11  2.6967636864013948e-10  4.4235887342030179e-11  3.3192217336050559e-10  1.3605081320554715e-10  1.1032697674147518e-10  1.9130769670849989e-10  5.0166536898197573e-10  7.3209982432273771e-11  2.6825426202970909e-11  1.4507939958769378e-10  8.2102678209836503e-11  5.9636443291633907e-11  7.6234348600713276e-11  1.7909201434326611e-10  4.9464263851700664e-11  2.6295037864438978e-10  2.5404800040481475e-10  1.2851476632818924e-10  1.2857674967652464e-10  1.3478896832950431e-11  7.1433267221584817e-11  1.4637579939846689e-10  1.6872556009186354e-10  4.9761371948340071e-10  3.7088963855451352e-11  8.2784621345312126e-11  3.3522775154042010e-11  2.3821599854206977e-10  1.2615066040492240e-10  1.8489358643976456e-10  7.5240867314626915e-11  8.7849812284275203e-11  1.2110787376644642e-10  2.0311781510045308e-10  2.2379148730739458e-10  2.6149268199073643e-10  4.3694381390251199e-10  2.1394695249133209e-10  2.0969095298299064e-10  1.4633897104897112e-10  8.0760744490964642e-11  1.7196731123683681e-10  1.6884642225113540e-10  6.2694954901546642e-10  1.2913539009146598e-10  6.2903261367782181e-11  4.0678012653260086e-10  1.9004995172790957e-10  2.0802133565690111e-10  1.1725284466769496e-10  3.2525711651937949e-11  4.4943246234636607e-11  9.8922673006860136e-11  6.7992462270363608e-10  2.9348581313524162e-10  1.8126221645529224e-10  1.3665365075256475e-10  3.3901819683568713e-10  6.7645154045478391e-11  1.1034080268220461e-10  3.5299156437955222e-10  1.4034178449156542e-09  9.9242749482128981e-11  2.8207108096284215e-10  6.1467220860109348e-10  1.2291610680107292e-09  1.9853121965416829e-10  1.5268336722812862e-09  4.1765477470953834e-10  2.2588958566655198e-10  1.1823937064351266e-10  4.1975390757956867e-11  6.6235746399206445e-11  1.2604717491431996e-10  1.5693653095504028e-10  6.4093341063164356e-11  9.8866546150440966e-11  1.0710313593058093e-10  1.2809983859051160e-10  1.9270364429899684e-10  4.9703441965609277e-10  3.1871243899757351e-10  1.6614661401073966e-10  9.6662894770709815e-11  6.2019506917382935e-11  5.9635403396118548e-11  7.0453625666524759e-11  1.8246785151372600e-10  2.2539776618046171e-10  1.0620817478330763e-10  1.0582432911964788e-10  2.3949051455678705e-10  1.3729820597893449e-10  6.9861299299862535e-11  5.9841426275819969e-11  1.0550262709831240e-10  3.4309680469696667e-11  1.8637454502691618e-10  3.2932595003281828e-11  1.6070576441521359e-10  1.7933272547759866e-10  1.5206284233073412e-10  3.9694264617932554e-10  7.9774722757956205e-11  8.3677325549405261e-11  1.4435703502375227e-10  3.0667821433617477e-10  1.4533419445091436e-10  2.6346676562551453e-10  1.1125695555868087e-10  1.3558425385095389e-10  1.5693184906698304e-10  2.9102937335428135e-10  1.2761703620677731e-10  3.3720854676798275e-11  1.1718967804821309e-10  1.1225754218841946e-10  1.4856146857023525e-10  2.5270391124421505e-10  1.7083708402394858e-10  3.5217040842906963e-11  1.2999711210629499e-10  2.3614066795727764e-10  2.9227885472289730e-11  3.2932322934451977e-10  1.6350683358713054e-10  3.8977680924484327e-10  1.1351279872411992e-10  2.3579581654507606e-10  3.2526726951467534e-10  7.5893503500990774e-11  1.0630316316519220e-10  2.1911246848675579e-10  7.3275286164029538e-11  4.8377010700871447e-10  1.5977460185709552e-10  9.8479114722141468e-11  1.0871481865797874e-10  2.1067879194668295e-10  5.3926973893923084e-10  4.7732148563210863e-10  1.7920760029678308e-10  1.7163860547003104e-10  2.0764278412188793e-10  4.0227795126855214e-10  4.5774008034757006e-11  2.2518189660619978e-10  8.2292529796108504e-11  1.2408209832605877e-09  1.1836623379479020e-10  4.6094955479071517e-11  5.4865174555526647e-10  3.3257502407209812e-10  2.4678525532152266e-10  2.1005873646863637e-10  6.4395153591506030e-11  1.5401321533769467e-10  3.3503097150876837e-11  4.3708551188991579e-10  8.2352705900824680e-11  1.3864141568165715e-10  1.2772000911919559e-10  6.6079664320253139e-11  3.4902299221460764e-10  4.3558679568663383e-11  1.1817127503490773e-10  2.4383116339249317e-10  1.7852055135942061e-10  7.1049610590239790e-10  9.3072428934781301e-11  5.7372122087358360e-10  1.4786467887800488e-10  3.5380047169681651e-10  5.5282867901771832e-10  2.4335676912490300e-10  1.5541893620228823e-10  2.7221284012353913e-10  4.8044488381058303e-10  3.4967555865572847e-10  7.5843148820072018e-11  4.9141759639297540e-11  1.6338294192179016e-10  3.5679400376930840e-10  1.8603400400703190e-10  1.2645285277406838e-10  1.7189559149542462e-10  8.0961302939428336e-11  7.1219023717007779e-11  1.9936756242666070e-10  5.8117964221117375e-11  2.0760449791850522e-10  9.0896884434520899e-11  4.7819195916280494e-10  4.9343526319033283e-10  8.2181551767363736e-11  4.2019340939395528e-11  3.9870606289460056e-10  6.4796153649565599e-10  2.5848234525297476e-10  9.8620655129016992e-10  2.8743710777582982e-10  3.1624396642320526e-10  2.7313765979513416e-10  2.6582287655858540e-10  9.7802144998976808e-11  3.1295175809515561e-11  1.9407651910794865e-10  1.0661842568671005e-10  2.1575612494221595e-10  7.5295319771025912e-11  1.2222519894216992e-10  2.0613323196277265e-09  1.7692581288023222e-10  8.1268627625241497e-11  8.2335110740030070e-11  3.9929556069155818e-10  2.4257539960988718e-10  1.8948043355067400e-10  2.0826796647726796e-10  4.4483390065617540e-11  7.5404113835126797e-10  2.4132535545803940e-10  5.3728691799076882e-10  2.5073155249594496e-10  2.4286473974234218e-10  3.1295136407793228e-10  9.4734678305354684e-11  3.2936203552785917e-11  3.5885222162465329e-11  3.6863951820616626e-10  3.6326864330733503e-11  1.1732813154938662e-10  1.0200217239411289e-09  7.5138217897297621e-11  3.5169029207255645e-10  2.6352974907712647e-10  6.2122379657960098e-11  6.0103792829035458e-11  1.8015235183363786e-10  2.4465294386416218e-10  4.8327165743706264e-11  1.1343951417120796e-10  1.6117560738114155e-10  7.6102459537891595e-11  1.6949342264435656e-10  2.1279778836903559e-09  3.6177971421153536e-10  3.1935930831840980e-10  1.0712260343380719e-10  1.0757957501418714e-10  1.8832654514031845e-10  8.0507168001265129e-11  1.3408356696041934e-10  4.9928200638163191e-10  8.7230294327375579e-11  2.4219408900501690e-10  2.1444747677889856e-10  1.3874603630712877e-10  5.0946425324138530e-11  7.7822569908783427e-11  5.5253089465360526e-11  5.0505785869012764e-10  1.0691270019753552e-10  2.2061223530287025e-11  5.7036262610360182e-10  3.0655215098628820e-11  6.2061060650733762e-10  1.1770940839968999e-11  6.8365278811160398e-10  1.7444126433186915e-10  2.5356447414919406e-10  1.0473005210256150e-10  2.8764243450542616e-11  8.4712212987631726e-11  2.8033082125019937e-11  2.0509481553352375e-10  3.7245172059541794e-10  2.7153096177114892e-10  3.3160596599956389e-10  1.3606569510397017e-10  9.4756228496733976e-11  6.3759014144946866e-11  3.6249370123715035e-10  5.0359083793541482e-10  1.0525124856030177e-10  1.0067097765670855e-10  1.4721724636743736e-10  7.5936628506347616e-11  4.6021326194032612e-11  5.5024755886750075e-11  3.2232775159153842e-11  8.8325039480816902e-12  1.7755430121362518e-11  9.7782920853521923e-11  2.2228143398161881e-12  1.0915248478061916e-11  1.8631309827812776e-10  3.4877789195805726e-09  2.2474753623706748e-10  4.2140923627342215e-11  2.2136635322208539e-10  9.3005727629544461e-11  1.1219112809707505e-10  4.3675346228403062e-11  1.7132785428058663e-11  8.8321024752751555e-11  7.3335595297793147e-10  7.9566024367997192e-11  1.8348482148601941e-10  3.2462476215275985e-10  4.8255692662744041e-10  9.6469267506404444e-11  1.0228795724775893e-10  5.8709509661590199e-11  7.7200779416248780e-11  1.1219175701850775e-10  5.7037021449898698e-11  6.0214219024898197e-10  5.9134283468833645e-11  2.7672669372103867e-10  8.8317330512349114e-11  1.2806722116120822e-10  3.1103814658115026e-10  4.1751561860141841e-11  6.3447268348846503e-11  2.8621947079644474e-10  1.1862378728964635e-11  1.1302991928243789e-10  8.8893182514871830e-11  7.7103643385158597e-11  5.6110969695831580e-10  1.6139808773712858e-09  2.9229861827615691e-10  2.8887242364893349e-10  9.0945920093468543e-11  6.9736159532779519e-11  2.5472483140461899e-10  1.1719908486893517e-10  9.9536584485764043e-11  1.0481224249109474e-10  1.9816754066336938e-10  7.4073377390574252e-11  5.2232020110466016e-11  7.0250817244522140e-11  3.9552062251407992e-11  8.6147472748716000e-11  1.9094447139325013e-10  1.6152805716706450e-10  1.1142442616505316e-10  2.7621681015562158e-10  4.6939821284164485e-11  1.3707251883064897e-10  5.2132118503138315e-10  6.6903424727079398e-11  1.1829750081301794e-10  1.2991125715159846e-09  5.8139171076415965e-11  3.3592812993339804e-10  5.1035237942204762e-10  1.5778982652036151e-10  1.2846416185327416e-10  1.2574837515680096e-10  8.9763706901427248e-11  2.4960308151826165e-10  2.8549239668620130e-10  1.7713588912735466e-10  4.6700904312380683e-10  4.2266570945562372e-10  1.2173933743470480e-10  2.1025795449673773e-10  6.6764245739197520e-11  8.4855134122915188e-11  6.2751413639637892e-11  2.3953995766343941e-10  4.0101747640213131e-10  3.0762866249327739e-10  3.2420914788611730e-10  8.6066544865851760e-11  2.2720143391842318e-10  4.7859793584750670e-10  1.7074216968507517e-10  4.8127041917301920e-10  1.8396894038700001e-10  1.3802111480623507e-10  1.1228416676042984e-10  5.1231642715533388e-11  5.4487755257450105e-11  3.3749419633447638e-10  6.2961607344020435e-11  6.4446035194470330e-11  1.2922020388585966e-10  3.2108853805860688e-10  3.1932355958049828e-10  1.5716639301099289e-10  1.1766615342218227e-10  5.9055354107977701e-10  6.2496957470277543e-10  1.6038196226977562e-09  2.6856698844889347e-10  1.9933824704793324e-10  4.4348475582692955e-10  4.5559771276444391e-10  1.1719366876129143e-09  2.9590998199288782e-10  2.4723095117726162e-10  3.3263906021048848e-11  1.2937360411293949e-10  3.2904661179723864e-10  4.8646080984680810e-10  2.1262336540164198e-10  6.6170067642818472e-10  3.0515652286367386e-10  2.1562603307479976e-11  4.8772920905404093e-10  3.3521045934858462e-10  3.8835641588363491e-11  3.3335074019406079e-10  4.1380238718048695e-10  5.4319023088694054e-10  1.4546547802601525e-10  6.7004700472632789e-10  1.9554581451860103e-10  4.7533781002662476e-11  1.2757096075226265e-10  1.3274039368541094e-10  3.1691139193882299e-10  7.9095062559719849e-11  2.6350357270154029e-10  1.9607731221575490e-10  8.1581217116814936e-12  2.3355832903898360e-10  5.8070304905780310e-11  9.0682650102581765e-11  1.2424211134998876e-10  6.3115176503293196e-10  4.1227944332433692e-10  3.0383155749769432e-10  1.1751865653339312e-10  1.3187434529325900e-10  8.9790971312687373e-10  5.4028780816858745e-10  1.3469433533092904e-10  1.4238947098671597e-10  9.4159503409681650e-11  4.8846785208693306e-10  1.3859595903792832e-10  1.7481069632918126e-10  9.5097236049013121e-11  7.1027269077168306e-11  6.3604242591749163e-11  1.5083300163999887e-10  9.8455902620741058e-11  1.2890113790278525e-10  4.3120132916827718e-10  7.7173452734973425e-11  5.9724711200544928e-10  1.2598639149144334e-10  2.2388708789363746e-10  2.7901748562098832e-10  5.4983352841911936e-10  1.1654195847458148e-10  4.0735401943399910e-11  6.3061106105204571e-11  1.4210902052639418e-10  1.5928396213773089e-10  5.1548894598746102e-10  8.4486317334941376e-11  1.6297889010981976e-10  2.5208845957770648e-10  1.3916005446836756e-10  2.3761445759935186e-10  3.4014510926069455e-10  3.1101826694197596e-10  1.0473288427075551e-10  1.7531076974327535e-10  1.4953554119638357e-10  2.2765045691844998e-10  4.6582920866140611e-10  3.7342497907769837e-10  2.0177781408981433e-10  2.0441131849410928e-10  1.2547341731606368e-10  1.7265588060279983e-10  2.9950412687457554e-10  3.8126178772203599e-10  3.6204100372265312e-10  1.6580485543123617e-10  2.1969411693083055e-10  1.9665195925664632e-10  1.5383348276694360e-10  3.9921824953984372e-10  3.1874371988103998e-11  1.0576250079507078e-10  1.2731789799778077e-10  5.0544650030206930e-08  4.0637458620183865e-10  1.7701101092025409e-10  6.1182168320584109e-11  2.5595469401116881e-10  1.3801621085797730e-10  6.4501919218574153e-11  1.0562660037425967e-10  2.0239803896525183e-10  2.0639912255912090e-10  1.9563557817410883e-10  1.8907278576265941e-10  3.0977214757574106e-10  6.5541250229408719e-11  8.0375388217138127e-11  1.9106972633098960e-10  1.2233425826507716e-10  3.5126008290238951e-11  4.0250715919626867e-10  6.4780154916314448e-11  6.2046263193104490e-11  1.9442367740860777e-10  9.9356086010689599e-11  2.3808127717117913e-10  2.9163781158598694e-10  1.3654194334623378e-10  8.2129111673548605e-11  1.8762434574137033e-10  9.6636734963790218e-11  3.2353198674848001e-11  8.9967388040494606e-11  5.8606073545074251e-11  7.8595186683397563e-11  2.2579253361233620e-10  4.7176301635477986e-11  6.6030148769163753e-11  9.4708824015677497e-11  9.3609014218877147e-11  9.4014838909881802e-11  2.5593556387756015e-10  8.7901059522065788e-11  1.8534243903515843e-10  2.0269332822255549e-10  9.9834137160060815e-11  1.6072011011660958e-10  3.1532373263979304e-10  1.2435736934685438e-10  6.1471423978107901e-10  1.7074494180582891e-10  1.4947176380676579e-10  1.3805993844046090e-10  2.2730639920929154e-10  4.4125537832760045e-11  3.9872129633914401e-11  7.6915902480453697e-11  4.3190766383332384e-10  1.9938329343779417e-10  6.5530949753295546e-10  4.4123040324526054e-10  1.2131720925288960e-10  5.4652503945651339e-10  3.6481745390595208e-10  1.8858926429251671e-10  7.1194861130091170e-11  9.3642411775555393e-11  1.7442011471476848e-10  1.8736102781600537e-10  4.1594113024327257e-11  4.8935091039990263e-10  2.8234321378525190e-10  3.1220878923170564e-10  5.2969352968899399e-11  3.5037728058115220e-10  2.6696941904287837e-10  5.8387460053033774e-10  7.3210927498397797e-11  6.1909530700128691e-11  2.3872219343048914e-10  7.2737226568477537e-11  4.2702649906324856e-11  1.4761551825961983e-10  2.4409403085346810e-11  6