<?xml version="1.0"?>
<VTKFile type="UnstructuredGrid"  version="0.1"  >
<UnstructuredGrid>
<Piece  NumberOfPoints="4852" NumberOfCells="9430">
<Points>
<DataArray  type="Float64"  NumberOfComponents="3"  format="ascii">-1 0 0  -1 -1 0  0 -1 0  0 0 0  0.9999999999999999 0 0  0.9999999999999999 0.9999999999999999 0  -1 1 0  0 1 0  -0.5 1 0  -0.9999999999999999 0.4999999999999999 0  -1 -0.5 0  -0.5 -1 0  0 -0.1608775713298009 0  1 0.5 0  0.5 1 0  0.1967448868031411 0 0  -0.3407967067180913 -0.1756999699933394 0  -0.3371377763353181 0.2242971837137489 0  0.1734776553225977 0.3462730581597463 0  -0.1852338552871258 0.5550905042563995 0  -0.5033568270853488 -0.5374975504498344 0  0.4903341548441393 0.2568909828013541 0  -0.06491427588812533 0.2012859581775251 0  0 -0.5061325913258391 0  -0.25 -1 0  -0.5612423583093714 0.5773074825926616 0  0.6613802853978911 0.6334420233025805 0  -0.1757664301116653 -0.537717695891006 0  -0.5390897479042304 0.02531701304077476 0  -1 0.25 0  -0.2064885262272351 0.02402114668700845 0  -0.6546006662538557 0.309161022021281 0  -1 -0.25 0  0.03888387383157076 0.5917998346870224 0  0.1946718332063381 0.129080756076485 0  -0.1365038679444799 -0.2197489969538739 0  0.3708567972010583 0.6142611310162986 0  1 0.25 0  0.5355652144809806 0 0  -0.75 -1 0  -1 -0.75 0  -0.6448988446194198 -0.3231392691721969 0  0.25 1 0  -1 0.7499999999999999 0  0.02757118475249542 0 0  -0.25 1 0  -0.7500000000000001 1 0  1 0.75 0  0.75 1 0  0 -0.02898318711980711 0  0.05356822687419881 0.1425325777584925 0  -0.07792187029199703 -0.02754535030346244 0  -0.7011033011230162 -0.1325597730536818 0  -0.3215168523103958 -0.3472379489898735 0  -0.3403850849263167 0.437369040409575 0  -0.1000709109214538 0.7643056012379972 0  -0.3831783366087571 0.7025739037548721 0  -0.05527455073476894 0.3991222256628688 0  -0.07925196979870433 0.0721738988686976 0  0.3586242594919395 0.3694074664391866 0  -0.7155729315075166 -0.7298276750432283 0  0.4117031540332518 0.08992689557690578 0  0.689942624929341 0.1913776382975733 0  -0.7470895342045362 -0.5269336137010769 0  -0.3869620954866654 -0.7107226444803642 0  0.7215984966671861 0.4181357307356558 0  -0.7760573909832921 0.09679778885952556 0  0.1965328635656894 0.698605559811952 0  -0.1990933446426832 0.2886496254531745 0  -0.7988396053076673 0.5772636470320812 0  -0.716537297599533 0.7662215907570229 0  -0.05239530993767169 -0.373631036989732 0  0.5845784340944239 0.8162173239356483 0  0.8202208720559994 0.8056259971130427 0  -0.1057969920721379 -0.6971985338388701 0  -0.5147471930631371 0.1625564922150919 0  -0.2022309821472386 0.1258161725524407 0  -0.3594881980364241 0.07535936316003548 0  -0.3653452895126168 -0.05231903474513391 0  -0.4967472274804038 0.3949421293799963 0  0.375 1 0  1 0.125 0  -0.01236594034185514 0.07131954869072527 0  0.06166983857402483 0.3920262710012224 0  -0.1716174863438782 -0.1221722338288695 0  -0.2428878821069045 0.773696588233112 0  -0.625 1 0  0.5332315205032677 0.4538604062112598 0  -0.5755556684524219 -0.8300639049442039 0  -0.2569734130868597 -0.7837612530804434 0  -0.3193418884098046 -0.5084685023588934 0  0.8339510229017859 0.5949306180464456 0  -0.5486030983857095 0.7906959498326269 0  0.125 1 0  -0.06767096174039459 -0.09327270890251109 0  -0.4945750161629578 -0.1433199024874279 0  -0.875 -1 0  0.02912825297687537 0.04177776180797412 0  1 0.375 0  -0.875 1 0  0.05718983477035765 0.7939927242588379 0  -0.1959193178087079 -0.3736027639432883 0  -0.07308350342240738 0.5712178857624232 0  0.2361388447826888 0.5178935685295644 0  -0.7923528035429992 0.2292501971336932 0  -0.4949015424117598 -0.3891247906538214 0  -0.0004704470397546616 0.2714135854313596 0  0.5097244720404457 0.6398714485767135 0  0.3987399347399758 0.8071818666619994 0  -0.8061704293362327 0.4242547353560009 0  -0.06439093052974393 -0.2204524669494916 0  -0.7096642016135237 -0.01432996502502543 0  0.0901520012792961 0.05277785913600119 0  -0.4780799204767664 -0.2513248426477653 0  0.7238428733124214 0.082761828695708 0  -0.8083934764112711 -0.4110734792873468 0  0.337252945125578 0.1536386592633023 0  -0.7944015082292221 -0.2508982909166896 0  0.2358873875842909 0.2544907148623153 0  -1 -0.8749999999999999 0  -1 0.875 0  0.1840549157194238 0.04809820961117988 0  -0.2475843532104307 -0.2289805333154789 0  -1 0.3749999999999999 0  -0.1713509816590633 -0.0414950934255142 0  -0.6488180029083118 0.4673307504623734 0  0 -0.07736776745332727 0  0.07984155754790294 0.2601725079903942 0  -0.375 1 0  -0.2171422847354112 0.4249305883675225 0  -0.1205260225560544 0.150403614430636 0  0.1329048415071151 0.5542826910884435 0  0.1313750722415801 0.1940802835653197 0  -0.4749825142166029 0.2694483268115151 0  -0.04633013725904266 0.01408565463143804 0  0.8514867188166801 0.3698800996704932 0  -1 -0.125 0  0.2855166426431441 0.8367956159604366 0  -0.1112207752567298 0.3133118215741606 0  -0.125 -1 0  0 -0.7575037395175259 0  0.07821397079968176 0 0  -1 -0.3749999999999999 0  -0.375 -1 0  -0.625 -1 0  0.7474787146812755 0 0  0.625 1 0  0 -0.2918843213980812 0  -1 0.625 0  -1 0.125 0  -0.9999999999999999 -0.625 0  0.3284075310660084 0 0  0.004929205892015135 0 0  -0.125 1 0  0 -0.006571003003944568 0  1 0.625 0  1 0.8750000000000001 0  0.8749999999999999 1 0  -0.5621140284768765 -0.6763786695061837 0  -0.005330846836065357 0.1605066530753878 0  0.3620833024182151 0.2631071909456274 0  0.6529440025945401 0.2936163952298011 0  -0.8544923962539207 -0.6464512348048026 0  -0.8632635954580268 0.7868833999779309 0  0.4302639013077175 0.501179710596075 0  -0.3985519651971628 0.8558027130020596 0  -0.7784643237876606 -0.8747433511632398 0  -0.8703127132097183 -0.7842020196452548 0  0.1540488820510308 0.8422453064364177 0  -0.6586897108662124 0.152527378973991 0  -0.5777463217541119 -0.06426620685651629 0  -0.8545772317284464 -0.06270816589895371 0  -0.296076565360021 0.5623212041561229 0  -0.4237649950507704 0.5699782916520165 0  -0.3763089526022097 0.3311055039018406 0  -0.6183338057399473 -0.2165081565845837 0  -0.2731076368122513 -0.08989243604843873 0  -0.6395970724626329 -0.588497645725682 0  0.8597496342320452 0.2658319341920145 0  -0.03294044137013099 -0.03283466459030484 0  -0.05525894622326148 0.1148093137304165 0  -0.1340767327975492 0.4323038467185323 0  -0.1201000524772137 0.03267077476248025 0  0.5377054916279628 0.06458881460639956 0  0.5791279041642656 0.3590189312566086 0  0.691243945604269 0.7745145638572503 0  -0.7932133914195462 0.8810498196124497 0  -0.6429901478688714 -0.4292557626528127 0  -0.1165098609660188 -0.3972386960534706 0  0.872251264286015 0.488402849008571 0  0.07538032621029502 0.09420442582529798 0  -0.6645344064605812 0.8680208195782331 0  0.4544364359024708 0.3505124723418527 0  -0.02652766454597413 0.03589845534968658 0  -0.4088283091099412 -0.4403173621950019 0  -0.3618517297286767 -0.2687854600824952 0  0.3232434189776319 0.4817814795595801 0  -0.1965337675486105 0.2017802739471253 0  0.7056109980944312 0.5305136185007813 0  0.2614098501431341 0.3562471225776146 0  -0.3761637815715887 -0.8519777680681649 0  0.1089843778302798 0.6821980690068652 0  -0.2843082991112089 -0.6121130871706567 0  -0.440727033844953 -0.6201913822739978 0  0.2960206241740313 0.6923331149188811 0  -0.8749237265234316 -0.1748936220023646 0  -0.1800923595404521 0.8550019374518141 0  0.454575859815705 0.1633984551897029 0  0.2801402356047509 0.04681606133242754 0  -0.1425091179896479 0.6577353947940345 0  -0.01154207580944715 0.7088751520427802 0  -0.05341141396421389 0.8750779320217146 0  0.005002916073152342 0.4701902508220923 0  -0.388069639482989 0.1535668082909211 0  0.5490707363557934 0.1331746738474472 0  -0.4759204879115266 0.6824785320811217 0  -0.8515711637640971 0.3327375786491728 0  -0.09191474100594162 -0.5361867150179551 0  -0.03174751698948898 -0.5520413582118182 0  -0.213716527783237 -0.2875783329818307 0  0.8685218753353952 0.1514241420329412 0  -0.1690021652768157 -0.6610439248634882 0  -0.889132063998214 -0.5284357035968299 0  -0.2820987819124783 0.3385446213246988 0  -0.6762955324929837 0.5740997879977109 0  -0.8974900176393947 0.5313745750906378 0  -0.8983177320192806 0.6608291936438684 0  -0.6446170354073348 0.0722252643231468 0  -0.8591813082167838 0.02841548767505312 0  -0.8882159156622552 0.1678347633758728 0  -0.1306776470677813 0.2293242425333208 0  0.1599645471423442 0.4464603875480264 0  -0.04369512239610602 -0.1257320989542276 0  -0.7533843174576333 0.6700566418182194 0  -0.6024256540431567 0.698026223734722 0  -0.2548610893478901 0.07875478557037345 0  -0.2494619916679789 0.6490272315602359 0  -0.02751555183845101 -0.006281683609545057 0  -0.494395758090551 0.8770130276198014 0  -0.4770318451215435 0.490618806088349 0  -0.290931893857125 0.1442593347749778 0  0.00200735045770399 0.02361992003626706 0  0.7794541499535255 0.6833775937642914 0  -0.4694323694732688 -0.8248229721924675 0  0.2715677176705035 0.1952546711775735 0  -0.1484041342239257 -0.8633194796417082 0  -0.06582069100503493 -0.8298249843707859 0  0.4432440489017 0.7058960062577491 0  -0.1174493678330505 -0.2882320148722108 0  -0.265286475311564 -0.02600029815474319 0  -0.8936931844693783 -0.8964509889061234 0  -0.5732220219096252 0.2371377290284319 0  -0.476534827606785 0.08755728474041778 0  0.4911143537893477 0.8256944611991227 0  -0.0280647627895478 -0.2601598316536581 0  -0.3100732278640284 0.8754002321500968 0  -0.1434584088313387 0.08083561159337684 0  -0.4695878930608217 -0.0349635531671101 0  -0.3883456759901865 0.01215001077704843 0  -0.2921493144750884 0.02772244957494919 0  -0.3851508952804639 -0.1204366282582547 0  0.8881289361674661 0.6979059328816798 0  0.7925583450225679 0.9105766266340187 0  0.5765495126929884 0.207829119691597 0  -0.5597828909052803 -0.4694476136455194 0  0.5987632270128356 0.7057879664801904 0  0.6781749676452943 0.8881604736391706 0  -0.05160230657857747 0.303565708247837 0  -0.9020971665630769 0.9045980606765499 0  -0.1278155547656477 -0.06687034495649144 0  -0.1692
[...]
<PointData  Scalars="w"> 
<DataArray  type="Float64"  Name="w"  format="ascii">1.7436560705325768e-10  1.0402041559832342e-11  4.4506591456841939e-10  2.5389702098610447e-09  6.2393605137728260e-10  1.5735701898024718e-12  8.6897569013257489e-12  7.4856428678167289e-11  4.0542849515835982e-11  2.1073979222240270e-11  1.0778840819046194e-10  9.5979809737624767e-11  4.0406387193504338e-10  2.7825652877181001e-10  9.1692531916020853e-12  5.3119034571696458e-10  9.0568330618742856e-11  7.2020332497058825e-11  1.3080908082508350e-10  3.5360247216563845e-10  6.7138212399586464e-11  1.0443433091194571e-10  5.7146440282138420e-10  6.0677111697396584e-08  5.7826775213664600e-10  1.0795479787159780e-10  8.9188218426942032e-11  1.7187302777721859e-10  7.6301343585429625e-11  1.8789935686043875e-11  4.6621063975423528e-10  9.7472474842790577e-11  2.4251110200902914e-10  1.7994055859684723e-10  4.5517299744374661e-10  2.2615322900660668e-10  7.7895168131363609e-11  4.7843421214602250e-10  5.8692872611346986e-10  3.1356100582964351e-11  5.2974055766216478e-11  1.0777844921743529e-10  9.2530218882630755e-11  1.9859383634929436e-11  1.0498318197582491e-09  8.7979369459295402e-11  3.2156351945315157e-11  9.6719539876345865e-11  1.2407578300183794e-12  5.9244606804100793e-10  2.2133477507993971e-10  2.1483780995778866e-10  8.2224145852353770e-11  2.5198640225853732e-10  2.5958460808232729e-10  2.0288624186439658e-10  3.5463381815610771e-10  8.8724583659051301e-11  5.8142931745051799e-10  2.5152587902831730e-10  3.1390337086835800e-11  3.1444882160577476e-10  3.7909357208840250e-10  1.4424625678478223e-10  5.4300581509724780e-11  1.7849252496326809e-10  7.0500501116580794e-11  1.7737226344496449e-10  2.3190012914192353e-10  4.6025596852124721e-11  6.4359591910126395e-11  4.3828076278896174e-10  5.6910667904134321e-11  8.8305344462771380e-11  1.7037748076732270e-10  1.6955268360181671e-10  2.5575123180781499e-10  2.8864274746908762e-10  1.8219690529650112e-10  1.9384942464516679e-10  6.5291877965142880e-11  2.5233968266754301e-10  2.6560693348101414e-10  1.9963090403272207e-10  2.3371029735771542e-10  1.2418252560035002e-10  4.6759005725428411e-11  1.1028262774883948e-10  9.4632524045845629e-11  2.5442796169065034e-10  6.9534195472007109e-11  9.9784414456223834e-11  7.8055515173232832e-11  9.4323117757666448e-11  3.9074841085741160e-10  2.0862415034167580e-10  2.5621955194882475e-11  6.6062339568215607e-10  2.5703233907858550e-10  3.1735906312061557e-11  2.7552828811324307e-10  4.1329206741771955e-10  7.0998153363453210e-11  9.7153748629868504e-11  1.5658319848319599e-10  6.3904816868134501e-11  2.7279213754370223e-10  8.3455842152575176e-11  1.4642028060671581e-10  6.5932872619391372e-11  3.1233678389348145e-10  2.4535543181702596e-10  2.3401310803134276e-10  6.4085534344204868e-10  1.2082807776786666e-09  1.4996867561014648e-10  1.6533678834333059e-10  1.0260778280796896e-10  4.5923213504661486e-10  2.6046783920437906e-11  2.5787176639582525e-11  2.8083552517875301e-10  9.1559803507810121e-11  6.1110453314058667e-11  5.0116700565305024e-10  5.7392272039712354e-11  6.0268080570681529e-10  1.1836433272735867e-10  7.6954177107245961e-11  8.2463306453907724e-11  3.4111283780059655e-10  1.7257499088573601e-10  4.6419040089708177e-10  1.3483434078256325e-10  6.2669500293422881e-10  4.4609404340515766e-10  1.0890008612673303e-10  5.2199823841196082e-11  1.2949934714493823e-10  2.5687841604053383e-10  4.4122059070961575e-10  6.0898319420899579e-10  9.2836842106477944e-11  1.1976587057516373e-10  6.9252167205195150e-11  6.5576479417919331e-10  8.6745119936277390e-11  3.3305664905484182e-10  1.4766950606045083e-10  1.2383116919509269e-10  2.0134949883626852e-11  2.8358343825175842e-10  1.5777923415083004e-09  5.7007574440412233e-11  9.7638336586736659e-10  7.9531632214499624e-11  2.4750301802404102e-11  2.4518120505120520e-11  1.2187652293121751e-10  5.6021030541236596e-10  4.4535040405858467e-10  1.6124978470119616e-10  1.1529980211244557e-10  1.6735972502813026e-10  1.8811091730191686e-10  5.8646298367754181e-11  7.8164617551140349e-11  2.0561118237848299e-11  6.0081426243989055e-11  2.9299099916331952e-10  9.2187098075885393e-11  1.0566487942370159e-10  8.2892353260449040e-11  9.6105603852334936e-11  5.3301840613344784e-11  9.5720953104093152e-11  4.5456138006433782e-10  5.7131660124565183e-11  1.6412975135319966e-10  1.7241163428760476e-10  4.6258076837424339e-10  1.9697667270557285e-10  2.8220803757001908e-10  1.4311289572419819e-10  1.4513554611275320e-10  1.5059647449042408e-10  2.1075303250378546e-11  2.8620832201220033e-10  6.4613643899394227e-10  2.5737049044977738e-11  2.5280726832128013e-10  8.9021633599954938e-11  1.5821568648955322e-10  1.1264578219364605e-09  1.3707560545575589e-10  1.6377913062369990e-10  2.3349379425598742e-10  2.8592496952154048e-10  1.0634652496609896e-10  2.0455335031214755e-10  4.2067320755411366e-10  2.1795951886908993e-10  2.4031540539322280e-10  1.0996598217172994e-10  1.1263236721967408e-10  1.1273651118514972e-10  7.1005416062296742e-11  2.0845852426497146e-10  8.8648222487215832e-10  7.7838274841767566e-11  1.0820940406602406e-10  7.7689198699212664e-11  9.6569990335859992e-11  1.6188106038034952e-10  3.7808304898280002e-10  7.8987817000055657e-11  8.4822793203179664e-11  7.5557110835919905e-10  8.1072616588966390e-10  2.9194733338130233e-10  1.9976743178631235e-10  7.7488331338064485e-11  8.1108765371418709e-11  3.3396433186225157e-10  5.8662788122695701e-11  8.3248083063731483e-11  5.0273092888074249e-11  9.3042223699306212e-11  4.1262486571331685e-10  9.0439476365414565e-11  1.9655232143552602e-10  1.6540355133171843e-10  9.0525134289534858e-10  6.1815834319109800e-11  1.9819222568765828e-10  1.1506724949682523e-10  1.1187194234560859e-10  7.5042104514394264e-10  7.4992969049745963e-11  8.4962221912110560e-11  1.1759130697728328e-10  1.1373551632246086e-09  4.1274642901227528e-11  7.8175057011602777e-11  2.7960643676176812e-10  2.5180995627522567e-10  3.4277823932220003e-10  1.8244202329531922e-10  2.0405526182936811e-10  4.0247619847730304e-10  2.9619022445456885e-11  1.0521117459395666e-10  1.2760860109877064e-10  3.7739498818288897e-11  2.6871657043663913e-10  4.4069274384872357e-11  3.3269511957266699e-10  1.3571929205577627e-10  1.1005148468063498e-10  1.9135762602770883e-10  5.0046528314548321e-10  7.3350778027404669e-11  2.7080281368704965e-11  1.4521446494820900e-10  8.2145129403395739e-11  5.9710307653795268e-11  7.6644630309423300e-11  1.7858294868378432e-10  4.9703949429872089e-11  2.6344678079554238e-10  2.5393117269513803e-10  1.2891537948552163e-10  1.2926601630246724e-10  1.3767126596750143e-11  7.1483887385742582e-11  1.4750910940594342e-10  1.6792216191025889e-10  5.0075381032146634e-10  3.6989393417340625e-11  8.2621964839740191e-11  3.3733814050086976e-11  2.3911435102909768e-10  1.2550245846774834e-10  1.8423185043559077e-10  7.5307463945404664e-11  8.7501761644370075e-11  1.2134771726212027e-10  2.0205804844992094e-10  2.2442545410238373e-10  2.6125617688935068e-10  4.3841447589897495e-10  2.1279339624752619e-10  2.1069592156843601e-10  1.4533508121157893e-10  8.0289000105372799e-11  1.7190242316344782e-10  1.6671244781639804e-10  6.3106962332683226e-10  1.2979230517393179e-10  6.2775742318311830e-11  4.0690435861298225e-10  1.9139809398906108e-10  2.0779929655450089e-10  1.2259398088827662e-10  3.2886621669043393e-11  4.4887449735498460e-11  9.8811296475215059e-11  6.8380044326352856e-10  2.9503524344667554e-10  1.8041867665380337e-10  1.3574301347896284e-10  3.3774723178901151e-10  6.7590134270156770e-11  1.1027393281147631e-10  3.5290228397989862e-10  1.0483361145399162e-09  9.9320153362515229e-11  2.8402688930705012e-10  6.1932332693110020e-10  1.2315888389028922e-09  2.0015359548674137e-10  1.5335616353927968e-09  4.1792999472392951e-10  2.2623722405008153e-10  1.1868548679850014e-10  4.1858134694351071e-11  6.5936764289965553e-11  1.2614057734550252e-10  1.5676617782026906e-10  6.3830424215511427e-11  9.9225867802372265e-11  1.0717276650898738e-10  1.2774904410273815e-10  1.9355145015804590e-10  4.9960991701541608e-10  3.1897777720045571e-10  1.6583007432473724e-10  9.6200558168330880e-11  6.1900846931618263e-11  5.9501113664592309e-11  7.0545622031947962e-11  1.8122978224297199e-10  2.2668642175108844e-10  1.0576280613384155e-10  1.0514085320540246e-10  2.3840699480339490e-10  1.3707874340614910e-10  7.0026963354029296e-11  5.9465259935521872e-11  1.0522416887790572e-10  3.4288071792292438e-11  1.8557680720251539e-10  3.3019363642148194e-11  1.6067713458584061e-10  1.7988428556852130e-10  1.5181168000067046e-10  4.0056290643999543e-10  7.9422104124831734e-11  8.3251276976108766e-11  1.4422718923361995e-10  3.0714588712549134e-10  1.4466815388096828e-10  2.6353452701247616e-10  1.1087561001349443e-10  1.3490225291328205e-10  1.5622853318017202e-10  2.8394747367148689e-10  1.2813597350831769e-10  3.3741456467113453e-11  1.1700640927052798e-10  1.1194619907366891e-10  1.4761068686775030e-10  2.5290353938357583e-10  1.7099489788737850e-10  3.5112013985974527e-11  1.2904820362972822e-10  2.3360774046876072e-10  2.9566172104301661e-11  3.2859521269391813e-10  1.6394518006529213e-10  3.9304244898515855e-10  1.1265118492244325e-10  2.3609204839160964e-10  3.2391506711313616e-10  7.5590148593146482e-11  1.0609685806741252e-10  2.1852658087570697e-10  7.4147393154435588e-11  4.8343297766250060e-10  1.5994378025876030e-10  9.7968999362020076e-11  1.0827661213372894e-10  2.1036370661794969e-10  5.3949642813784777e-10  4.8040250513394257e-10  1.8092515812414867e-10  1.7111999292486260e-10  2.0717658737993024e-10  3.9961255027331455e-10  4.5662304682652113e-11  2.2517462234643198e-10  8.2344245795397915e-11  1.2529630533394298e-09  1.1816501297138994e-10  4.5929239068125849e-11  5.5289046915660537e-10  3.3249558758344684e-10  2.4671091351069942e-10  2.0902401698413851e-10  6.4142886265738114e-11  1.5309137060958557e-10  3.3408537003898121e-11  4.3635824351830799e-10  8.2214587867949952e-11  1.3769964940924998e-10  1.2681210363795478e-10  6.5880938906543508e-11  3.4766129505982749e-10  4.3403381122465996e-11  1.1792578275116345e-10  2.4407339764998842e-10  1.7830653767899799e-10  7.1297314635304199e-10  9.2986475483715739e-11  5.7360123113612044e-10  1.4848181460670494e-10  3.5440155775331884e-10  5.4572114684490775e-10  2.4368925872815581e-10  1.5470296053480612e-10  2.7372679382039964e-10  4.8221325858179334e-10  3.4417205965929132e-10  7.5693839069917918e-11  4.9291355987896719e-11  1.6341889487755551e-10  3.5854120613642671e-10  1.8527197576709515e-10  1.2742386446005900e-10  1.7138707851990902e-10  8.1581773479339455e-11  7.1201474070206148e-11  1.9876894379289066e-10  5.7901118113649551e-11  2.0628064082111398e-10  9.0505970108023500e-11  4.7769399192094088e-10  4.9204066729533795e-10  8.1867582394532644e-11  4.1878904345443958e-11  3.9725306725075861e-10  6.4843481816944121e-10  2.5780883021989823e-10  9.9331549741707048e-10  2.8707058321316812e-10  3.1521989553547560e-10  2.7535676039493228e-10  2.6758126233035576e-10  9.7389445781454581e-11  3.1623270781063093e-11  1.9282439080097770e-10  1.0577846490448732e-10  2.1446044908436492e-10  7.5467185390403538e-11  1.2255069188062219e-10  2.0585518785359211e-09  1.7686715868379046e-10  8.1320967238745734e-11  8.2501647433610352e-11  4.0316219809854737e-10  2.4197149224664003e-10  1.8892311600785195e-10  2.0762423031928438e-10  4.4582979929897752e-11  7.5827793195519634e-10  2.4043735127029990e-10  5.3349553802559748e-10  2.4793399382436537e-10  2.4192718030045522e-10  3.1265286673886154e-10  9.4843441892508877e-11  3.3199964189854505e-11  3.6327813508720002e-11  3.7023833481309175e-10  3.6322238340033732e-11  1.1706284005828373e-10  1.0190741407020184e-09  7.5216353966740039e-11  3.5251501183589458e-10  2.6342541650908953e-10  6.2129282867390543e-11  6.0219363636147516e-11  1.8063291154549592e-10  2.4423911773576842e-10  4.8607170461931771e-11  1.1303487402075438e-10  1.6089488471265162e-10  7.6421463318643366e-11  1.6927696073368073e-10  2.1383877231771688e-09  3.3686614016371178e-10  3.1958504971284973e-10  1.0728096595582640e-10  1.0799420512647971e-10  1.8830253101138379e-10  8.1058708313166967e-11  1.3394528473346116e-10  4.9658454293632151e-10  8.6662945091499322e-11  2.4095291338038371e-10  2.1412165861518083e-10  1.3934359951259914e-10  5.1741237681998289e-11  7.8294604081622994e-11  5.5895801455530045e-11  4.3802820881534457e-10  1.0613575813930266e-10  2.2126415950011625e-11  5.7025368443258310e-10  3.0944618812359690e-11  6.2047045505849251e-10  1.1798911014296808e-11  2.3758709978525989e-09  1.7526692728282558e-10  2.5003930031012442e-10  1.0466375851338846e-10  2.8894392019420810e-11  8.4946983512052572e-11  2.7986555692256550e-11  2.0714043317916001e-10  3.7228194485070006e-10  2.7172724199144059e-10  3.2843348267131694e-10  1.3521043129113934e-10  9.4171730527872235e-11  6.3805891686197742e-11  3.6503593105040981e-10  5.0346092039887745e-10  1.0571483225310299e-10  1.0062011950359598e-10  1.4653893899812980e-10  7.6577151115309351e-11  4.5695504168248101e-11  5.5130297015474001e-11  3.2376936677565144e-11  8.8914728600335925e-12  1.7926424375154215e-11  9.9314269063887469e-11  2.2739116923762133e-12  1.1184712014830025e-11  1.8700368521215373e-10  3.4711923758410940e-09  2.2377145477187179e-10  4.2840011963449808e-11  2.2030759018759278e-10  9.2692863208155061e-11  1.1249206945777978e-10  4.3997440316620542e-11  1.7202185909822267e-11  8.8506670410773566e-11  7.4526107432580427e-10  8.0153232062565506e-11  1.8396644315448630e-10  3.2497404988932211e-10  4.8257771921062111e-10  9.6567197272018590e-11  1.0236617520891510e-10  5.8602063783841329e-11  7.6899703601028584e-11  1.1239691159769185e-10  5.7226167558190011e-11  5.9453333162340498e-10  5.9456374183985061e-11  2.7772319859426004e-10  8.8138080970310229e-11  1.2817191685166178e-10  3.0980518647536161e-10  4.1624132709996134e-11  6.3213649834387153e-11  2.8518833506966117e-10  1.1937462791677660e-11  1.1303918352877724e-10  8.8637063581218995e-11  7.6954276954878807e-11  5.6173821940566690e-10  1.6112941764350072e-09  2.8547682866078882e-10  2.9006581877347639e-10  9.0666747251379605e-11  6.9588671056438886e-11  2.5315708264506273e-10  1.1779289086770708e-10  1.0006965862773104e-10  1.0471250017354018e-10  1.9730463258176540e-10  7.3843625682993318e-11  5.2910292157930462e-11  7.0984797589654750e-11  3.9882435033322673e-11  8.6780771541682335e-11  1.9135700045662500e-10  1.6164243658136312e-10  1.1158577733314063e-10  2.7332903098973856e-10  4.7039908091219661e-11  1.3658198213587990e-10  5.2348276495143865e-10  6.6743199929540542e-11  1.1785230144801753e-10  1.2633414378281870e-09  5.8027660673832829e-11  3.3787045259763925e-10  5.1080450430585820e-10  1.5733127041258123e-10  1.2867952924988286e-10  1.2550611989634465e-10  9.0625835182184431e-11  2.5237219779943214e-10  2.8580266695430195e-10  1.7722067532672770e-10  4.6809184453996850e-10  4.2373277839527093e-10  1.2112650804084703e-10  2.0967438475631756e-10  6.6853298794347059e-11  8.4696436621630961e-11  6.2674935780333394e-11  2.3845323929086002e-10  4.0121527081076848e-10  3.0787092382599623e-10  3.2364515403748162e-10  8.5721879039098328e-11  2.2794158285765734e-10  4.7857073662069828e-10  1.7120157010624150e-10  4.7727627939004012e-10  1.8315607697233173e-10  1.3864867004686348e-10  1.1204796992202066e-10  5.1263588288136116e-11  5.4580961723343602e-11  3.3205018054612540e-10  6.2688146848475687e-11  6.4754662564819213e-11  1.2972836873883743e-10  3.1925477171867639e-10  3.1845913416733448e-10  1.5713498053185703e-10  1.1779642030630201e-10  5.9629040508266622e-10  6.2660000583234347e-10  1.6198798895070695e-09  2.7014062370494256e-10  2.0036377413819726e-10  4.4532650456783199e-10  4.5446267162185070e-10  1.1813692978740220e-09  2.9712660212754921e-10  2.4752951116261637e-10  3.3129790073645416e-11  1.2878475899138471e-10  3.1923131404563541e-10  4.8073609254808344e-10  2.1257551178359226e-10  6.6202180175174262e-10  3.0405034839884397e-10  2.1648891189510161e-11  4.8604561399000048e-10  3.3422194689654672e-10  3.8777500062454733e-11  3.3284910972295473e-10  4.1399737133490799e-10  5.4137526209285393e-10  1.4486594508304461e-10  6.6655638587857546e-10  1.9418679265321226e-10  4.7308931367318119e-11  1.2696129797612168e-10  1.3194709418025939e-10  3.1638149095078592e-10  7.9034284954308180e-11  2.6255545782384550e-10  1.9581301425475593e-10  8.2119934895991752e-12  2.3697802286779105e-10  5.8240818324371708e-11  9.0368146316114771e-11  1.2423733485539078e-10  6.3419511536580873e-10  4.1341261198833200e-10  3.0533872508022242e-10  1.1711699648021335e-10  1.3186660858200680e-10  9.1034228255985744e-10  5.4684400267662688e-10  1.3446374993192061e-10  1.4270932191257722e-10  9.3918257085455298e-11  4.8693835342555754e-10  1.3779200861829354e-10  1.7389424881730865e-10  9.4716564786582424e-11  7.0934186892894135e-11  6.3576958466029955e-11  1.5007281345962874e-10  9.7977288599725336e-11  1.2867796014754963e-10  4.2961585500760738e-10  7.6703195069939665e-11  5.9881280356601707e-10  1.2624865125523478e-10  2.2302829515830671e-10  2.7922129100293499e-10  5.5444550173271808e-10  1.1599583472295293e-10  4.0854145398602422e-11  6.2952290042488523e-11  1.4168604457372407e-10  1.5886366945151786e-10  5.1315523381598917e-10  8.4674556118765116e-11  1.6171153415330342e-10  2.5147228313953732e-10  1.3821975822744628e-10  2.3664878571913125e-10  3.3557203312261974e-10  3.1085649005361007e-10  1.0411927586023038e-10  1.7480534654647866e-10  1.4910444223084569e-10  2.2673874530660688e-10  4.5742601132176881e-10  3.7458933185360077e-10  2.0215129393247981e-10  2.0401760596109251e-10  1.2463566134477244e-10  1.7299399923396579e-10  3.0088067577298173e-10  3.8192605324105900e-10  3.6301861276132748e-10  1.6517432276485507e-10  2.1919255722807804e-10  1.9482725198686872e-10  1.5345875064343420e-10  3.9920130774581865e-10  3.1824734392097154e-11  1.0566973143201625e-10  1.2741493600854595e-10  3.0914077570457595e-08  4.0565703574931014e-10  1.7685027963262890e-10  6.0986303145891931e-11  2.5626729020704197e-10  1.3788628268393802e-10  6.4239695714611090e-11  1.0532471571617091e-10  2.0289584744480568e-10  2.0523312321521993e-10  1.9402274325745385e-10  1.8836270375252257e-10  3.0759517522542684e-10  6.5123396470116494e-11  8.0114533903914611e-11  1.9022933599961454e-10  1.2231734644729552e-10  3.5531906301627967e-11  3.9975938761783496e-10  6.4511517187309578e-11  6.2159552408728276e-11  1.9449736145971340e-10  9.8819784907577843e-11  2.3793796684260963e-10  2.9162770342689652e-10  2.1347931772132151e-10  7.9728768631629770e-11  1.8686236444109841e-10  9.6393031408584676e-11  3.2797798626950884e-11  9.0936122707552003e-11  5.8507097759318804e-11  7.8763282407428873e-11  2.2647963006914119e-10  4.7232869419983246e-11  6.6506216670307268e-11  9.4904232242502204e-11  9.3553197761645787e-11  9.3615588630985360e-11  2.5168820085376189e-10  8.7756821910076656e-11  1.8429471638565980e-10  2.0260467674745101e-10  9.9831273587553960e-11  1.6108686342038980e-10  3.1542359149899184e-10  1.2393602885480208e-10  6.1986207597331448e-10  1.7002425843943139e-10  1.4877746506040991e-10  1.3842608799270543e-10  2.2706270820945371e-10  4.4316268710258555e-11  4.0119657436620296e-11  7.6764259758268155e-11  4.3216627515936986e-10  2.0024931038106976e-10  6.4442227745327732e-10  4.4124789442579607e-10  1.2076987246742523e-10  5.4612968158764526e-10  3.6494547164322986e-10  1.8778742183291161e-10  7.0620149330231735e-11  9.3388784246958994e-11  1.7418439433899976e-10  1.8730207088184834e-10  4.1752448214116725e-11  4.8112960381191725e-10  2.7844600714786694e-10  3.0010954906848572e-10  5.3706735588245767e-11  3.4843478720714878e-10  2.6697209306181386e-10  5.8940960573974145e-10  7.3115102758242661e-11  6.1730927633502491e-11  2.3845373660931864e-10  7.2583801401392158e-11  4.2635377216272757e-11  1.4727961666882417e-10  2.4408547163778660e-11  6