<?xml version="1.0"?>
<VTKFile type="UnstructuredGrid"  version="0.1"  >
<UnstructuredGrid>
<Piece  NumberOfPoints="4852" NumberOfCells="9430">
<Points>
<DataArray  type="Float64"  NumberOfComponents="3"  format="ascii">-1 0 0  -1 -1 0  0 -1 0  0 0 0  1 0 0  1 1 0  -1 1 0  0 0.9999999999999999 0  -0.5 1 0  -1 0.5 0  -1 -0.5 0  -0.5 -1 0  0 -0.1608775713298009 0  1 0.5 0  0.5 1 0  0.1967448868031411 0 0  -0.3404026750442711 -0.1761424036238528 0  -0.3368110148442516 0.2241124559406883 0  0.1739014088877288 0.346301460460886 0  -0.185119015997873 0.5549410597598232 0  -0.5033402560917842 -0.5376701918917969 0  0.4905732169993719 0.2572213921796414 0  -0.06443319009250759 0.2011327294255351 0  0 -0.5061325913258391 0  -0.25 -0.9999999999999999 0  -0.5611893843041321 0.5772375460318414 0  0.6615048655643815 0.6338977589021811 0  -0.1751519451662253 -0.5380712938401466 0  -0.538805951110782 0.02518467954338066 0  -1 0.25 0  -0.2061648082208598 0.02370347970450836 0  -0.6544429714600462 0.3091187198858804 0  -1 -0.25 0  0.03901420356661345 0.5917564981974138 0  0.1951975098409906 0.12897201904978 0  -0.1358546951332959 -0.2202154849984834 0  0.3710147236578056 0.6145319986359857 0  1 0.25 0  0.5355652144809806 0 0  -0.75 -1 0  -0.9999999999999999 -0.75 0  -0.644767358764438 -0.3232891665747284 0  0.25 1 0  -1 0.75 0  0.02757118475249542 0 0  -0.25 1 0  -0.75 1 0  1 0.75 0  0.75 1 0  0 -0.02898318711980711 0  0.05424542163216314 0.1424043534462677 0  -0.07773054222014913 -0.02780958336572246 0  -0.7009463365311103 -0.1326253479801126 0  -0.3210053565506047 -0.3477162948347281 0  -0.3401894796658327 0.4372064131272829 0  -0.1000614120280873 0.7642165881645866 0  -0.3831532255010112 0.7024804635498902 0  -0.05496617343418796 0.3989677002673934 0  -0.07895957567825133 0.07203089373400445 0  0.3589527780894779 0.3696837411081305 0  -0.7157534071895026 -0.7299356158153454 0  0.4119287105852443 0.08996854739499956 0  0.6900192590196357 0.1916724834991518 0  -0.7471590031568283 -0.5270450154676464 0  -0.3871414188565013 -0.7107467619784797 0  0.7216349172950215 0.4186628743354821 0  -0.7759246992054643 0.09678280383126146 0  0.1966203341293963 0.6986949316652384 0  -0.1987518048735377 0.2884408265125383 0  -0.7988170517538389 0.5772510396863649 0  -0.7165681331806484 0.766213722120898 0  -0.0488332217632552 -0.3736322929141216 0  0.5846899683643746 0.8164808759025983 0  0.8203313520304248 0.805874240242229 0  -0.1046012880489881 -0.697264252986758 0  -0.5144621357337624 0.1624507854013439 0  -0.2018672329865393 0.1255856309643174 0  -0.3591431343376 0.07514073380898137 0  -0.3650067233500119 -0.05262090643795907 0  -0.4965784944536955 0.3948400972024045 0  0.375 1 0  1 0.125 0  -0.0118708207058993 0.07133295099109899 0  0.06202563359995421 0.3919596659137838 0  -0.1712233618266715 -0.1226169022215153 0  -0.2428989311104907 0.7736071785575606 0  -0.625 1 0  0.5334118318441012 0.4543552310450565 0  -0.5757458187433991 -0.8300868684059201 0  -0.2571966363877541 -0.7837096244836289 0  -0.3190342573750201 -0.5087629467015438 0  0.8339817579638891 0.5952851519695728 0  -0.5485987989502714 0.7906628257887865 0  0.125 1 0  -0.06741452164655037 -0.09349069758617456 0  -0.4943048364718988 -0.1435644987408874 0  -0.875 -1 0  0.02959618110410802 0.04167238808169971 0  1 0.375 0  -0.875 1 0  0.05720100530019786 0.7939828622256828 0  -0.1950616835029299 -0.3741170265571404 0  -0.07296611198055289 0.5711051118495026 0  0.2363684518708086 0.5180458363635841 0  -0.7922279578678456 0.2292236784247493 0  -0.4947029305796197 -0.3894007596915738 0  2.928052132313973e-05 0.2712778523106252 0  0.5098882527558547 0.6402562332947649 0  0.3988134996485029 0.8073651438460541 0  -0.8061001252657827 0.4242348974014862 0  -0.06362982484833905 -0.2208069612217521 0  -0.7094877156445732 -0.01437517264839961 0  0.09058765693448827 0.05254757727877939 0  -0.477805818591876 -0.251636337159182 0  0.7238730920152363 0.08287859261630831 0  -0.8083894656488653 -0.4111357255094817 0  0.3376342662633505 0.1537054770488453 0  -0.7943275278444626 -0.2509399796765698 0  0.2363746876965014 0.2545290092913309 0  -0.9999999999999999 -0.875 0  -1 0.875 0  0.1843859256507529 0.04796007641822497 0  -0.2470521241420933 -0.2295287652046375 0  -0.9999999999999999 0.3750000000000001 0  -0.1710429956662751 -0.0418792321058124 0  -0.648722246525553 0.4672743698060367 0  0 -0.07736776745332727 0  0.08038336304907107 0.2600795297652073 0  -0.375 1 0  -0.2169250323424285 0.4247478339872594 0  -0.1201231623054783 0.1502206581215977 0  0.1330949786603354 0.554314283644012 0  0.1319794822338889 0.1939769169697865 0  -0.4747216504456517 0.2693295201255267 0  -0.04621656754175808 0.01396425023800808 0  0.8514508329031394 0.370232605574054 0  -1 -0.125 0  0.2855400560627107 0.8369015160560481 0  -0.1108517210890878 0.3131246779180015 0  -0.125 -1 0  0 -0.7575037395175259 0  0.07821397079968176 0 0  -0.9999999999999999 -0.375 0  -0.375 -1 0  -0.625 -1 0  0.7474787146812756 0 0  0.625 0.9999999999999999 0  0 -0.2918843213980812 0  -1 0.625 0  -0.9999999999999999 0.125 0  -1 -0.625 0  0.3284075310660084 0 0  0.004929205892015135 0 0  -0.125 1 0  0 -0.006571003003944568 0  1 0.625 0  1 0.875 0  0.875 1 0  -0.5622795822668603 -0.6764681742957251 0  -0.004729575971260239 0.1604018556520486 0  0.3624456407624437 0.2633029679202046 0  0.6530421525157005 0.2940566723291318 0  -0.8545623898318044 -0.646549105359654 0  -0.8633132241354131 0.7869269998809745 0  0.4304743503375718 0.5015614257641561 0  -0.3985396834966479 0.8557803045502875 0  -0.7785966924577785 -0.8747963669535836 0  -0.8703960320456325 -0.7842951503524822 0  0.1540617807746537 0.8422802350225242 0  -0.6584876757887033 0.1524846754274488 0  -0.5774894035408853 -0.06440367701306043 0  -0.8544846890903393 -0.06270937684685958 0  -0.2959718816849866 0.5621766336317844 0  -0.4236835670669979 0.5698721965077022 0  -0.3760543376243056 0.330945720787714 0  -0.6181290737826786 -0.216661601073116 0  -0.2727391967498293 -0.09031013195491948 0  -0.6396943862987901 -0.5886342025437402 0  0.8597458679700003 0.2660538507981318 0  -0.03283274187237611 -0.03294156149481699 0  -0.05480524549718391 0.1147127683666315 0  -0.1338358756848387 0.4321270661201044 0  -0.1198512998092589 0.03241875540122553 0  0.5378014070816346 0.06466347920510805 0  0.5792846879508823 0.3595224572603907 0  0.6913821467230106 0.7748260871385748 0  -0.793284586674892 0.8810703182413336 0  -0.6429421625682065 -0.4294117745909362 0  -0.1150539262408529 -0.397597778054444 0  0.8722119844806865 0.4887366709800635 0  0.07601659288575387 0.09401920805557244 0  -0.6645603542261531 0.8680443240239452 0  0.4546926650805018 0.3508963651944184 0  -0.02631704310967168 0.03590656702597309 0  -0.4085543572068165 -0.4406305694463682 0  -0.3614333821200127 -0.2692443620667652 0  0.3235027304756552 0.4820457122448786 0  -0.196154688847129 0.2015619128093167 0  0.7056875680281245 0.5310227252044152 0  0.2618015628533041 0.3563894694756363 0  -0.3763990603375572 -0.8519081245638602 0  0.1090570864349825 0.682212646606961 0  -0.2842051729171353 -0.6122776850668703 0  -0.4407974443401517 -0.6203042970523451 0  0.2961305173875759 0.6925109529946772 0  -0.8748453715374127 -0.1748964225676687 0  -0.1801150384001979 0.8549747224497087 0  0.4548336060948004 0.1636000136665704 0  0.2803461067688194 0.04675547705808645 0  -0.1424562790985257 0.6576022641222635 0  -0.01150883214826703 0.7088062045872151 0  -0.05342731096849196 0.8750690452030178 0  0.005252743286839534 0.4700903318371315 0  -0.38773884183743 0.1533898953114957 0  0.5492254602002811 0.1333677297394373 0  -0.4758933196708115 0.6823981186650759 0  -0.8515074502918116 0.3327174675387823 0  -0.09027811163343519 -0.5365446675374166 0  -0.02836785695306151 -0.5523491459774887 0  -0.2130057559223625 -0.2881491699302249 0  0.8685105614706786 0.1515550511237758 0  -0.1687350295447226 -0.6612091080142085 0  -0.8891460802965899 -0.5284890522737384 0  -0.2818212004399546 0.3383564783875062 0  -0.6762447854204847 0.5740611043394261 0  -0.8974783693134075 0.5313675887043073 0  -0.8983371745569907 0.6608465440772341 0  -0.6443898968489342 0.07216601616110679 0  -0.8590879180150837 0.02841333464932654 0  -0.888144256362852 0.1678185534670579 0  -0.1302673993909449 0.2291274417158067 0  0.1602679100186304 0.4465210287958664 0  -0.04348058902846932 -0.1258715283148674 0  -0.7533860731138489 0.6700362159354006 0  -0.6024154567718647 0.6979700929185713 0  -0.254508772789928 0.07849831077590895 0  -0.2494148220905622 0.6488931354422104 0  -0.02744986792250536 -0.006348743524798459 0  -0.4944031858771019 0.8770039884382486 0  -0.4769235571145105 0.4905237891034308 0  -0.2905708190713663 0.144038867089002 0  0.002287728574228621 0.02366926496414151 0  0.779547032080588 0.6837481986882852 0  -0.4696427544977978 -0.8248031608432264 0  0.272040238920525 0.195287765964889 0  -0.1483633109382701 -0.8632254817330578 0  -0.06509244154799999 -0.829563210360547 0  0.4433712074788765 0.7061886229534917 0  -0.1163975519399658 -0.2886716786700592 0  -0.2649424718698808 -0.02635072740419172 0  -0.8937651271356281 -0.8964982384564202 0  -0.5729949142315215 0.2370697458029036 0  -0.4762237393030825 0.08740897250174064 0  0.4912071489694834 0.8259133491231542 0  -0.02663459739949342 -0.2607726615903542 0  -0.3100910388532794 0.8753867700457402 0  -0.1431377118491218 0.0806059961264191 0  -0.4692855763238344 -0.03516577843285359 0  -0.3880152231189899 0.01191570575104711 0  -0.2918041197990816 0.02744051898079595 0  -0.3848092717456636 -0.1207830647411934 0  0.8881737294798033 0.6981350272783394 0  0.792678758380203 0.9107212166111163 0  0.5767062122096875 0.2081569010928302 0  -0.5597060061556673 -0.4696442520988566 0  0.5989101921223721 0.7061632051816639 0  0.6782724554731755 0.8883409935818284 0  -0.0511849079183001 0.3034036540399379 0  -0.9021334707824487 0.9046245086512685 0  -0.1275189711741566 -0.06723620390577253 0  -0.1687530485875904 -0.182896548964244 0  -0.252
[...]
<PointData  Scalars="w"> 
<DataArray  type="Float64"  Name="w"  format="ascii">1.7489268436761047e-10  1.0375480248732098e-11  4.4510547221443013e-10  2.6606676443441813e-09  6.2409184085709445e-10  1.5698276346701871e-12  8.6836807809727792e-12  7.4818058518561203e-11  4.0516845573976860e-11  2.1080933645995897e-11  1.0777772066788795e-10  9.5927154825648322e-11  4.0541056213490938e-10  2.7647110617617798e-10  9.1443257984380500e-12  5.2686789440261853e-10  9.1055667993613584e-11  7.2309408303710026e-11  1.3061998630528188e-10  3.5470809250993117e-10  6.7124933402183739e-11  1.0452486109971967e-10  5.7462314708664693e-10  2.0274049801026967e-08  5.7902918278099661e-10  1.0813918793419159e-10  8.8784107415078018e-11  1.7221761587860131e-10  7.6595279449137431e-11  1.8814010991406427e-11  4.6803889332077156e-10  9.7772472389647144e-11  2.4316855216188368e-10  1.8026585550326657e-10  4.5539589697896594e-10  2.2633251372488138e-10  7.7782762846261905e-11  4.7689444645619351e-10  5.8736158516495590e-10  3.1271527343248794e-11  5.2695769606422098e-11  1.0814000689681176e-10  9.2383314781284375e-11  1.9801314572962466e-11  1.0563250756978483e-09  8.7969138429828289e-11  3.2116870057472293e-11  9.6114869973270238e-11  1.2464853518195154e-12  5.9081917300637952e-10  2.2168350322871241e-10  2.1447702959038856e-10  8.2540946003702457e-11  2.5269162582848434e-10  2.6036291343554734e-10  2.0376511395516559e-10  3.5556855928666590e-10  8.9192578022511998e-11  5.8158846187307804e-10  2.5134724683217414e-10  3.1341028731771149e-11  3.1485793646359067e-10  3.7840800684577862e-10  1.4413255293120894e-10  5.4092013094945202e-11  1.7796556149157694e-10  7.0688338284988537e-11  1.7755081151262038e-10  2.3294899033382239e-10  4.6055507162574399e-11  6.4474267075903204e-11  4.7026081097535511e-10  5.6610492106000706e-11  8.7919172585091477e-11  1.7404133627560236e-10  1.7024388738746781e-10  2.5697593489024033e-10  2.9010839320598053e-10  1.8268691575797747e-10  1.9470164948796881e-10  6.5063388859664781e-11  2.5220615642369233e-10  2.6404332087847621e-10  2.0059162866312561e-10  2.3410760051684100e-10  1.2457950536563566e-10  4.6672563504451281e-11  1.0989063530251890e-10  9.4527410054194095e-11  2.5458632646242241e-10  6.9594198781748708e-11  9.9196470667947590e-11  7.8202510132967823e-11  9.4219912983682486e-11  3.8995996403739887e-10  2.0954618099173626e-10  2.5531891498743695e-11  6.5756267634800493e-10  2.5648318959105351e-10  3.1676470753335057e-11  2.7572823367829358e-10  4.1591924893817468e-10  7.1092979349593931e-11  9.7151867226016110e-11  1.5694590824918144e-10  6.3974198734696269e-11  2.7365987272518598e-10  8.3161045408059366e-11  1.4609824183839429e-10  6.6059290313721295e-11  3.0917404745995719e-10  2.4668774791900860e-10  2.3313380132350503e-10  6.4477539944954884e-10  1.2097509025324302e-09  1.4974207192677399e-10  1.6570630285170415e-10  1.0261154780709056e-10  4.5840173755479144e-10  2.5961621075437346e-11  2.5735132438029319e-11  2.7858152361714774e-10  9.1846636022157411e-11  6.1184280427778991e-11  5.0242624927188237e-10  5.7470242239236479e-11  5.9924822748792522e-10  1.1878343332256830e-10  7.6944778806308817e-11  8.2632491905145823e-11  3.4241452758295000e-10  1.7254970301704419e-10  4.6476752853533998e-10  1.3525856238367632e-10  6.2403090671969977e-10  4.4282939042100756e-10  1.0918677098242220e-10  5.2052680167828626e-11  1.2999997414427996e-10  2.5878650828151176e-10  3.5958645728694850e-10  6.0770716572801980e-10  9.2947930263524925e-11  1.1945402617336633e-10  6.8964418847113111e-11  6.5634263574546084e-10  8.6044578605759627e-11  2.4874334373928454e-10  1.4760399481423764e-10  1.2417412362154284e-10  2.0088127849368424e-11  2.8355286961838331e-10  1.5895925553421012e-09  5.6973563568643108e-11  9.6741778546217177e-10  7.9013320312298471e-11  2.4507443887738252e-11  2.4324084107023308e-11  1.2184999306171916e-10  5.6134882801285170e-10  4.4560325718560191e-10  1.6104467066968097e-10  1.1500412422285690e-10  1.6722858969024873e-10  1.8735020531802723e-10  5.8711837435895145e-11  7.7914251989056625e-11  2.0481438488798420e-11  6.0024444721733718e-11  2.9430018624508508e-10  9.2517122523136381e-11  1.0589096230524755e-10  8.2963084978702162e-11  9.6312277747627581e-11  5.3391646382833692e-11  9.6070049213990222e-11  4.5577603365201941e-10  5.7060091247523480e-11  1.6403116471079196e-10  1.7214760646056527e-10  4.6512277349481583e-10  1.9786441286391161e-10  2.8301092919007571e-10  1.4305326482138007e-10  1.4480633716766472e-10  1.4980046916337036e-10  2.1085718798882219e-11  2.8743550528818184e-10  6.6139035833127642e-10  2.5574519078978045e-11  2.5218901689123741e-10  8.9108883511143268e-11  1.5769095367566405e-10  1.1176497416598370e-09  1.3777968912155050e-10  1.6420005154058982e-10  2.3330905821217157e-10  2.8738864052791940e-10  1.0586967547700786e-10  2.0438581217632548e-10  4.1974725548395473e-10  2.1803966033506201e-10  2.3901459489677596e-10  1.1007287671968299e-10  1.1242971943380614e-10  1.1298088692669930e-10  7.1199133591074076e-11  2.0822560751436889e-10  8.8608666068001784e-10  7.7883335220607479e-11  1.0833377876549161e-10  7.7782036953250797e-11  9.6810324556594615e-11  1.6257673958315513e-10  3.7722957381345999e-10  7.9064102202317275e-11  8.5132571475260122e-11  7.8960346740961918e-10  7.3509086296384552e-10  2.9330957292415444e-10  1.9988939171666798e-10  7.7772154786512222e-11  8.1061117772569316e-11  3.3573714026806318e-10  5.8741039526428244e-11  8.3377701087529394e-11  5.0277017827524232e-11  9.3461394957075650e-11  4.1413476366109995e-10  9.0698575366905647e-11  1.9767003867844018e-10  1.6582384680506564e-10  9.0485878745717442e-10  6.1869934657289182e-11  1.9856894791408680e-10  1.1555297925981218e-10  1.1203134960821401e-10  7.5145144793902405e-10  7.5184876234400202e-11  8.5182405672857606e-11  1.1816319934596175e-10  1.1226947440634352e-09  4.1030888853346999e-11  7.8011216898644327e-11  2.7953296275215617e-10  2.5543902057222362e-10  3.4794681177170225e-10  1.8192355715078632e-10  2.0324534883024371e-10  4.0377365527479461e-10  2.9512832271088842e-11  1.0551046417095494e-10  1.2813829373028884e-10  3.7620171756158126e-11  2.7574554142262357e-10  4.4055532084516384e-11  3.3364849508156750e-10  1.3634888812985715e-10  1.1050167334523694e-10  1.9196516766532615e-10  5.0252795066695954e-10  7.3112715268053400e-11  2.6947427137456266e-11  1.4487443549700697e-10  8.2332045674759802e-11  5.9425684258578687e-11  7.6075441967774507e-11  1.7905867877444493e-10  4.9575903719245232e-11  2.6398118048521204e-10  2.5434946121147991e-10  1.2945028121977944e-10  1.2887104119813224e-10  1.3682829271578604e-11  7.1538899080234449e-11  1.4686860754709675e-10  1.6844949695013568e-10  4.9892757193669408e-10  3.7009324680043206e-11  8.2285991760584857e-11  3.3632600686149167e-11  2.3943883525797968e-10  1.2586370831291419e-10  1.8488238784015538e-10  7.5285135279163306e-11  8.7805582665236111e-11  1.2111342796107358e-10  2.0252548209585151e-10  2.2376284913304941e-10  2.6121126611156543e-10  4.3854047216970808e-10  2.1388286876410635e-10  2.1008799590068911e-10  1.4489616809030798e-10  8.0109410438532339e-11  1.7148651637575098e-10  1.6703428843808600e-10  6.2754113251756085e-10  1.2964705914126363e-10  6.2517695773877548e-11  4.0747003352459397e-10  1.9064850922387663e-10  2.0842555148143659e-10  1.2152853810983564e-10  3.2708827786888442e-11  4.4913767077203849e-11  9.8883282823229875e-11  6.8530372425263803e-10  2.9380378275830442e-10  1.8088651851463776e-10  1.3643001445682038e-10  3.3567446074314605e-10  6.7691758251265761e-11  1.1015624882600779e-10  3.5274167667525051e-10  1.0902542210084649e-09  9.9292140303199119e-11  2.8276351414784966e-10  6.1606340087543304e-10  1.2362838692695897e-09  1.9864670234084494e-10  1.5355337775733427e-09  4.1878540447750698e-10  2.2591703788938756e-10  1.1936127697408107e-10  4.1920693166871425e-11  6.5994546003321851e-11  1.2671215598610241e-10  1.5721560498250210e-10  6.3916816702173687e-11  9.8999126361962934e-11  1.0741448484560272e-10  1.2812125231399951e-10  1.9317822671467107e-10  4.9949617254024920e-10  3.1934938365960561e-10  1.6598826345508660e-10  9.6018045558028976e-11  6.1805426920725086e-11  5.9319415868686222e-11  7.0762580399447805e-11  1.8193143822484271e-10  2.2697808463472849e-10  1.0579362830531410e-10  1.0530529770675101e-10  2.3849924546692877e-10  1.3659662985208202e-10  6.9646021334675903e-11  5.9603972933920721e-11  1.0568238409264694e-10  3.4328072748368134e-11  1.8620030070096090e-10  3.2887655768115657e-11  1.6090311447474977e-10  1.7935772291882225e-10  1.5267448078640875e-10  3.9946479298835325e-10  7.9703634070834705e-11  8.3362313621693769e-11  1.4454796727207299e-10  3.0822195557522349e-10  1.4485630277471327e-10  2.6332434153661488e-10  1.1109452050578563e-10  1.3538655619062570e-10  1.5683310371607940e-10  2.8528654152668698e-10  1.2775108981493860e-10  3.3786662051157779e-11  1.1726513191582083e-10  1.1214171037754588e-10  1.4773334205156713e-10  2.5203075694062461e-10  1.7051471549726519e-10  3.5026400871927914e-11  1.2953658465965427e-10  2.3385800568475289e-10  2.9392531847271933e-11  3.2965977911868189e-10  1.6380532498968463e-10  3.9161797640646576e-10  1.1262959247204832e-10  2.3726030763262005e-10  3.2563045457058185e-10  7.5737761632981813e-11  1.0573926681177761e-10  2.1793240659765029e-10  7.3585834486021162e-11  4.8246899479247699e-10  1.6022272135856367e-10  9.8161018271417275e-11  1.0846342566511534e-10  2.0946225732372077e-10  5.4126177370888935e-10  4.7911021370608711e-10  1.8030522532545687e-10  1.7182138405326007e-10  2.0808271504382177e-10  4.0122064258284793e-10  4.5671486784729219e-11  2.2568711419417075e-10  8.2206506569561640e-11  1.2409217277559810e-09  1.1843277733279370e-10  4.6131160281357941e-11  5.5137772343409572e-10  3.3438173471892864e-10  2.4764872343307665e-10  2.1005459114754980e-10  6.4275762570127897e-11  1.5361264946094190e-10  3.3455901074011403e-11  4.3897609158806158e-10  8.2299066679999300e-11  1.3772178126812768e-10  1.2726360794079493e-10  6.6031705530055061e-11  3.4789644610428259e-10  4.3308921840715563e-11  1.1773059025335892e-10  2.4634935763807476e-10  1.7917612855495928e-10  7.1332245247740669e-10  9.2588542913486168e-11  5.7579031871411311e-10  1.4756810255168996e-10  3.5589482899435931e-10  5.5293230792427320e-10  2.4406912987426257e-10  1.5513375225387089e-10  2.7270518874975694e-10  4.8270206817127966e-10  3.4555965091284518e-10  7.5853041258665083e-11  4.9578264879331291e-11  1.6386933451279678e-10  3.5794854969935867e-10  1.8569882998525574e-10  1.2709235281545723e-10  1.7090612527939668e-10  8.1395016558532399e-11  7.1339353748877541e-11  1.9907919246596702e-10  5.8003421130435026e-11  2.0700412521970329e-10  9.0613273907735280e-11  4.8027193465158695e-10  4.9284153074258022e-10  8.2109617962175616e-11  4.1975626236330854e-11  4.0011973120086131e-10  6.4968398067539341e-10  2.5883367877523252e-10  9.9102034208589910e-10  2.8814673798888367e-10  3.1723654648297917e-10  2.7446560377776568e-10  2.6683170711685651e-10  9.7721343793306616e-11  3.1494523015896498e-11  1.9400213730377804e-10  1.0566663785150326e-10  2.1472438638169897e-10  7.5577229838856741e-11  1.2286800223781185e-10  2.0648951921077005e-09  1.7698503896355053e-10  8.1076393023043557e-11  8.2535139146346512e-11  3.9978746730521485e-10  2.4292915773714258e-10  1.8975825122036400e-10  2.0795715279611994e-10  4.4618615209874778e-11  7.5853952187101180e-10  2.4177680329499893e-10  5.3570129873003790e-10  2.4997919421167302e-10  2.4189142324137857e-10  3.1155443926870870e-10  9.4576863533409954e-11  3.3123970415327704e-11  3.6211552150172560e-11  3.6992514107550173e-10  3.6226053538620087e-11  1.1696291676715039e-10  1.0174642603199690e-09  7.5148027312633028e-11  3.5021266264183376e-10  2.6260795208135212e-10  6.1963684354589561e-11  6.0105163243553669e-11  1.8065120306768100e-10  2.4573853140182375e-10  4.8326138873193862e-11  1.1355705632513815e-10  1.6061348493936047e-10  7.6241742882218700e-11  1.6975804805609807e-10  2.1309354837277839e-09  3.6126462104355700e-10  3.1967023949882799e-10  1.0714896512768757e-10  1.0754920423431942e-10  1.8762325193734271e-10  8.0420759608406356e-11  1.3446422184896459e-10  4.9836811507875296e-10  8.7008628398233131e-11  2.4120059060419877e-10  2.1417825330874790e-10  1.3898514310952083e-10  5.1508382213361948e-11  7.7915553570131483e-11  5.5472309640054818e-11  4.9811772366889324e-10  1.0631430977404248e-10  2.2118500036943224e-11  5.7110604883736527e-10  3.0736116083103219e-11  6.2099596878261768e-10  1.1750084317217277e-11  1.1940660315340655e-10  1.8204095349039005e-10  2.5078096427570199e-10  1.0491184302871043e-10  2.8843891455236838e-11  8.5094106870821762e-11  2.7979418625285648e-11  2.0694405746411023e-10  3.7246432652022666e-10  2.7149561995837469e-10  3.3054454357796776e-10  1.3507055865437747e-10  9.4065296065855820e-11  6.3699869847069465e-11  3.6288403014651432e-10  5.0225232042947527e-10  1.0599156295659653e-10  1.0088607542173030e-10  1.4695838559897701e-10  7.6399505864367158e-11  4.5682027010885146e-11  5.5006283575124009e-11  3.2275980145245636e-11  8.8733422403261061e-12  1.7875351134652362e-11  9.8656789713546365e-11  2.2556458996203128e-12  1.1086727158613627e-11  1.8577363878636461e-10  3.4982726998352051e-09  2.2370011169333620e-10  4.2611026126917921e-11  2.2051518224815111e-10  9.2827268410663060e-11  1.1275492876209042e-10  4.3921561627872748e-11  1.7165254227087668e-11  8.8315244396251650e-11  7.3574585991475969e-10  7.9985726412435938e-11  1.8354756945263110e-10  3.2376791280054513e-10  4.8348221396956210e-10  9.6498654579436130e-11  1.0189148743493235e-10  5.8448519487805720e-11  7.7167743922535563e-11  1.1232741636647495e-10  5.7300934809597229e-11  6.0748060947670257e-10  5.9366164017053718e-11  2.7821072034396301e-10  8.8362795353977555e-11  1.2788465882942916e-10  3.1040891277185868e-10  4.1663763187515172e-11  6.3213820338773205e-11  2.8540014853891145e-10  1.1934429908505822e-11  1.1338262846738627e-10  8.8383151638496501e-11  7.7025590653406295e-11  5.6187653353353006e-10  1.6164454192884876e-09  2.9495877151755861e-10  2.8926279699425386e-10  9.0721277032311799e-11  6.9267243804470577e-11  2.5418419384646439e-10  1.1764190299102854e-10  9.9385523321993068e-11  1.0475040827996306e-10  1.9825672968918865e-10  7.4000031192617861e-11  5.2721535326517282e-11  7.0752982553121889e-11  3.9779533380864798e-11  8.6589482051921875e-11  1.9169683696635859e-10  1.6229522867172138e-10  1.1189154258384497e-10  2.7627708697115201e-10  4.7112895665670538e-11  1.3618159741872588e-10  5.2331310821421945e-10  6.6847558321580583e-11  1.1807311660211552e-10  1.3303362627078786e-09  5.8063696961247163e-11  3.3832502701819028e-10  5.1241054658962208e-10  1.5807846744306142e-10  1.2881190439155737e-10  1.2570226860368032e-10  9.0278483172442440e-11  2.4977324064368798e-10  2.8603099609827906e-10  1.7723495653661513e-10  4.6924301693179141e-10  4.2316942717982701e-10  1.2157537358814219e-10  2.1051598213365722e-10  6.6561808590402460e-11  8.4811798887455461e-11  6.2755533938804046e-11  2.3937528480653666e-10  4.0055567565912329e-10  3.0778339612607113e-10  3.2506332050050467e-10  8.5945460615719735e-11  2.2837620952050983e-10  4.8107230073299657e-10  1.7192583854138315e-10  4.7885958228427325e-10  1.8298800417195391e-10  1.3831916648888405e-10  1.1176792202822053e-10  5.1200783237081571e-11  5.4289120040937127e-11  3.3250657895313768e-10  6.2883845120219945e-11  6.4704790820975445e-11  1.2950247976581964e-10  3.2074729560016694e-10  3.1835005368256043e-10  1.5752619852103808e-10  1.1763940971289326e-10  5.9332625776894597e-10  6.2782474072778125e-10  1.6125137785737273e-09  2.6911930832034455e-10  1.9950872138920362e-10  4.4443804905762644e-10  4.5682995251299419e-10  1.1763464233245011e-09  2.9730796662253490e-10  2.4609958502074799e-10  3.3157563441283112e-11  1.2904833079957973e-10  3.2752858278286863e-10  4.9206685301963230e-10  2.1111376891264330e-10  6.6884363167422015e-10  3.0404555998482105e-10  2.1607548507353755e-11  4.8534683647741824e-10  3.3023797750952098e-10  3.8845902613869512e-11  3.3393484660309151e-10  4.1384311557548280e-10  5.4399053059133703e-10  1.4569902659614456e-10  6.7033316155446657e-10  1.9530861392157843e-10  4.7383430459066633e-11  1.2750886653548820e-10  1.3257787091740776e-10  3.1049725309578648e-10  7.8810853437175105e-11  2.6387085239979313e-10  1.9576946111759112e-10  8.1904880979329551e-12  2.1769863091779146e-10  5.7988637197465603e-11  9.0209813548955977e-11  1.2390747933652213e-10  6.3407935216711482e-10  4.1237337100461356e-10  3.0529670839897088e-10  1.1704348821334434e-10  1.3210994584303395e-10  9.0454373170031269e-10  5.4334261845981461e-10  1.3425204105587844e-10  1.4298371326318504e-10  9.4183212292743559e-11  4.8933962775344166e-10  1.3813418177916913e-10  1.7426313357313778e-10  9.5047063275900886e-11  7.0672998971113928e-11  6.3411246688327295e-11  1.4934444617684389e-10  9.8007113688302791e-11  1.2914684120777163e-10  4.3181554133367928e-10  7.6675835873247199e-11  5.9772560029688009e-10  1.2659041032966864e-10  2.2427712498037523e-10  2.8021175937405872e-10  5.5265499495981223e-10  1.1639217133436780e-10  4.0914023910711191e-11  6.2976843499929162e-11  1.4193678644705537e-10  1.5879152280026957e-10  5.1452789136970303e-10  8.4280774610804859e-11  1.6161000392506992e-10  2.5180161239010321e-10  1.3887046940627318e-10  2.3618724708742783e-10  3.3613280802818869e-10  3.1164897078270096e-10  1.0441883717701438e-10  1.7451696431921056e-10  1.4916658206633765e-10  2.2778357542896130e-10  4.7803311146308496e-10  3.7347870764063096e-10  2.0170209144622391e-10  2.0467443242949849e-10  1.2485925323373513e-10  1.7237747160454854e-10  3.0031990717662067e-10  3.8086311277894037e-10  3.6170177475338080e-10  1.6606281738957044e-10  2.2017617109893967e-10  1.9483233125950473e-10  1.5378287793872606e-10  3.9839008759802192e-10  3.1794200028356632e-11  1.0565203263163125e-10  1.2726334612014898e-10  4.5341338685037874e-08  4.0774025733693436e-10  1.7611847951719655e-10  6.1036945433950275e-11  2.5676780905923281e-10  1.3765135957281358e-10  6.4430479572459444e-11  1.0550434573505485e-10  2.0257425593880568e-10  2.0587650567145441e-10  1.9429269347682403e-10  1.8870054027388886e-10  3.0911672532984406e-10  6.5149563255582384e-11  8.0190456952783919e-11  1.9093841624237279e-10  1.2284962881744282e-10  3.5428947509292764e-11  4.0144322893625641e-10  6.4735261313394460e-11  6.1834916729906824e-11  1.9455401458685499e-10  9.9071881696474851e-11  2.3701439053135477e-10  2.9172831834392785e-10  1.4772117531494645e-10  8.0508413019106421e-11  1.8739630491706969e-10  9.6621674988872368e-11  3.2629553750987341e-11  9.0674284735457204e-11  5.8353895288773706e-11  7.8779293253171820e-11  2.2662302825284477e-10  4.7285243614814708e-11  6.6425450499235340e-11  9.4873900231988522e-11  9.3572757198016119e-11  9.3933916861138850e-11  2.5745864745094341e-10  8.7768220144249395e-11  1.8430661853157664e-10  2.0381931385122847e-10  1.0068000005283754e-10  1.6085312026800860e-10  3.1494030139630677e-10  1.2427664557003240e-10  6.1646879857760139e-10  1.7065759099107017e-10  1.4928976062214394e-10  1.3904820608214962e-10  2.2763114373210942e-10  4.4153271959600989e-11  3.9928310133066805e-11  7.6933118885257768e-11  4.3268704659492949e-10  2.0064764356395418e-10  6.4434813037955937e-10  4.4270829536533525e-10  1.2111888084779304e-10  5.4735182342063339e-10  3.6440958685704281e-10  1.8843541463811907e-10  7.0786270029072995e-11  9.3568528388512436e-11  1.7464662858705267e-10  1.8804086923799437e-10  4.1703701077177508e-11  4.8543513556511860e-10  2.7925691281350044e-10  3.0985832143676006e-10  5.3405713775917471e-11  3.5065158677369454e-10  2.6755209077167000e-10  5.8380473272839442e-10  7.3230402897289328e-11  6.1705354102793198e-11  2.3904164378254784e-10  7.2695473062143969e-11  4.2648736868364394e-11  1.4757418627872291e-10  2.4384533954096081e-11  6