<?xml version="1.0"?>
<VTKFile type="UnstructuredGrid"  version="0.1"  >
<UnstructuredGrid>
<Piece  NumberOfPoints="4852" NumberOfCells="9430">
<Points>
<DataArray  type="Float64"  NumberOfComponents="3"  format="ascii">-1 0 0  -1 -1 0  0 -1 0  0 0 0  1 0 0  1 1 0  -1 1 0  0 1 0  -0.5 1 0  -1 0.5 0  -1 -0.5 0  -0.5 -1 0  0 -0.1608775713298009 0  1 0.5 0  0.5 1 0  0.1967448868031411 0 0  -0.3419847947855935 -0.1757775281545312 0  -0.3385306313875937 0.2256570142446009 0  0.1743771314312089 0.3473756973745669 0  -0.1868664163345576 0.5561989804119544 0  -0.5063942651151371 -0.5389766507964175 0  0.4906166639748569 0.2593191418815515 0  -0.06504603903297433 0.201887033040137 0  0 -0.5061325913258391 0  -0.25 -1 0  -0.5635823080696624 0.5790551020158157 0  0.6625997421560155 0.6369260454770307 0  -0.1737326035674257 -0.5389291201757217 0  -0.5401621507629307 0.02615712529639754 0  -1 0.25 0  -0.2070929318497073 0.02399643276311183 0  -0.6557921437287543 0.3118510798332477 0  -1 -0.25 0  0.03925911788801257 0.592817039263382 0  0.1951992498082651 0.129981869907193 0  -0.1362993299659458 -0.2205886523678937 0  0.3724402396204091 0.6159346002877762 0  1 0.25 0  0.5355652144809806 0 0  -0.75 -1 0  -1 -0.7499999999999999 0  -0.6462627394845117 -0.3242185306778567 0  0.25 1 0  -1 0.75 0  0.02757118475249542 0 0  -0.25 1 0  -0.75 1 0  1 0.75 0  0.75 1 0  0 -0.02898318711980711 0  0.05420590949386103 0.1429128572328053 0  -0.0780398724187381 -0.02798092515746176 0  -0.7023607547247477 -0.1324341997374204 0  -0.3228895539754125 -0.3479383444999528 0  -0.3423094662004854 0.4386876369374399 0  -0.1008443200077948 0.7645079626283308 0  -0.3859413595817403 0.7031366478353791 0  -0.05544014829483722 0.400034822713163 0  -0.07965479944082787 0.07219225862047861 0  0.3593516032863229 0.3715799303388914 0  -0.7186732432766884 -0.7319838069592081 0  0.411870110506082 0.09144556390769008 0  0.6899323282449165 0.1939423615661506 0  -0.7496457850943498 -0.5293366859882551 0  -0.3901627825076588 -0.7109760433078068 0  0.7213990170851708 0.4222841226806014 0  -0.7769165569712813 0.09843270001300108 0  0.1980061503848539 0.6997668372012453 0  -0.2002561311688701 0.2896224871606495 0  -0.7998596220482993 0.5790687539803586 0  -0.7182863127295355 0.7673298290734127 0  -0.04891776718005766 -0.3747867232613646 0  0.5864014569715043 0.8179096322990427 0  0.821288770360285 0.8078525663199639 0  -0.100978426803824 -0.6958974491688854 0  -0.5158994318627972 0.1644193540237961 0  -0.2030005279514171 0.1262310383739541 0  -0.3606060018195566 0.07612628223455921 0  -0.3664241283975287 -0.05208741458795493 0  -0.4987329091741843 0.3970541136626526 0  0.375 1 0  1 0.125 0  -0.01194334700061824 0.07159203347249447 0  0.06226274859813691 0.393124812608541 0  -0.1721897080373582 -0.1223985303303293 0  -0.2451303278100852 0.7739502529448801 0  -0.625 0.9999999999999999 0  0.5340038449711013 0.4571219229896299 0  -0.5789599457170779 -0.8305625264484429 0  -0.2571352794419762 -0.7828318737931448 0  -0.3209210624023936 -0.5093257540125142 0  0.8339610909233368 0.5983282633230554 0  -0.5508265909652535 0.7914234526621828 0  0.125 1 0  -0.06774531240706858 -0.0934686136924433 0  -0.4961500283587716 -0.143246852644935 0  -0.8749999999999999 -0.9999999999999999 0  0.0295845100907245 0.04179369728802763 0  1 0.375 0  -0.875 1 0  0.05782132404637615 0.7948339730346485 0  -0.1951596226247912 -0.3751014592297771 0  -0.07387470405326342 0.5724022733459786 0  0.2373181554261936 0.5194397167580136 0  -0.7927489311870473 0.2311754110878609 0  -0.4971857775052588 -0.39014691272403 0  -0.0001099387067957613 0.2721410341427083 0  0.5115335698644147 0.6422809563964693 0  0.4004716765729637 0.8082870258727135 0  -0.8067241666883704 0.4263629621953987 0  -0.06358049412279242 -0.2214928709183631 0  -0.7106509449254783 -0.01350277270547585 0  0.09052349404037008 0.05296187046617323 0  -0.4799274886306997 -0.2516912070458541 0  0.7238821611402242 0.08399260969429501 0  -0.8097699324120645 -0.412882049596748 0  0.3375432624164518 0.1552172642950574 0  -0.7957061981067468 -0.2518012323396172 0  0.2365400273560448 0.2556579810651652 0  -0.9999999999999999 -0.8750000000000001 0  -1 0.875 0  0.1843312843709624 0.04882237572465051 0  -0.2484383015378602 -0.229335332504792 0  -1 0.375 0  -0.1718096434673074 -0.0417973131004956 0  -0.6502264390960825 0.4696161250745947 0  0 -0.07736776745332727 0  0.08058629098485216 0.260972545751027 0  -0.375 1 0  -0.2188609217625372 0.4261083023074036 0  -0.1210789150021695 0.1508213303723861 0  0.1339956312589446 0.5553176267182997 0  0.1321372329662676 0.1948227777926509 0  -0.4762794565457531 0.2714621472202032 0  -0.04663032608409684 0.01384010828434282 0  0.8506670878760555 0.3731254505200572 0  -0.9999999999999999 -0.125 0  0.2868085518620988 0.8376531124209314 0  -0.1118235397231255 0.3142504335672389 0  -0.125 -1 0  0 -0.7575037395175259 0  0.07821397079968176 0 0  -1 -0.375 0  -0.375 -0.9999999999999999 0  -0.625 -1 0  0.7474787146812756 0 0  0.625 1 0  0 -0.2918843213980812 0  -1 0.625 0  -1 0.125 0  -1 -0.625 0  0.3284075310660084 0 0  0.004929205892015135 0 0  -0.125 0.9999999999999999 0  0 -0.006571003003944568 0  1 0.625 0  1 0.8750000000000001 0  0.8749999999999999 1 0  -0.5657628956654752 -0.67795333474949 0  -0.00490630928624316 0.1609906774063178 0  0.3624232030270907 0.2647819680657758 0  0.6529166250164028 0.2968645109512568 0  -0.8556651122982392 -0.6484274427637546 0  -0.8644323902344915 0.7878617520884186 0  0.4314755597109847 0.5035278217475111 0  -0.4003449523875657 0.8565805609128203 0  -0.7804526359367269 -0.875882305629944 0  -0.871591977655055 -0.7857902369899016 0  0.1551316728518346 0.8429679097687433 0  -0.6596317229944247 0.1547424599267805 0  -0.5786316436315662 -0.06388306332958875 0  -0.8551317995882995 -0.06233277001213718 0  -0.2984008047372343 0.563508209704305 0  -0.4263865944461621 0.5715880940002073 0  -0.3780291212305985 0.3326955712440869 0  -0.6190981621800331 -0.2168885099292985 0  -0.2739250644649442 -0.08995615815882341 0  -0.6425357985534447 -0.5910552719373746 0  0.8592353535552253 0.2681568332830536 0  -0.03286294654701206 -0.03310050032014365 0  -0.05530456497111771 0.1150969605584169 0  -0.135255472067194 0.4334023787562437 0  -0.1205371700554684 0.03249072706059052 0  0.5379004110716828 0.06581487822980102 0  0.579470264190235 0.3624202154683067 0  0.6929981428000813 0.776965948591101 0  -0.7942907689110007 0.8820006019919536 0  -0.6450595285066888 -0.4309475716014068 0  -0.1134923393970646 -0.3992435773747532 0  0.8714723703790818 0.4916349136181044 0  0.07599015025576661 0.09445571320002084 0  -0.665958596057439 0.8691862250035063 0  0.4550129486181527 0.3531968682534806 0  -0.02664508294975287 0.03595145812449795 0  -0.4111937073226156 -0.4412944412979474 0  -0.3633424760625629 -0.2691287111706966 0  0.3243997009108606 0.483723848971295 0  -0.1973963701282142 0.2024382076055156 0  0.7059232442560266 0.5345270356981519 0  0.2622548983062449 0.3577540582666946 0  -0.3787212599575063 -0.8512739389131088 0  0.1097740506570366 0.6830086160489554 0  -0.2849996181816964 -0.6127117409554379 0  -0.4442750126561698 -0.6211626615445252 0  0.2978463477298293 0.6936997613268835 0  -0.8751391852600914 -0.1751228393761607 0  -0.1813767139630252 0.8560532716054053 0  0.4547849490522648 0.1655203204626984 0  0.2803028851198135 0.04743332614724145 0  -0.1438371771792327 0.6580768890167322 0  -0.01172069080735916 0.709227802072134 0  -0.0535336517627394 0.8760869996421941 0  0.005307515039360425 0.4712420899838869 0  -0.3893185718528914 0.1548781718118539 0  0.5493194889813753 0.1352102904299961 0  -0.4786203079464443 0.6833896644190569 0  -0.8519598683560856 0.3344718904705121 0  -0.08648151366000026 -0.5372866580796199 0  -0.02546387135701578 -0.5530515650766304 0  -0.2139132379163946 -0.2884637593843349 0  0.8681986884789709 0.1529142600506481 0  -0.1662035762430802 -0.6609565723702318 0  -0.889185836777909 -0.5300126865988751 0  -0.2837571915911324 0.3399136782405904 0  -0.677897539588228 0.5760741034709189 0  -0.8980785528000914 0.532610514425735 0  -0.8991722970269984 0.6619303626022723 0  -0.6454078448279583 0.07375116845615015 0  -0.859606774912815 0.02927446859538952 0  -0.8883880225469749 0.1688654407830545 0  -0.1313148711117559 0.2299723444280214 0  0.1609382143056484 0.4479569656111627 0  -0.04372287167119653 -0.1259362556575105 0  -0.7548847759468698 0.6714752465654936 0  -0.6046462197721303 0.6991312765515585 0  -0.2555975435732686 0.0791540870606318 0  -0.2517388116945566 0.6495171205796977 0  -0.02755399011601389 -0.006592709876487234 0  -0.4961201493503027 0.877836027010328 0  -0.4796045801401932 0.4926787546370671 0  -0.2918960646197979 0.1450602801410018 0  0.002346438915474723 0.02377280792675107 0  0.780285312686678 0.686793185942708 0  -0.4728685718153274 -0.8246523762892294 0  0.2720656811865126 0.1966577040137254 0  -0.1472730591999608 -0.8620496930854159 0  -0.06397388140189002 -0.8286502887428496 0  0.4451399064343542 0.7077458366646543 0  -0.1158490691445557 -0.2898379217379796 0  -0.2660199793355288 -0.02598570476154811 0  -0.8944936907430844 -0.8972236530394511 0  -0.5744459438611352 0.2395334623531709 0  -0.4776486651714079 0.08874403614257188 0  0.4928694086593918 0.8269779167606924 0  -0.02728332340087241 -0.2607520421170225 0  -0.3117848917573915 0.8762732964610936 0  -0.1439747882404128 0.0808913708388405 0  -0.4708326514845506 -0.03451427896332424 0  -0.3894946001286886 0.01268689429877947 0  -0.2929758848296212 0.02800012958177322 0  -0.386368313427819 -0.1203706334373625 0  0.8884077805674093 0.7002646497442729 0  0.7935081344190537 0.9116146563642684 0  0.5766679153044658 0.2104924555943452 0  -0.561913236432895 -0.4710781989910962 0  0.6006392816228181 0.7083436275723017 0  0.6794920938701274 0.8892950004610207 0  -0.0517546197591844 0.3044536685596857 0  -0.9026340627243576 0.905051325750271 0  -0.1280819073935765 -0.06720833230152858 0  -0.1697064692442325 -0.1828341076
[...]
<PointData  Scalars="w"> 
<DataArray  type="Float64"  Name="w"  format="ascii">1.7289137328402843e-10  1.0263137657342682e-11  4.4686503765468003e-10  2.5559770646899894e-09  6.2629390117979025e-10  1.5649271161417392e-12  8.6345269265936040e-12  7.2434267795847415e-11  3.8177615799537830e-11  2.0755553275847479e-11  1.0816528752251059e-10  9.4905737551205346e-11  4.0589156905012606e-10  2.6580776990923391e-10  8.9033039693298333e-12  5.5088101851295721e-10  9.1704489681049933e-11  7.1737852096207713e-11  1.3093877393883929e-10  3.4985421361813512e-10  6.6575974668558772e-11  1.0366435443008700e-10  5.8156009673738650e-10  3.2571574019637065e-09  6.0688869359088566e-10  1.0376591289266792e-10  8.5660126026056835e-11  1.7347705978037821e-10  7.6043853950465819e-11  1.9100602071601784e-11  4.7262973118317959e-10  9.4853342444079878e-11  2.4360231418328626e-10  1.7933717771502326e-10  4.5819852503560141e-10  2.3277271789417443e-10  7.7013127443714198e-11  4.6583741251044038e-10  5.9877031164665906e-10  3.0152903095191340e-11  4.9949735903034298e-11  1.1028573495133106e-10  9.0358622345167120e-11  1.8723570031899807e-11  1.0641212918152638e-09  8.3468462773659598e-11  3.0569396404208376e-11  9.1274307879815895e-11  1.2880256803310498e-12  5.9420948659808217e-10  2.2279344224243924e-10  2.1479203626120068e-10  8.4856245252625847e-11  2.5989817638891353e-10  2.5275544388123247e-10  2.1396249864001759e-10  3.4804819360704845e-10  9.0471612428119784e-11  5.8570904965704714e-10  2.5243255704943425e-10  3.0016453907894581e-11  3.2015665070011587e-10  3.7754483555660668e-10  1.3501894000457389e-10  5.3824924828023995e-11  1.7533453765635363e-10  6.8479174624663231e-11  1.8364891725794438e-10  2.3603870666739730e-10  4.4633440147495971e-11  6.3645764166067202e-11  4.1191914427241780e-10  5.4418861553088998e-11  8.3899630459639369e-11  1.7596035943346204e-10  1.6959930296690790e-10  2.5795356768203427e-10  2.8842681657935774e-10  1.8451414634291529e-10  1.9570646004214541e-10  6.3430960773824457e-11  2.5182900523184711e-10  2.6994138542149223e-10  2.0044931002172279e-10  2.3507972814734964e-10  1.2791910886701255e-10  4.3503909434593029e-11  1.0829336294558085e-10  9.1937313878079234e-11  2.6878406684572206e-10  7.0993627520922405e-11  9.5653214833532049e-11  7.6636678074865702e-11  9.1744228925250845e-11  3.9289365131826828e-10  2.0911163442642894e-10  2.4356909656943016e-11  6.5781756425065524e-10  2.5604144656120963e-10  3.0494615538881103e-11  2.7620085753680373e-10  4.2515693885312677e-10  7.0928494603652414e-11  9.5944537303988522e-11  1.5016623152388519e-10  6.1700569258095877e-11  2.7707793452783449e-10  8.2285215382863459e-11  1.4287457941922747e-10  6.4698245587981972e-11  3.1828710105028043e-10  2.5189254298786502e-10  2.3484709855895550e-10  6.5102040184329550e-10  1.2217291218710212e-09  1.3498158092857459e-10  1.6862476484810670e-10  9.7184144968497578e-11  4.5680078855667180e-10  2.5101409523211504e-11  2.5052670687685504e-11  2.8146328086120442e-10  9.3891939450694720e-11  5.8943516929379222e-11  5.0528874250600797e-10  5.5022570511759227e-11  6.0789620751056377e-10  1.1830024428641703e-10  7.3709880141619930e-11  8.2877709429473872e-11  3.4866540351837926e-10  1.6622589517549561e-10  4.6748462037635190e-10  1.3307511376221740e-10  6.3203230753135917e-10  4.2421249420851893e-10  1.0873996647373767e-10  5.0631411224247376e-11  1.3232730893177868e-10  2.6468884766623779e-10  1.6484840602886400e-10  6.2944074399331929e-10  9.3175228740417670e-11  1.2104016442726680e-10  6.4930763925710835e-11  6.6338804582022040e-10  8.2325231693582227e-11  3.1624175826248874e-10  1.4068030594954734e-10  1.2451540096950043e-10  1.9659895067387022e-11  2.8798194427331279e-10  1.6130563033540365e-09  5.3835393103649060e-11  9.8148275406532000e-10  7.5662377283657211e-11  2.3016967619249520e-11  2.3364493368445635e-11  1.2011914760316591e-10  5.6967672090249749e-10  4.3586444646055806e-10  1.6171402989035123e-10  1.0717168820412377e-10  1.5976801125238317e-10  1.8383724007449764e-10  5.8278337633332743e-11  7.3162782797746941e-11  1.9341718973350614e-11  5.8538467081945306e-11  2.9558536916889215e-10  9.1222994550331306e-11  1.0335305090383760e-10  8.1543932754793654e-11  9.2614430550137949e-11  5.2136216923962192e-11  9.7002307109539801e-11  4.5765434324079491e-10  5.6410175603089080e-11  1.6388255684495043e-10  1.6952070123245948e-10  4.7434226743169138e-10  2.0148352131456670e-10  2.8358286675084027e-10  1.4676618955167921e-10  1.4625275863888141e-10  1.4386901232129764e-10  2.0612921109297853e-11  2.9908024125993008e-10  6.5775223294190345e-10  2.4724064192599877e-11  2.5542170196631917e-10  8.6034583497780777e-11  1.5818348471577341e-10  1.1450403415231657e-09  1.4192557759303641e-10  1.6634120572117127e-10  2.3442625771409591e-10  2.9177878675914403e-10  1.0265107081205843e-10  2.0483068608066526e-10  4.1577458590533481e-10  2.2271378182618074e-10  2.4112186158019084e-10  1.1142244992259220e-10  1.1179410319654913e-10  1.0797937852682521e-10  7.3372424556339764e-11  2.1075829215916129e-10  8.9947029024115122e-10  7.4848682902217482e-11  1.0699042450522170e-10  7.9953062982331897e-11  9.8127580106832186e-11  1.6228973181646017e-10  3.8127003920525525e-10  7.6786196506889224e-11  8.3772343723990556e-11  7.5942344763417196e-10  7.1838050473812561e-10  3.0106213685481815e-10  2.0111595889390910e-10  8.1726507479275922e-11  7.8135001408841053e-11  3.3798826082740947e-10  5.6378826641488133e-11  8.0247345952193833e-11  4.8716628525105969e-11  9.5038615654488097e-11  3.9939682949917924e-10  8.9143047000022770e-11  1.9879514789390102e-10  1.6835684486978852e-10  9.2484463410091201e-10  5.9801231062110494e-11  1.9154827166304592e-10  1.1595118544108613e-10  1.0780512911671667e-10  7.6166206027296548e-10  7.5027133508518307e-11  8.4047022751565548e-11  1.1851616160613693e-10  1.1449120452859086e-09  3.9081718778980959e-11  7.6905573451628717e-11  2.8105283626972073e-10  2.6490218895729445e-10  3.5723959233570786e-10  1.7928903719047854e-10  2.0589106240099610e-10  4.0705097876553698e-10  2.7903054823746392e-11  1.0464759205099995e-10  1.2806265571268998e-10  3.6771092506154082e-11  2.7515608293907748e-10  4.3071185788095099e-11  3.4087994574034860e-10  1.3532403971691895e-10  1.1128438989800189e-10  1.9265256759612150e-10  5.0640478997580493e-10  7.1039150339577398e-11  2.5594143922535786e-11  1.4470542788449724e-10  8.1133221520776305e-11  5.7810172402676880e-11  7.1296251573075604e-11  1.8135265121049178e-10  4.7582954737296793e-11  2.6400698538402425e-10  2.5747224569763075e-10  1.2973146071787409e-10  1.3052840754144304e-10  1.2982927224805411e-11  7.2484915523136140e-11  1.4732481891401296e-10  1.6516818219215489e-10  5.0377131805603208e-10  3.5033864089379846e-11  8.1088108189445694e-11  3.2084953185576740e-11  2.4132338450360874e-10  1.2490469707218326e-10  1.8286277794531045e-10  7.5267567314337822e-11  8.8108056347649855e-11  1.1959114263503788e-10  2.0049295143635856e-10  2.2598050051783754e-10  2.6201761490682960e-10  4.4299255756382221e-10  2.1685512610450404e-10  2.1129467812038908e-10  1.4468019952169584e-10  8.3393625299656918e-11  1.7763144871764760e-10  1.7598171110157290e-10  6.3358126030065061e-10  1.2462038004932813e-10  6.1669111849648766e-11  4.1562535923743202e-10  1.8995993048848456e-10  2.0455563909663924e-10  1.1292149549999552e-10  3.1125001391155891e-11  4.4307137687902993e-11  9.5217970401450913e-11  7.0682800434796933e-10  2.9606380901205247e-10  1.8024854935881651e-10  1.3474829321503557e-10  3.4359937055120273e-10  6.9269107086089564e-11  1.1406143039981341e-10  3.5625065902339880e-10  1.2795276438733310e-09  9.4533682878097161e-11  2.8263769903658621e-10  6.2293454872834572e-10  1.2401246908361593e-09  1.9829863647038211e-10  1.5490704704904241e-09  4.2083332126976421e-10  2.2659408674212172e-10  1.2010412438065144e-10  4.1112245713468628e-11  6.2397669084719920e-11  1.2841976098733924e-10  1.5471604735237425e-10  6.1646352619023483e-11  9.8433185983015275e-11  1.0940735794820846e-10  1.2224964764525832e-10  1.9175903960951919e-10  5.0466938747271026e-10  3.2599467299727463e-10  1.6666234041310323e-10  9.2857599001307844e-11  6.0949234827995958e-11  5.8666624002187252e-11  7.2564009369148102e-11  1.8362537073406920e-10  2.3160710634334741e-10  1.0357633267418086e-10  1.0533597338185480e-10  2.3850173786212984e-10  1.3430857846116360e-10  6.7436882551849744e-11  5.7703458814433537e-11  1.0588399960526139e-10  3.3727174348296585e-11  1.8926733024783712e-10  3.2076329194138580e-11  1.6087989765884354e-10  1.7919372484908211e-10  1.5751479971142283e-10  3.8134757561342322e-10  7.8920163723870957e-11  7.9844466213704501e-11  1.4253571534739618e-10  3.1837640678454891e-10  1.5459302793897190e-10  2.6280373219746168e-10  1.0955466192467330e-10  1.3653513771435783e-10  1.6206675869894365e-10  3.0069955621016590e-10  1.2849756407697690e-10  3.2963719737675634e-11  1.1471781988521833e-10  1.1459898936231361e-10  1.4147290820842553e-10  2.4557408165827460e-10  1.6633275539087469e-10  3.4392993060817097e-11  1.2638190351930890e-10  2.3675843254188606e-10  2.6979933479942683e-11  3.3266446174145722e-10  1.6551077400760443e-10  3.9064625756172863e-10  1.1857703935745969e-10  2.4601834631068383e-10  3.2423418746541880e-10  7.2985345526784589e-11  1.0374362380571781e-10  2.1593325083069453e-10  6.9417196420959737e-11  4.9706973844029378e-10  1.6026617801090938e-10  9.5255125725692375e-11  1.0662220213108877e-10  2.0613550833183494e-10  5.5380116828944719e-10  4.8182344515347854e-10  1.7556185218796521e-10  1.7482938908860897e-10  2.0534022733208103e-10  3.9116008810008882e-10  4.3671485162752090e-11  2.2256211450087722e-10  7.4102284984963629e-11  1.2577605471559307e-09  1.1456653587175034e-10  4.5850253127505962e-11  5.6590811149122572e-10  3.4386583034885175e-10  2.5229916611244486e-10  2.1602811440126796e-10  6.3811810961348476e-11  1.5223311945050443e-10  3.2307901037995985e-11  4.4439168392456347e-10  7.9206439537258703e-11  1.3059481867450979e-10  1.2856026948491379e-10  6.4058858315434763e-11  3.4451114901088176e-10  4.2337420420742526e-11  1.1469727488868586e-10  2.5208543770894773e-10  1.8120306863923457e-10  7.2819082201399669e-10  9.0241402994575911e-11  5.8233145003606346e-10  1.4044007418371101e-10  3.5874563240125941e-10  5.7423094028365971e-10  2.4592117276749218e-10  1.5439271750137010e-10  2.7731077377516858e-10  4.8124144796191045e-10  3.5035512604746322e-10  7.4564126815977165e-11  5.1948049974384515e-11  1.6518104060915201e-10  3.6011121959659205e-10  1.8849929225778763e-10  1.2225025027598736e-10  1.6436599155504273e-10  7.7202517666020446e-11  6.9633565137351757e-11  2.0333409490183354e-10  5.6257546084742056e-11  2.0744160646315364e-10  9.1009787827615468e-11  4.9118085857157040e-10  5.0500955564710585e-10  8.1865377905446889e-11  4.1413625170962731e-11  4.1468468642215415e-10  6.6461515086620868e-10  2.5995399869709443e-10  1.0050783896058564e-09  2.9179986068037240e-10  3.2045381874756565e-10  2.7460428457691823e-10  2.6995315311016690e-10  9.8312914482854362e-11  2.9734752168405973e-11  1.9685558126824020e-10  9.6496861080750257e-11  2.0918274701577786e-10  7.6255408714363454e-11  1.2029915051774687e-10  2.1017282705046016e-09  1.7879583210803601e-10  7.9660447030942247e-11  8.0198276025571182e-11  4.0517734968619970e-10  2.4698671990930364e-10  1.9257403987311175e-10  2.0856532144829189e-10  4.3424041405415542e-11  7.6744603228763020e-10  2.4530739817246422e-10  5.4022389109628654e-10  2.5452064195831936e-10  2.3388512074193911e-10  3.1064430642754119e-10  9.4328375921130957e-11  3.2211518467870682e-11  3.5374478719442493e-11  3.7580288072449006e-10  3.3950073555693996e-11  1.0962364170496919e-10  1.0388820626826122e-09  7.5537948190562635e-11  3.3559549515997234e-10  2.5907805503584811e-10  6.1595175464460698e-11  5.5812431037684307e-11  1.8017896840358728e-10  2.4825440332248033e-10  4.5478275545124199e-11  1.1310454973756201e-10  1.5683939340577898e-10  7.2963663608400388e-11  1.6957221037531054e-10  2.1557158865911289e-09  3.3783017517476632e-10  3.2200377366924924e-10  1.0519442436946941e-10  1.0330568986347981e-10  1.8201293514457568e-10  7.6356385018678135e-11  1.3726518241881334e-10  4.9463367825837435e-10  8.6332299490278082e-11  2.4006570463224282e-10  2.1839909191083759e-10  1.3849687319232010e-10  4.8192267508674854e-11  7.3555875264190378e-11  5.2067300102882010e-11  1.3060882549830835e-09  1.0484745220979522e-10  2.2000321372652701e-11  5.7853477886775307e-10  2.9572951668931434e-11  6.2705577228781126e-10  1.1563787893330014e-11  8.2139378798815646e-10  1.7977746503027670e-10  2.6436139678418000e-10  1.0217148128303643e-10  2.8170859411371636e-11  8.2377995350906085e-11  2.7054334025468801e-11  2.0710575196219412e-10  3.7500406519919963e-10  2.7115369337874400e-10  3.2165420421440831e-10  1.3360035235132341e-10  8.8618796714288014e-11  6.0079302446098645e-11  3.6775218435947064e-10  4.9549602703880589e-10  1.0816606575023773e-10  1.0039477538638125e-10  1.4586699355645065e-10  7.2964831755933068e-11  4.3347468217448952e-11  5.1749825848176523e-11  3.0620774435613222e-11  8.7091753612035947e-12  1.7488152910454489e-11  9.3661715586917154e-11  2.2126131552733758e-12  1.0821012454817064e-11  1.8642265435848602e-10  3.5089196586578912e-09  2.0839926227944247e-10  3.9261444517538186e-11  2.2037528232115437e-10  9.0075502206051455e-11  1.1077440808837293e-10  4.1906073843381496e-11  1.6466596440326240e-11  8.3846946819740324e-11  7.5663804492800340e-10  7.7257787105278012e-11  1.8640175707363954e-10  3.2409901751635989e-10  5.0539071104003415e-10  9.6750838588973283e-11  1.0180762505927543e-10  5.7629338460642994e-11  7.6832190829213026e-11  1.0687401621942052e-10  5.5697622498577094e-11  6.0057976221309761e-10  5.7681691895190571e-11  2.8291559877342540e-10  8.6545114090560830e-11  1.2785518944170718e-10  3.1655402974295375e-10  4.1542241911719926e-11  6.0767528579599027e-11  2.6770424391278307e-10  1.1664487147477715e-11  1.1288841153936535e-10  8.4945425803597787e-11  7.5321562367580390e-11  5.7534303295274533e-10  1.6162139572369833e-09  2.9885160342806404e-10  2.8815203343102253e-10  9.0041732723625120e-11  6.7259209630088816e-11  2.4940598948133588e-10  1.1310796940427674e-10  9.4747248349695008e-11  9.9387236015402994e-11  2.0097150763303466e-10  7.1812361051443365e-11  4.9579254385242905e-11  6.6933536189196802e-11  3.7890729317004871e-11  8.2334876458579405e-11  1.9172224718999542e-10  1.6349228221755275e-10  1.1225628649694376e-10  2.7919991366032673e-10  4.6120285284215970e-11  1.3569667599996733e-10  5.3421811191591977e-10  6.5254841202827107e-11  1.1306102048182587e-10  1.2856629244112472e-09  5.8856653830657541e-11  3.4662085713878825e-10  5.2084022880876316e-10  1.6079925049899089e-10  1.2611263735313274e-10  1.2693390543241047e-10  8.4362461269443731e-11  2.4804667306643198e-10  2.8867366675961503e-10  1.7931335113269616e-10  4.8081241097640596e-10  4.2747573336836379e-10  1.2069050232744223e-10  2.0865333681707951e-10  6.4107334335110354e-11  8.2825652192200337e-11  6.1380005941321968e-11  2.3474333496922027e-10  4.0535106710683041e-10  3.1000579330018823e-10  3.3452094311685413e-10  8.5145699782332059e-11  2.2857179096209468e-10  4.7906004814870652e-10  1.7751493617906020e-10  4.7044126311106331e-10  1.7828781496531182e-10  1.3715850444534348e-10  1.1250262507062429e-10  5.1058899270171173e-11  5.1685880246484770e-11  3.3932963503577125e-10  6.2046200633748225e-11  6.4071278037405410e-11  1.2542679734304998e-10  3.3004810128920589e-10  3.2230502341762992e-10  1.5613646269287898e-10  1.1730585633146861e-10  6.0763698470790411e-10  6.4566646649758421e-10  1.6321365546746386e-09  2.7141429482198861e-10  1.9712179094988203e-10  4.4410008786393039e-10  4.6814192774268244e-10  1.2065036730567470e-09  3.0115455898000631e-10  2.3809954810437955e-10  3.3179214130570002e-11  1.2452711970911687e-10  3.2351756260341235e-10  4.7176591939944623e-10  2.1277968858083301e-10  6.8577980491558885e-10  2.9769700100121920e-10  2.0793420327567772e-11  5.0228358361998728e-10  3.3442141160909764e-10  3.8697122687167536e-11  3.3454806735906566e-10  4.1570175416981040e-10  5.4560964834471392e-10  1.4721378484022240e-10  6.8428779523256340e-10  1.9833098155653078e-10  4.6570164306200115e-11  1.2638977287329762e-10  1.3130802900901162e-10  3.1652399675016836e-10  7.6808068768401159e-11  2.6928370201297319e-10  1.8187869766257481e-10  7.8993926794993640e-12  2.1274686081031467e-10  5.5725031885506971e-11  8.9087232301785167e-11  1.2166238430500734e-10  6.4229111223516490e-10  4.1754902550984427e-10  3.1228792179108079e-10  1.1668377559819098e-10  1.2907383369057934e-10  9.1764511434478588e-10  5.5024326252845776e-10  1.3584269675304339e-10  1.4053306826167312e-10  9.6986666136560482e-11  5.0416661570943077e-10  1.3373481693483334e-10  1.7061351251983628e-10  9.3815346312989279e-11  6.9076815153122581e-11  6.2230228683676102e-11  1.4708546806888300e-10  9.4395251925361494e-11  1.3648619915494362e-10  4.5366494849868475e-10  7.2400725628462415e-11  6.0787299830446929e-10  1.2535653743838973e-10  2.2501495635406150e-10  2.7515561846586755e-10  5.6140800211819791e-10  1.1574812190762920e-10  3.9829944233172469e-11  6.0250412410735658e-11  1.4306742918199135e-10  1.5826156443788572e-10  5.1651189561931051e-10  8.1985507646823422e-11  1.4988696565658111e-10  2.3749807677060984e-10  1.4449906089293611e-10  2.4035225793229837e-10  3.4444208287769064e-10  3.1454250161452204e-10  1.0192131932884238e-10  1.7412618865177934e-10  1.5279752814357516e-10  2.2928696994287557e-10  4.1752741842939214e-10  3.7475972698474065e-10  2.0178604745368058e-10  2.0271854990475077e-10  1.1990477604217110e-10  1.6928558823421821e-10  3.0098934519544571e-10  3.8430146595464105e-10  3.6660223654301257e-10  1.6567527544689561e-10  2.2341405810772917e-10  2.0360053234737059e-10  1.5015417547388335e-10  3.9432805893911684e-10  3.0379514530172308e-11  1.0351976076682790e-10  1.3050503166159754e-10  3.2851439532482007e-08  4.1498553002761188e-10  1.7121254787653801e-10  6.1564270241628363e-11  2.5955338102834779e-10  1.3810823702170407e-10  6.3435620818914695e-11  1.0219220167495894e-10  2.0411727827014391e-10  2.0250234423026977e-10  1.8811885867108987e-10  1.9042931209316070e-10  3.0746073792433969e-10  6.2997163107830165e-11  7.9660659030465888e-11  1.8963401927413688e-10  1.2523607609918000e-10  3.3925119136119096e-11  4.0292216907429632e-10  6.4429908253558480e-11  5.9609725074785559e-11  1.9108478883310757e-10  9.6668842147756847e-11  2.3493301137341507e-10  2.9624520176426670e-10  1.0373594190865060e-10  8.3475728908290229e-11  1.8178421674265430e-10  9.5171566833865749e-11  3.1055717921413567e-11  8.6563169625334374e-11  5.8333130624835502e-11  7.8433963648396174e-11  2.2385827865039339e-10  4.5689009157235082e-11  6.4465705275189658e-11  9.1458944784066393e-11  8.9844655422952920e-11  9.3802713911084150e-11  2.5238611550473719e-10  8.9092871274950243e-11  1.9163758938666020e-10  2.1363565728089313e-10  1.0618864799626548e-10  1.6180187276169445e-10  3.1774584207430722e-10  1.2268384587621828e-10  6.2148507904709992e-10  1.7210022961646933e-10  1.4726913900892714e-10  1.3864870997842103e-10  2.2141121156415550e-10  4.2966658341332821e-11  3.8276153802180247e-11  7.5346687708762842e-11  4.5319015758183504e-10  2.0005287960700138e-10  6.6300501928945021e-10  4.5227588247866083e-10  1.2254585920722666e-10  5.5134466048683793e-10  3.5980828176189399e-10  1.8657879862293450e-10  6.9765810949465288e-11  9.4166735023253448e-11  1.7595252297473249e-10  1.8839931510450506e-10  4.0242062964566998e-11  5.0361008396368502e-10  2.9445373029968006e-10  3.2310672073104077e-10  5.0585240299868981e-11  3.6155122722194194e-10  2.5415565605870113e-10  5.9189910727957487e-10  7.3050240900982396e-11  5.8705815171225719e-11  2.4200080462786148e-10  7.1050806404520080e-11  4.0806470400401400e-11  1.4241808879701684e-10  2.3552231953033148e-11  6