<?xml version="1.0"?>
<VTKFile type="UnstructuredGrid"  version="0.1"  >
<UnstructuredGrid>
<Piece  NumberOfPoints="4852" NumberOfCells="9430">
<Points>
<DataArray  type="Float64"  NumberOfComponents="3"  format="ascii">-1 0 0  -1 -1 0  0 -0.9999999999999999 0  0 0 0  1 0 0  1 1 0  -1 1 0  0 1 0  -0.5 1 0  -1 0.5 0  -1 -0.5 0  -0.5 -1 0  0 -0.1608775713298009 0  1 0.5 0  0.5 1 0  0.1967448868031411 0 0  -0.340536378502472 -0.1756701909557858 0  -0.336639361138628 0.2241004727357307 0  0.1739018655305097 0.3458758987676138 0  -0.1849200434897424 0.5547614957651033 0  -0.5036946914486257 -0.5374248858773752 0  0.4904509890205871 0.256870280015296 0  -0.06435157579817397 0.2008986498950406 0  0 -0.5061325913258391 0  -0.25 -0.9999999999999999 0  -0.5613158874191906 0.5772275217818702 0  0.6615115599783586 0.6338023773979639 0  -0.1770407493715301 -0.5375787010248717 0  -0.5386978487156877 0.02540730848763965 0  -1 0.25 0  -0.2060134313796019 0.0237699251500067 0  -0.6543794427387015 0.3093387049420595 0  -1 -0.25 0  0.0391766160293215 0.5914639912079593 0  0.1950398528084459 0.1287164089709949 0  -0.1363672326691812 -0.2197644004679788 0  0.37104060914291 0.6141795567518094 0  1 0.25 0  0.5355652144809806 0 0  -0.75 -1 0  -1 -0.75 0  -0.6449347742360406 -0.3229848856302723 0  0.25 1 0  -1 0.75 0  0.02757118475249542 0 0  -0.25 1 0  -0.75 1 0  1 0.75 0  0.75 1 0  0 -0.02898318711980711 0  0.05418210480204731 0.1421521553461651 0  -0.07764926128079165 -0.02777024612031883 0  -0.7009869222812507 -0.1323694300774617 0  -0.3215748254443643 -0.3471822520628705 0  -0.3399956674369834 0.4371001380848223 0  -0.09988129170590454 0.7640702841793581 0  -0.3830225393714602 0.7025435718073246 0  -0.05477777895218183 0.3986695736210408 0  -0.07888560251382125 0.07192120586521494 0  0.3588869816645573 0.3692981419305928 0  -0.7161262424262327 -0.7300801191255252 0  0.4118036930537143 0.08981805144107829 0  0.6899353475724069 0.1915849428918907 0  -0.7474014481876635 -0.5270797546625594 0  -0.3876075485898283 -0.7105599484786645 0  0.7215462989799187 0.4185644054824951 0  -0.7759565669889097 0.09700309762206027 0  0.1968015008899064 0.6984635849878269 0  -0.1985563798476567 0.2882845807434785 0  -0.7988654048741191 0.577517832101973 0  -0.7169508055793058 0.7663609887153914 0  -0.05099494378353984 -0.373163268938374 0  0.5847698010613046 0.8166520681188255 0  0.8204960523122597 0.806238683827689 0  -0.1060205630273544 -0.6973472590481119 0  -0.5142554242581282 0.1626585167325725 0  -0.2016988979830411 0.1255313013606422 0  -0.3589754105089659 0.07526186527944251 0  -0.3649519308709435 -0.05229148439938575 0  -0.4965008029949427 0.3948577450108257 0  0.375 1 0  1 0.125 0  -0.01188052085572702 0.07121422542668114 0  0.06210824175916388 0.3915999541579057 0  -0.1713058966546581 -0.1223053727687533 0  -0.2428694054838487 0.7735525897189246 0  -0.625 1 0  0.5334129239035253 0.4540653729223235 0  -0.5760378911950143 -0.8301050156606395 0  -0.2578458639088331 -0.7835704554349323 0  -0.3198335800816122 -0.5083040907248543 0  0.8339991309139027 0.595279769242586 0  -0.5486385745517784 0.7907933257109376 0  0.125 1 0  -0.06741155727181061 -0.09338125111360451 0  -0.4944267945760373 -0.1431712950193011 0  -0.875 -1 0  0.0295332104082487 0.04160450584215006 0  1 0.375 0  -0.875 0.9999999999999999 0  0.0573472904810876 0.7938512440728303 0  -0.1963319349361861 -0.3734328679848223 0  -0.07277532897295713 0.5708514295746386 0  0.2364452607443332 0.5176499128423265 0  -0.7921471153687161 0.2294348835983132 0  -0.4950122063009783 -0.388999381941806 0  0.0001087540772537248 0.2709507193456714 0  0.5099344916413125 0.640038848576302 0  0.398912338572577 0.8072420591797002 0  -0.8060115782503401 0.4245073059264468 0  -0.06434485892575195 -0.2205009910547836 0  -0.7094669485434667 -0.01415743518024773 0  0.09048970997393423 0.05244211183256996 0  -0.4780333651675436 -0.2512099766410199 0  0.7238575786521921 0.08285305914749068 0  -0.8085741250036493 -0.4110613007090778 0  0.3374742802108028 0.153454796910145 0  -0.7943814806822497 -0.2508210333492096 0  0.2362718380618038 0.254104848453326 0  -1 -0.875 0  -1 0.875 0  0.1842865570732123 0.04785783483427518 0  -0.2474210937895403 -0.2289720341723371 0  -1 0.375 0  -0.1709574930695694 -0.04173195621375153 0  -0.6487627953245599 0.4673673870165271 0  0 -0.07736776745332727 0  0.08039822259970687 0.2597275481564232 0  -0.375 1 0  -0.216807895277614 0.4245529268128387 0  -0.1199945662559446 0.150069540015091 0  0.1332634470618407 0.5539313758407312 0  0.1318958216125394 0.193648764839693 0  -0.4745653814983075 0.2693728784036807 0  -0.04617090733050168 0.01394306217664005 0  0.851359552461553 0.3702527856228405 0  -1 -0.125 0  0.2855891765122204 0.8368406035485784 0  -0.1107030723334224 0.3128710554870314 0  -0.125 -1 0  0 -0.7575037395175259 0  0.07821397079968176 0 0  -1 -0.375 0  -0.375 -1 0  -0.625 -1 0  0.7474787146812756 0 0  0.625 1 0  0 -0.2918843213980812 0  -1 0.625 0  -1 0.125 0  -1 -0.625 0  0.3284075310660084 0 0  0.004929205892015135 0 0  -0.125 1 0  0 -0.006571003003944568 0  1 0.625 0  1 0.875 0  0.875 1 0  -0.5625907390613957 -0.6764254736929362 0  -0.004704092749844465 0.1601627516994355 0  0.3623399294085037 0.2628569253562944 0  0.6529572879442431 0.2938240105734825 0  -0.8546589424157212 -0.6468165111689426 0  -0.8637561037977022 0.7874393102608462 0  0.4304294669279689 0.5012123080967587 0  -0.3983605127000695 0.8558269187698777 0  -0.7789660148174109 -0.8747983919567719 0  -0.8705063030081827 -0.7845674533949117 0  0.1542771075146553 0.8421378450191356 0  -0.6583907034001986 0.1527141304700529 0  -0.5774878854800886 -0.06416502044482596 0  -0.8545340332504984 -0.06251236562689977 0  -0.2958497014884438 0.5620445395381415 0  -0.4235751763753087 0.5698107666912228 0  -0.3759009868271919 0.3309534283892845 0  -0.6182331044084007 -0.2163187157432484 0  -0.2727068874843973 -0.08998550134554786 0  -0.6400218382854492 -0.5886239670750792 0  0.8596833810970202 0.2659825925607993 0  -0.0327997344052776 -0.03291567406197893 0  -0.05474637780601611 0.1145460769143423 0  -0.1336539085599927 0.4318770677964864 0  -0.1197188334087642 0.03240069038466662 0  0.5377563044124354 0.06459190159911327 0  0.5792492220969266 0.3592932477481887 0  0.6914622630878738 0.7749622220101782 0  -0.7939939264340081 0.8812602484108054 0  -0.6432251737205515 -0.4291659959315116 0  -0.1172707948422429 -0.3967081334857372 0  0.8721548560765706 0.4887943978967949 0  0.07592536685735793 0.09384214714077202 0  -0.6648222506460663 0.8683114051259934 0  0.4546073902347371 0.3505283559247651 0  -0.0263080308117705 0.03584968699472821 0  -0.4090177007946838 -0.4402432561912905 0  -0.3617806073834746 -0.2687260633214844 0  0.3235380841541338 0.4816834632605338 0  -0.1959718100430598 0.2014145444206276 0  0.7056768493280279 0.530864381434736 0  0.2617662300314851 0.3559829992329807 0  -0.3767841003044587 -0.8517639052176742 0  0.1092142015078432 0.6819227292385751 0  -0.285109849938738 -0.6118714116717121 0  -0.4412469221653128 -0.6200676455293038 0  0.2962541835215659 0.6922896766569087 0  -0.8748347599874206 -0.1747798505392669 0  -0.1800700891832707 0.8549595715377151 0  0.454702492307352 0.1633692604413299 0  0.2802564596453473 0.04667846660247577 0  -0.1422823280192774 0.6574049911095977 0  -0.01136157877125755 0.7085734505751899 0  -0.05333507785042329 0.8750448911938802 0  0.005414084098596411 0.4697412714680416 0  -0.3875782654476718 0.1534679003513266 0  0.5491539188407446 0.1332173240217824 0  -0.4758650610508083 0.682458772704662 0  -0.8514612781502109 0.3329422116157192 0  -0.09194003556499952 -0.536202180401438 0  -0.02576253934587666 -0.5523152917852884 0  -0.213707223789092 -0.2875389091448479 0  0.8684869915015845 0.1515762008235766 0  -0.1704459179479082 -0.6609426155641488 0  -0.8892314377051408 -0.5285871983441894 0  -0.2816171045443733 0.3382632317822006 0  -0.6763438189992096 0.5742267758016286 0  -0.8974313578866273 0.5315793230775699 0  -0.8984928360702298 0.6611998799369769 0  -0.6442953676918936 0.07238785956141952 0  -0.859135396000033 0.02861077965063908 0  -0.8881493362817158 0.1678829719549148 0  -0.1301063042135452 0.2289246159514765 0  0.1603751305903996 0.4461511663723821 0  -0.04355147979855285 -0.1257695504538257 0  -0.753609787142603 0.6701580182217576 0  -0.6026285247376942 0.6979909702037468 0  -0.254329762086088 0.07853873213655756 0  -0.2493242891165581 0.6488075912565459 0  -0.02741715058455964 -0.006334467075198867 0  -0.4945120266647036 0.8770246227994495 0  -0.4768982183043124 0.4905337933590811 0  -0.2903551618238749 0.1440342658854236 0  0.0022542860326208 0.02363734803863107 0  0.7795906850138894 0.6838294126168309 0  -0.4699065578484736 -0.8247854040096217 0  0.2718832335162009 0.1949688086208618 0  -0.1490257864231782 -0.863320381182106 0  -0.06510725507459374 -0.8295941635044289 0  0.4434048694678802 0.7060415345408728 0  -0.1176162092223842 -0.2880579031343352 0  -0.26482993428995 -0.02613074078429178 0  -0.8940342769110844 -0.8966120831742322 0  -0.5728211210980627 0.2372609275104696 0  -0.4760289901611136 0.08759330628535483 0  0.4913414743664643 0.8259320541081683 0  -0.02844636723197434 -0.2604300329505694 0  -0.3101431788815074 0.8754506545688642 0  -0.1429880791548367 0.08053031133338198 0  -0.4692145741554567 -0.03485245916283086 0  -0.3879069512808369 0.01215276289538539 0  -0.2916724796991829 0.0275918441669115 0  -0.3848585384751916 -0.1203896209224747 0  0.8882238492492261 0.6982574700548715 0  0.7930451656833277 0.911052591970152 0  0.5766411189286067 0.2079532321846837 0  -0.5599567715573041 -0.4694048096252622 0  0.5989524747156213 0.7061214336340376 0  0.6783554236223641 0.888575262325947 0  -0.05106917093193503 0.3031194185129079 0  -0.9024840625641543 0.9049039245482222 0  -0.1274632719283394 -0.06707469408849238 0  -0.1690355842742956 -0.1824723033612473 0  -0.2523081957039112 -0.1436278363919344 0  0.03702892384798966 0.2016079096623417 0  0.9020671188316469 
[...]
<PointData  Scalars="w"> 
<DataArray  type="Float64"  Name="w"  format="ascii">1.7380180393863335e-10  1.0209242973965591e-11  4.4444022213639299e-10  2.6543615211138455e-09  6.2433534071836362e-10  1.5446556602924304e-12  8.6253203090687559e-12  7.4719872167638483e-11  4.0341186605233759e-11  2.1156955558908958e-11  1.0779554233499585e-10  9.6129073031041280e-11  4.0401221664506845e-10  2.7587106397403216e-10  9.0686596146296141e-12  5.2537905872955920e-10  9.0949986401470726e-11  7.2268125554490516e-11  1.3089342438668919e-10  3.5635796124343921e-10  6.7073655065785458e-11  1.0395603698188272e-10  5.7403424650832137e-10  1.5852220624745472e-07  5.7650602826561464e-10  1.0873547500704419e-10  8.9120605962721670e-11  1.6994352673584107e-10  7.6690816693506392e-11  1.8832001896367621e-11  4.6901774500170728e-10  9.8196501152618181e-11  2.4330644536317493e-10  1.8138410906606889e-10  4.5496747484343229e-10  2.2541158036216656e-10  7.8326591536630106e-11  4.7875632332143875e-10  5.8715811915019710e-10  3.0981406982380430e-11  5.1665762025979666e-11  1.0836431609434468e-10  9.2353897439784315e-11  1.9213723837779596e-11  1.0497597436916221e-09  8.8252295226254337e-11  3.1827625601585402e-11  9.5441961942292782e-11  1.2604905720592608e-12  5.8944792407930665e-10  2.2074290266465145e-10  2.1360935372018724e-10  8.2574890964706173e-11  2.5237775451733974e-10  2.5924851505510906e-10  2.0598583993295314e-10  3.5903103934444115e-10  8.9140940755921589e-11  5.7811500068257085e-10  2.5197185614235840e-10  3.1393370007707793e-11  3.1480102215619256e-10  3.7862672746900085e-10  1.4378104165509393e-10  5.3895430806650404e-11  1.7822030074060256e-10  7.0515024425238873e-11  1.7945540113160391e-10  2.3364793063306495e-10  4.5682998034419957e-11  6.4964999146260161e-11  4.3047646009157013e-10  5.6834281750933510e-11  8.8104792942039563e-11  1.7667768279462045e-10  1.7053532291899036e-10  2.5645984148679229e-10  2.9029917509770468e-10  1.8310398476299865e-10  1.9629338488067189e-10  6.4753196422265162e-11  2.5195026256628728e-10  2.6264258792275245e-10  2.0102534569728192e-10  2.3400067894888148e-10  1.2514431795422601e-10  4.5825375603767864e-11  1.0997643808138188e-10  9.5003905019687500e-11  2.5187031772836838e-10  6.8886050777815496e-11  9.9671023318125643e-11  7.8360277057158878e-11  9.4324429187617948e-11  3.8904868110177571e-10  2.0993303412406517e-10  2.5242150465760528e-11  6.5313135999974518e-10  2.5722146503900035e-10  3.1093746839387747e-11  2.7784838672506916e-10  4.1310370166224089e-10  7.1229762807029731e-11  9.6897119974893169e-11  1.5684664111899918e-10  6.3673555977738679e-11  2.7440752371625733e-10  8.3707630470273429e-11  1.4794355013709656e-10  6.5968603999572905e-11  3.1144137775142594e-10  2.4834512363353948e-10  2.3166442162781002e-10  6.4564217919076760e-10  1.2127379596756376e-09  1.4857270273334690e-10  1.6515933171823295e-10  1.0206109116843099e-10  4.5913961808690773e-10  2.5721662557432742e-11  2.5329862843776508e-11  2.7800605154743855e-10  9.1261225870598476e-11  6.1210397562533511e-11  5.0199039292049559e-10  5.7301674177994917e-11  5.9715238000211045e-10  1.1831109936923088e-10  7.6919719710556693e-11  8.2520912412981462e-11  3.4202681331391711e-10  1.7268845192184910e-10  4.6566962278778764e-10  1.3460051337246677e-10  6.2173206645832591e-10  4.4556662348559562e-10  1.0886662564691122e-10  5.1922735610342209e-11  1.3017045621069767e-10  2.5804673414269366e-10  2.5194368951453980e-10  6.0386755556879397e-10  9.2947814430587774e-11  1.1884132255903828e-10  6.8034703497322585e-11  6.5628322258500808e-10  8.5411005247391236e-11  3.4291847827239844e-10  1.4697761988226298e-10  1.2382629351339916e-10  1.9874048111545592e-11  2.8318170919563692e-10  1.5829096335732340e-09  5.6828873240987143e-11  9.6314999411505324e-10  7.8494949610416097e-11  2.3717407921095438e-11  2.3560598966945676e-11  1.2262827781472413e-10  5.5947591689808742e-10  4.4405698134331149e-10  1.6114265630290393e-10  1.1507579787102487e-10  1.6585070876888539e-10  1.8800615606149652e-10  5.8378354932511739e-11  7.7796828946473263e-11  2.0168736803259222e-11  5.9873981561112889e-11  2.9616385421166554e-10  9.1909986208129086e-11  1.0618900602288248e-10  8.2354652853284018e-11  9.6561574619256944e-11  5.3189611504844200e-11  9.5728398065786612e-11  4.5640393907562419e-10  5.6895766145994041e-11  1.6412638497579665e-10  1.7161390521820398e-10  4.6366673715474578e-10  1.9874529802391955e-10  2.8247355206368033e-10  1.4281289588042340e-10  1.4525388895095225e-10  1.5165962942690291e-10  2.1166050753560553e-11  2.8891178925638862e-10  6.6229820671854408e-10  2.5442589951618927e-11  2.5087648037078878e-10  8.9536009336433805e-11  1.5819888249786251e-10  1.1105328029276374e-09  1.3706586243973513e-10  1.6356225453795903e-10  2.3488703464142804e-10  2.8773796052673454e-10  1.0611767514680534e-10  2.0483536348470990e-10  4.1936082808747732e-10  2.2025229684625651e-10  2.3956326231336107e-10  1.1041701992928694e-10  1.1282854011874878e-10  1.1312038617709558e-10  7.1340172048844296e-11  2.0870325972037202e-10  8.8446296146367512e-10  7.8117804551876600e-11  1.0807891661085834e-10  7.7898702376385762e-11  9.7119368584971447e-11  1.6221825014103388e-10  3.7771566057144957e-10  7.9868562663040929e-11  8.5229591696347099e-11  8.3199804886589818e-10  8.2461059295693272e-10  2.9225889391774395e-10  1.9972420904683996e-10  7.6572786378885407e-11  8.0962058796490102e-11  3.3795219786803967e-10  5.8737299683134819e-11  8.3783999272060461e-11  5.0058813685182523e-11  9.3585389136215364e-11  4.1518732774910547e-10  9.0449329615292821e-11  1.9712753842463736e-10  1.6658756633730039e-10  9.0162641726321865e-10  6.1790214502178644e-11  1.9996603443685797e-10  1.1532946965444205e-10  1.1247485391668483e-10  7.4967971674429107e-10  7.5467382623030240e-11  8.5560404516061971e-11  1.1786590910775735e-10  1.1157689461257354e-09  4.0997581341109710e-11  7.7556329707145470e-11  2.7904433131624671e-10  2.5449543186302251e-10  3.5392089505743183e-10  1.8413272634362556e-10  2.0486027714829922e-10  4.0506898946807590e-10  2.9227109874068057e-11  1.0559418530263362e-10  1.2844771444055075e-10  3.7609995174010725e-11  2.7453497188901178e-10  4.3461314472505903e-11  3.3441959952887736e-10  1.3582863208297678e-10  1.1035425348550578e-10  1.9115115101685601e-10  5.0432673954703094e-10  7.3579608941213456e-11  2.6855293934145769e-11  1.4460306178100915e-10  8.2426842863141662e-11  5.9716598266567123e-11  7.6169823596891166e-11  1.7907557019104629e-10  4.8302093803679058e-11  2.6385466046437573e-10  2.5439253539400986e-10  1.2856644525737560e-10  1.2875532753804919e-10  1.3494465711553638e-11  7.1385916765147760e-11  1.4659151430263438e-10  1.6895464746629538e-10  4.9777728060510980e-10  3.6839356276585934e-11  8.2218501807668542e-11  3.3211542879449147e-11  2.3824636375694205e-10  1.2572241273275045e-10  1.8586498154716521e-10  7.5293502069210588e-11  8.8203743450055528e-11  1.2077265903918931e-10  2.0295286577036318e-10  2.2435578121704734e-10  2.6107845609124172e-10  4.3812739172746892e-10  2.1466055679539257e-10  2.0972674057384025e-10  1.4569262219507805e-10  7.9708020323220834e-11  1.7002770427672769e-10  1.6505962999923458e-10  6.2585017182224218e-10  1.3039018482939803e-10  6.2166870359515952e-11  4.0695092757019343e-10  1.8952180916558066e-10  2.0865027686775936e-10  1.2833079348880783e-10  3.2557276858224882e-11  4.4873448429327885e-11  9.8648602526830024e-11  6.8030155651108932e-10  2.9338187099624613e-10  1.8079386480640407e-10  1.3692465344395429e-10  3.3505496979460145e-10  6.7303593594269677e-11  1.0924378776409281e-10  3.5338114046751538e-10  1.7522609048315530e-09  9.9335088215875190e-11  2.8238475830713049e-10  6.1376824097734073e-10  1.2285447016202742e-09  1.9807846255742875e-10  1.5256859724805192e-09  4.1848538594472353e-10  2.2607841928729728e-10  1.1566385210870473e-10  4.1664445896804271e-11  6.5949335335735653e-11  1.2667640921159149e-10  1.5641765567821103e-10  6.3523353972507348e-11  9.8598120655710558e-11  1.0715497264070248e-10  1.2751230045246799e-10  1.9235181785928703e-10  4.9728002512652345e-10  3.1872120603288560e-10  1.6661901048533969e-10  9.6181924901465719e-11  6.1777999706119609e-11  5.9418126522908729e-11  7.0939255961162241e-11  1.8248655309429637e-10  2.2756491641219199e-10  1.0630256318206359e-10  1.0593200803223095e-10  2.3904637561965744e-10  1.3688793931041866e-10  6.9911035296086383e-11  5.9507472310415006e-11  1.0539299143096358e-10  3.4162104576870914e-11  1.8757618242652642e-10  3.3138339704339754e-11  1.6104167772297607e-10  1.7973471629511247e-10  1.5217337992634700e-10  4.0038649072679897e-10  7.9470881770813678e-11  8.2913690882287435e-11  1.4559192720361960e-10  3.1029515084769413e-10  1.4355242997467809e-10  2.6349632218947591e-10  1.1083556461225820e-10  1.3624624878339753e-10  1.5787516885759426e-10  2.7857569651469337e-10  1.2759898226634763e-10  3.3766975627067110e-11  1.1832662570320493e-10  1.1241297502129997e-10  1.4836486399733918e-10  2.5430144468659953e-10  1.7179120240787324e-10  3.5006814039691531e-11  1.2978026512620375e-10  2.3179994282007751e-10  2.8599342774762980e-11  3.3038190941882986e-10  1.6363496200517760e-10  3.8913074201010965e-10  1.1269327488106594e-10  2.3768174930925082e-10  3.2529774170683226e-10  7.5761539135921254e-11  1.0589852784475226e-10  2.1954361342788868e-10  7.2960982294666586e-11  4.8275386832372933e-10  1.5931881701107668e-10  9.8498988674377457e-11  1.0919694482012818e-10  2.1060580411719510e-10  5.4254597662411972e-10  4.7672615262340464e-10  1.7961777631596395e-10  1.7284324380847820e-10  2.0910944256895413e-10  4.0200944357811153e-10  4.5543604545042235e-11  2.2655823139880366e-10  8.1918880481397584e-11  1.2417692148381450e-09  1.1814723072034302e-10  4.6087253748451239e-11  5.4900386924546843e-10  3.3162218426117267e-10  2.4711940049608538e-10  2.1218443858095722e-10  6.4028875489417346e-11  1.5367395297849191e-10  3.3682503864473292e-11  4.3859828353268357e-10  8.2096367865673226e-11  1.3722354514229605e-10  1.2787290823502558e-10  6.6349806489625950e-11  3.4885909250771497e-10  4.3054806635038710e-11  1.1804221401685123e-10  2.4471625513131081e-10  1.7882831171386047e-10  7.1245352699078576e-10  9.3114401222417302e-11  5.7605757110232746e-10  1.4836867288090789e-10  3.5389521031203460e-10  5.5148319125638890e-10  2.4362281079677949e-10  1.5486809262789353e-10  2.7224509967086003e-10  4.8049828744602162e-10  3.4655091023560490e-10  7.5154397777540307e-11  4.9575132139743065e-11  1.6355875176582605e-10  3.5712510330430528e-10  1.8718893835730201e-10  1.2682495402776017e-10  1.7144741118992038e-10  8.1579555895116335e-11  7.1583904716287143e-11  1.9973343054940951e-10  5.8253030230415215e-11  2.0779682361990081e-10  9.0944847182599071e-11  4.8046925598226021e-10  4.9914846080731364e-10  8.2178746851549516e-11  4.1571647787481384e-11  3.9791352434139255e-10  6.4859447473756187e-10  2.5863503788207175e-10  9.8541814749146904e-10  2.8785336458329008e-10  3.1693343909592626e-10  2.7267774284038147e-10  2.6585594279085482e-10  9.7792236814103589e-11  3.1054476661454638e-11  1.9457276036468051e-10  1.0576066252770861e-10  2.1526533432560432e-10  7.5514307121862152e-11  1.2472930123804725e-10  2.0527296387660540e-09  1.7697284093407338e-10  8.1021355605009912e-11  8.3051636776756847e-11  4.0006267853620817e-10  2.4249713971217281e-10  1.8971379605911436e-10  2.0808827058551708e-10  4.4770278125193058e-11  7.5482569011315686e-10  2.4232719565483158e-10  5.3537297161201348e-10  2.5057588578524669e-10  2.4195453634409923e-10  3.1294037184968959e-10  9.4486452454197606e-11  3.2850660721989051e-11  3.5688434448816991e-11  3.6844412497960611e-10  3.5380688108778737e-11  1.1602514436207302e-10  1.0219998995980092e-09  7.5198416781489701e-11  3.5037960077247136e-10  2.6342402122585285e-10  6.2198818702636479e-11  6.0104410680910941e-11  1.7946163844130173e-10  2.4524231346066170e-10  4.8616388137725202e-11  1.1308513992163855e-10  1.6171214615932061e-10  7.5837062767561509e-11  1.7084826795634928e-10  2.1240176035858730e-09  3.9225375049254891e-10  3.1949431318263140e-10  1.0702562442200079e-10  1.0810510737316472e-10  1.8752754654937442e-10  7.9930744820174928e-11  1.3424590058136542e-10  4.9800433735236902e-10  8.6860156118157488e-11  2.4233550606042957e-10  2.1656914644359480e-10  1.3910192914574285e-10  5.0986008129222833e-11  7.7049643000614727e-11  5.4791246164052121e-11  1.2180025516738371e-09  1.0647540490581018e-10  2.2040885395583631e-11  5.7077557973436545e-10  3.0410655371410233e-11  6.2152343911793715e-10  1.1646608881151747e-11  1.7141916472181103e-09  1.7539499967791897e-10  2.4751050735653978e-10  1.0475149670446665e-10  2.8371314740554456e-11  8.5508880921016508e-11  2.7889802399327498e-11  2.0635586358783011e-10  3.7272704990249030e-10  2.7117186544558756e-10  3.3022504597442368e-10  1.3563238659910409e-10  9.3954134390178850e-11  6.2810210349463717e-11  3.6178478224292113e-10  5.0402282462966602e-10  1.0589018903820169e-10  1.0061643782395942e-10  1.4657874304551942e-10  7.6491505924914505e-11  4.5670223886756437e-11  5.3803701223917535e-11  3.1321559010914121e-11  8.8288863076997076e-12  1.7609916570759645e-11  9.7402312218070993e-11  2.1429272441316553e-12  1.0532192296017352e-11  1.8618788611019347e-10  3.4878224620845413e-09  2.2390062271392049e-10  4.1942813104881359e-11  2.2083300043553606e-10  9.3676664955789614e-11  1.1278839294674759e-10  4.4046893607605986e-11  1.6803606048122664e-11  8.6509871589153462e-11  7.3078773646126321e-10  7.9557276810581720e-11  1.8391388802759413e-10  3.2466947066638564e-10  4.8797487231019841e-10  9.6309234598857372e-11  1.0197106905051397e-10  5.8353948065758263e-11  7.6783962557526691e-11  1.1147127184206612e-10  5.7618945649920818e-11  6.2156154521508653e-10  5.9301124663416992e-11  2.7733473862040629e-10  8.7827455642373090e-11  1.2787969219606939e-10  3.1239414885418153e-10  4.1532475971462132e-11  6.2633142405010646e-11  2.8614497002950752e-10  1.1826132431586237e-11  1.1372508237989009e-10  8.8207379363677146e-11  7.6486408120622197e-11  5.6194570284750493e-10  1.6148074766528793e-09  3.1368252089663256e-10  2.8896677683000521e-10  9.0673776312669209e-11  6.9834538678237594e-11  2.5516587470258554e-10  1.1800720166183532e-10  9.9469832504924294e-11  1.0448898064355554e-10  1.9943644315597985e-10  7.4354486429034400e-11  5.2474699632044227e-11  7.0116216151829595e-11  3.9666899078829011e-11  8.6732794358985391e-11  1.9113048064913837e-10  1.6229333797648405e-10  1.1164803752952145e-10  2.7780720167426090e-10  4.7196268620794630e-11  1.3661924095120620e-10  5.2164558498280067e-10  6.6539899651694682e-11  1.1727388964412703e-10  1.4148024735072956e-09  5.8541294304470239e-11  3.3649228549830729e-10  5.1083516035542412e-10  1.5780672110936544e-10  1.2828110324065628e-10  1.2592588186191033e-10  8.9404802433116217e-11  2.4879103852582348e-10  2.8573905036996883e-10  1.7781558882061158e-10  4.6715247754928405e-10  4.2357830523090715e-10  1.2205148821402385e-10  2.1124826619788922e-10  6.6919827239848809e-11  8.5070023352537880e-11  6.2627229856097481e-11  2.3986880220156927e-10  4.0088354106123738e-10  3.0793835029228671e-10  3.2466242736507278e-10  8.6127969084892255e-11  2.2702991210581162e-10  4.7808315955936407e-10  1.7211481198333004e-10  4.8243479268522844e-10  1.8323962048904936e-10  1.3812133629856201e-10  1.1152140195423026e-10  5.1308664620872261e-11  5.4543119868901493e-11  3.3168353944108428e-10  6.2910419012040889e-11  6.4673774280742853e-11  1.2990161836824243e-10  3.2138664404333601e-10  3.2088275223759545e-10  1.5748513916729876e-10  1.1749074862196824e-10  5.9087747370121761e-10  6.2766216211803358e-10  1.6002857665509381e-09  2.6832834635723905e-10  1.9900227512733534e-10  4.4330226626832763e-10  4.5532275483681257e-10  1.1695700526281527e-09  2.9676534461847886e-10  2.4714872227492557e-10  3.2887602986004073e-11  1.2952303405846617e-10  3.3408980959589157e-10  5.1686396664606594e-10  2.1345068761143639e-10  6.6403336574410152e-10  3.0598484031808213e-10  2.1195877806519696e-11  4.8183049511370157e-10  3.3356954528195858e-10  3.8720941002249986e-11  3.3339270179966672e-10  4.1372035606396491e-10  5.4342969499496003e-10  1.4558459558143138e-10  6.7300707994738268e-10  1.9523546657847749e-10  4.7338329845281062e-11  1.2721348540668747e-10  1.3270289712769410e-10  3.1458551051250022e-10  7.8723161907975152e-11  2.6567416630030080e-10  1.9517880900672402e-10  7.9738228128753579e-12  2.4434059621784330e-10  5.8060004330786406e-11  9.0326105151182450e-11  1.2431343053451456e-10  6.3030468685414382e-10  4.1244789404254634e-10  3.0376261710262302e-10  1.1710697906197637e-10  1.3260825324864973e-10  8.9766599974154517e-10  5.3977479252282159e-10  1.3508401470215771e-10  1.4231402236279969e-10  9.2985534723096335e-11  4.8845314271245244e-10  1.3950698660054811e-10  1.7505385724368253e-10  9.5278506359834627e-11  7.0538298588482146e-11  6.3524922355620341e-11  1.5042258295866308e-10  9.7893681077621862e-11  1.2972689880461474e-10  4.3586451906414125e-10  7.6796544723749255e-11  5.9691690133087155e-10  1.2776335515562179e-10  2.2408479170785169e-10  2.8177437556958308e-10  5.4939590059932784e-10  1.1598226417449039e-10  4.1087007329425546e-11  6.2781957402212980e-11  1.4180006119388221e-10  1.5869560984008396e-10  5.1839470086100388e-10  8.4028462173687867e-11  1.6191833437428659e-10  2.5139623798167846e-10  1.3704682230326147e-10  2.3639689000678095e-10  3.3116252129065966e-10  3.1200958377028565e-10  1.0562084896420426e-10  1.7546946248430146e-10  1.4919940275252114e-10  2.2820704300789633e-10  5.3309935728954336e-10  3.7467236598940097e-10  2.0217799769444547e-10  2.0557535421266164e-10  1.2540746280284088e-10  1.7184389476853359e-10  2.9989970199217902e-10  3.8184615598952527e-10  3.6210732825359648e-10  1.6566545858636720e-10  2.1970219941218830e-10  1.9430000854412524e-10  1.5395026419780643e-10  3.9957051631916372e-10  3.1446935416584939e-11  1.0579640534359379e-10  1.2681331502481088e-10  1.1424605873408058e-07  4.0732467055197071e-10  1.7742255876732720e-10  6.1179095773015304e-11  2.5696929522791809e-10  1.3857983914890902e-10  6.4481417164228171e-11  1.0563039720936180e-10  2.0291364031833253e-10  2.0632576248916103e-10  1.9504801290723968e-10  1.8977490987929528e-10  3.0862344914345068e-10  6.5164649886769204e-11  8.0264674988604482e-11  1.9199953490813268e-10  1.2243214454152476e-10  3.5304940619574078e-11  4.0319566134676379e-10  6.4538841118703327e-11  6.1948887386547175e-11  1.9389472553500170e-10  9.8983487316774005e-11  2.3767749159903224e-10  2.9332078701632022e-10  9.9645986785176613e-12  7.8172507007096737e-11  1.8744422476388758e-10  9.6279517677120034e-11  3.2381850308525318e-11  9.0164647026682704e-11  5.7986439880348917e-11  7.8378824208918640e-11  2.2541665572419629e-10  4.7281575343373330e-11  6.6155373634146583e-11  9.4374730007487907e-11  9.3584841891450864e-11  9.3898280039490064e-11  2.5326032487967553e-10  8.7633396870068074e-11  1.8368870377468163e-10  2.0148144026021121e-10  9.8719914411993949e-11  1.6074652131769507e-10  3.1545780796249660e-10  1.2408885774173393e-10  6.1492185248656153e-10  1.7137479223937157e-10  1.4948488349257224e-10  1.3858602741609578e-10  2.2802616711551195e-10  4.4007727911234556e-11  3.9897485220580074e-11  7.6973041517126123e-11  4.3668793689481826e-10  1.9950471401821695e-10  6.3715150751174789e-10  4.4265447720626491e-10  1.2135145948199922e-10  5.4788852350174058e-10  3.6510154257601418e-10  1.8924979618775863e-10  7.0904915337790805e-11  9.3511841927107383e-11  1.7426408375628021e-10  1.8768922922449849e-10  4.1186683105848216e-11  4.8311067273724765e-10  2.7749963962878504e-10  3.0761244805215477e-10  5.3119645862475823e-11  3.5305556999340027e-10  2.6657473494999837e-10  5.8172033243689162e-10  7.3633309947761379e-11  6.1513667723750911e-11  2.3943573742706789e-10  7.2687033380423643e-11  4.2481335441108389e-11  1.4746161981118773e-10  2.4171160942289586e-11  6