<?xml version="1.0"?>
<VTKFile type="UnstructuredGrid"  version="0.1"  >
<UnstructuredGrid>
<Piece  NumberOfPoints="4852" NumberOfCells="9430">
<Points>
<DataArray  type="Float64"  NumberOfComponents="3"  format="ascii">-1 0 0  -1 -1 0  0 -1 0  0 0 0  1 0 0  1 1 0  -1 1 0  0 1 0  -0.5 1 0  -1 0.5 0  -0.9999999999999999 -0.4999999999999999 0  -0.5 -1 0  0 -0.1608775713298009 0  1 0.5 0  0.5 1 0  0.1967448868031411 0 0  -0.3404280983698004 -0.1757786839482959 0  -0.3365923858196702 0.224118111383615 0  0.1739526804881932 0.345872395323943 0  -0.1849446056528899 0.5547556590881457 0  -0.503569843261764 -0.5375274429996805 0  0.49048890277017 0.2569822193082978 0  -0.06428875901689018 0.2008501186488815 0  0 -0.5061325913258391 0  -0.25 -0.9999999999999999 0  -0.5610873909526972 0.5772755331348604 0  0.6615188763445142 0.6338930025709126 0  -0.1764031894596338 -0.5377953921332113 0  -0.5386840090720609 0.0254478489334171 0  -0.9999999999999999 0.25 0  -0.2059574332827232 0.02375801198938735 0  -0.6543245422161816 0.3092673033201681 0  -1 -0.25 0  0.0392107936299071 0.5914538634330925 0  0.1950670934467169 0.128701225402495 0  -0.1361120616160478 -0.2199017270773076 0  0.3711432598366349 0.6142558219486186 0  1 0.25 0  0.5355652144809806 0 0  -0.75 -1 0  -1 -0.75 0  -0.644850903641648 -0.3231169435619762 0  0.25 1 0  -1 0.75 0  0.02757118475249542 0 0  -0.25 1 0  -0.7500000000000001 1 0  1 0.75 0  0.75 1 0  0 -0.02898318711980711 0  0.05422407035754446 0.1421098016654389 0  -0.0776187653979724 -0.02777659848329592 0  -0.7009675252762009 -0.1323703964896983 0  -0.3212719698042829 -0.3473447998993187 0  -0.3399972641775522 0.4371320738949612 0  -0.09990630343803751 0.7640288453729909 0  -0.3830570122126866 0.7024038819088061 0  -0.0547740607699711 0.3986423224956939 0  -0.07883363201206335 0.07189578540858417 0  0.3589520427262164 0.3693252876997244 0  -0.7159166926674948 -0.7299906236117135 0  0.4118227114965305 0.08984949656881697 0  0.6899511900425634 0.1916415382123446 0  -0.7473271262295204 -0.5270575069009102 0  -0.3873625998682619 -0.710581278069836 0  0.7215765688286064 0.4186702372686187 0  -0.7758686910409587 0.09698750414367313 0  0.1967846870729197 0.6984385510031932 0  -0.1985426315660669 0.2882613180824843 0  -0.7987774355570774 0.5772950546469886 0  -0.7165318063706361 0.7662341942871127 0  -0.05331402008201509 -0.3733491871620613 0  0.5847202960633631 0.8164412794721634 0  0.8203310901293678 0.8058971534637828 0  -0.1049355760529367 -0.6973426741647396 0  -0.5142844939475297 0.1626196302560067 0  -0.2016464238020525 0.1255015717376028 0  -0.3589433829136288 0.0752788076264424 0  -0.3648908749012335 -0.05235662875831121 0  -0.4964294787765572 0.3949020448859053 0  0.3750000000000001 1 0  1 0.125 0  -0.01184825008773304 0.07117300911916469 0  0.06216989999319459 0.3915691417938501 0  -0.1711904595423645 -0.122372388068459 0  -0.2427924114223124 0.7734969969439036 0  -0.625 1 0  0.5334084883625249 0.4541823312184973 0  -0.5758867523700639 -0.8300546797476491 0  -0.2572579148310232 -0.7835635409711138 0  -0.3194470944139153 -0.5084761774075977 0  0.8339541299180939 0.595344764105706 0  -0.5485281271807529 0.7906557217375416 0  0.125 0.9999999999999999 0  -0.06738069128176391 -0.0933879884292958 0  -0.4943078176100753 -0.1432479679266401 0  -0.875 -0.9999999999999999 0  0.02954838366330024 0.04157700326957025 0  1 0.375 0  -0.875 1 0  0.05735499168611382 0.7937998180315307 0  -0.1958625957143897 -0.3736880336402279 0  -0.07278135448712689 0.5708588401420582 0  0.2365067045194363 0.5176816989029248 0  -0.7921420706170034 0.2293581756040741 0  -0.4948824891806179 -0.3891593062149783 0  0.0001523225033115392 0.2709167222725897 0  0.509966714372302 0.6401093464695813 0  0.3988992232273205 0.8072269754640662 0  -0.8060385788294757 0.424310413455509 0  -0.06427045910160402 -0.220460587965897 0  -0.7094475261117726 -0.01412007215677 0  0.09049770063852937 0.0524230275119432 0  -0.477905532055527 -0.2513161667815476 0  0.7238446776325358 0.08287512415964148 0  -0.8084779306184852 -0.4111095266633529 0  0.3375001825394722 0.1534498716955299 0  -0.7943985037713711 -0.2508110526620556 0  0.2363043155295781 0.2541368333517754 0  -1 -0.8749999999999999 0  -1 0.875 0  0.1842913335600257 0.04783994126443503 0  -0.247189773596448 -0.2291560422748626 0  -1 0.375 0  -0.1708923779920367 -0.04174564010190206 0  -0.6486067249882469 0.4673553667777858 0  0 -0.07736776745332727 0  0.08043201663479968 0.2596847508112887 0  -0.3750000000000001 0.9999999999999999 0  -0.2167284688842355 0.4245777620141641 0  -0.1199425794740816 0.150026912100083 0  0.133275617755144 0.5539567069986393 0  0.1319260400556489 0.1936135470001252 0  -0.4745232553597786 0.269426694436559 0  -0.04613865132250377 0.01392061407493377 0  0.851387094921473 0.3702844714740349 0  -1 -0.125 0  0.2856339784198498 0.8367594513250559 0  -0.1106556723284974 0.3128537282239261 0  -0.125 -1 0  0 -0.7575037395175258 0  0.07821397079968176 0 0  -1 -0.375 0  -0.375 -1 0  -0.625 -1 0  0.7474787146812756 0 0  0.625 0.9999999999999999 0  0 -0.2918843213980812 0  -1 0.625 0  -1 0.125 0  -1 -0.625 0  0.3284075310660084 0 0  0.004929205892015135 0 0  -0.125 1 0  0 -0.006571003003944568 0  1 0.625 0  0.9999999999999999 0.875 0  0.875 1 0  -0.5624923789091716 -0.6764226639834177 0  -0.004668096079618227 0.160110682720491 0  0.3623512470893109 0.2629655392207754 0  0.6529621977412787 0.2939858501687316 0  -0.8546370615084344 -0.6465928511866207 0  -0.8633190106063837 0.7869409858210246 0  0.430540002241928 0.5012837257255156 0  -0.3984655302064864 0.8557865821216999 0  -0.7786756542324785 -0.8748446761782074 0  -0.8704615933669647 -0.7843463806171816 0  0.1541705478122551 0.8421286187456339 0  -0.6583726080489752 0.152707242334948 0  -0.5774187693182083 -0.06410464764302042 0  -0.854467946937296 -0.0625524800883737 0  -0.2958021168487252 0.5620705211463446 0  -0.4235628427776112 0.5698605623967926 0  -0.3758552111297738 0.3309290172944703 0  -0.6181339046289968 -0.2164039013535784 0  -0.2726462260191385 -0.09003511096130627 0  -0.6398789256031773 -0.5886425656025719 0  0.8596890649782664 0.266103674578534 0  -0.03278690721702053 -0.03291871270882382 0  -0.05470197810350569 0.1145006566236748 0  -0.1336384727063172 0.4318737338455623 0  -0.119682313498892 0.03237254554080817 0  0.5377555050735999 0.06461651468835736 0  0.5792340878361318 0.3593755534666493 0  0.6913983844298105 0.7748403063098687 0  -0.7932655701759738 0.8811032834130089 0  -0.643080120199842 -0.4293120864119174 0  -0.1171297432584313 -0.3970460110066465 0  0.8721596327159175 0.4887923312083591 0  0.07593981146322185 0.09380225425137526 0  -0.6645268303797549 0.8680860522352902 0  0.4546552260469945 0.3506192703505019 0  -0.02627765581419107 0.03581948620179007 0  -0.40882100598361 -0.4403546854623139 0  -0.3615680651607218 -0.2688715500573738 0  0.3235958330411581 0.4816947505924371 0  -0.1959350530310327 0.2014172304236138 0  0.7056541693083425 0.5310394225578747 0  0.2618197166492761 0.3559745821097174 0  -0.3764798944796396 -0.8517915386855718 0  0.1092331892802638 0.6819420283932074 0  -0.2846191213381049 -0.612051690453829 0  -0.441063419108757 -0.6201424758265247 0  0.2962859652243584 0.6922670919809047 0  -0.8748388903363282 -0.1747755504681206 0  -0.1800258525118841 0.8549378550157785 0  0.4547274749718497 0.1633983329627871 0  0.2802646985488693 0.04667299536576981 0  -0.1422827036308933 0.657382161893397 0  -0.01132756205382065 0.7085622921812631 0  -0.0533263177190018 0.8750053981414783 0  0.005448952546836724 0.4697414674369539 0  -0.3875316798939835 0.153483010173705 0  0.5491493618827263 0.1332643044296658 0  -0.4758038693136664 0.6823642499585566 0  -0.851462638017029 0.3327948202371878 0  -0.09241310379622526 -0.5363645612776194 0  -0.03079980809177023 -0.552083172603353 0  -0.2133515212441207 -0.2877534525788906 0  0.8684783064805234 0.151583027904331 0  -0.1693173492430086 -0.661112147574945 0  -0.8891601444981077 -0.528503711690015 0  -0.281617811214822 0.3382563640360112 0  -0.6761526163861622 0.5741131395476956 0  -0.8974781872054022 0.5313947333132149 0  -0.8983472567493523 0.6608639080248185 0  -0.644277442729394 0.07241980787022487 0  -0.8590470634393417 0.02856618798354648 0  -0.8881011492343541 0.1679211039163981 0  -0.1300737460329569 0.2288933379099237 0  0.1603944090091283 0.4461273373178116 0  -0.04351111803521544 -0.1257676716733714 0  -0.7533436012164747 0.6700644115158827 0  -0.6023313967892383 0.6979705109653934 0  -0.254282016610566 0.0785255048627211 0  -0.2492629370922884 0.6487370866384428 0  -0.02740235189132282 -0.006345924226728864 0  -0.4943382760902335 0.8770384678689579 0  -0.4768044731078498 0.4905591965690758 0  -0.2903397837007865 0.1440414249768669 0  0.002271185889118091 0.02361586928893837 0  0.7795440801520807 0.6838005421803491 0  -0.4697814835782829 -0.824706531833485 0  0.2719178239423702 0.1949597857797582 0  -0.1482115353248595 -0.863169136680268 0  -0.06501089038213884 -0.829583581858538 0  0.443478236077149 0.7060229179086209 0  -0.1173148418824324 -0.2882439442542438 0  -0.2647739674337537 -0.02616783531769833 0  -0.893793846519656 -0.8965261552547225 0  -0.5728415033968258 0.2372344983851986 0  -0.4760565583000634 0.08761086727050543 0  0.4912569493367125 0.8258263676555213 0  -0.02846402967101734 -0.2600409655983067 0  -0.3100208102959919 0.8753944698926878 0  -0.1429436361589587 0.08050524293383439 0  -0.4691952968344564 -0.03488588939929083 0  -0.387857820999513 0.0121359974517092 0  -0.2916033653045413 0.02757163133659897 0  -0.3847718325713127 -0.1204575684786078 0  0.8881705154070042 0.6981683315206004 0  0.7926607921397608 0.9107300168913365 0  0.5766218429150719 0.208031042272094 0  -0.5598697370458701 -0.4695085561869205 0  0.5989556297588725 0.7061129751431883 0  0.6782687552018957 0.888343437604141 0  -0.05101747223516309 0.303078242802198 0  -0.9021296122708752 0.9046269509388887 0  -0.1274091640382451 -0.06710277719623378 0  -0.1688409110704
[...]
<PointData  Scalars="w"> 
<DataArray  type="Float64"  Name="w"  format="ascii">1.7526736515675693e-10  1.0374500014238349e-11  4.4504419211001103e-10  2.6276779174048519e-09  6.2417741259387529e-10  1.5704832240705451e-12  8.6848521265939267e-12  7.4894885499348368e-11  4.0438456615428139e-11  2.1080194941003417e-11  1.0785879877962168e-10  9.6092615417080949e-11  4.0249755762446730e-10  2.7657509726160621e-10  9.1453827695217572e-12  5.2512907780062297e-10  9.1129938788056885e-11  7.2324856940368958e-11  1.3086581530454128e-10  3.5580868715296018e-10  6.7202049140074983e-11  1.0474378425065878e-10  5.7441499663410430e-10  1.2366041969027705e-07  5.8164039492758248e-10  1.0804703988733849e-10  8.8722245249079904e-11  1.7023582327417162e-10  7.6594028350910427e-11  1.8863931497768778e-11  4.6856761405426827e-10  9.7712956617153308e-11  2.4349160417673259e-10  1.8117539463432108e-10  4.5429180725297732e-10  2.2570792861580865e-10  7.8085877989486338e-11  4.7709562545856038e-10  5.8707080547272647e-10  3.1211420758002109e-11  5.2571453306980139e-11  1.0851891909718216e-10  9.2594492669685755e-11  1.9786227691661199e-11  1.0485387977551778e-09  8.7681268275899963e-11  3.2050206857957177e-11  9.6064052924801679e-11  1.2459604224050055e-12  5.8860409677946584e-10  2.2089169938964090e-10  2.1376996072797320e-10  8.2830346854888325e-11  2.5274861560058572e-10  2.6058452868937167e-10  2.0544171530716929e-10  3.5609820436727467e-10  8.9368537865155285e-11  5.7905437295987558e-10  2.5223215180474827e-10  3.1277272991370468e-11  3.1484920274463134e-10  3.7895574319215838e-10  1.4369466958824734e-10  5.4175770609491357e-11  1.7807659686309785e-10  7.0671354056579729e-11  1.7841723649659976e-10  2.3321415867711521e-10  4.6108755918253620e-11  6.4584571493505395e-11  4.3335371979354310e-10  5.6653038224730021e-11  8.7863259069402685e-11  1.7201808878878643e-10  1.7043183855194341e-10  2.5722846605709023e-10  2.9089704712084287e-10  1.8300256644453721e-10  1.9527741847938494e-10  6.5189648201150796e-11  2.5233622151370034e-10  2.6267076301905223e-10  2.0121877242785790e-10  2.3438371728840372e-10  1.2529017177825866e-10  4.6641541138885807e-11  1.1003933997410526e-10  9.4551787614810485e-11  2.5468222619052774e-10  6.9444026168620799e-11  9.9190245531323377e-11  7.8344003034023982e-11  9.4520815423960035e-11  3.8961551410472275e-10  2.0971890685536517e-10  2.5483065876171235e-11  6.5291668287593747e-10  2.5682625542072918e-10  3.1668715595854663e-11  2.7722687444883102e-10  4.1213510771391031e-10  7.1164668421739389e-11  9.7443389663662799e-11  1.5692485943769529e-10  6.3836196058583604e-11  2.7402549599465576e-10  8.3430674268900227e-11  1.4645051505897112e-10  6.6113901109964138e-11  3.1139954716468650e-10  2.4743975670475635e-10  2.3180685160160109e-10  6.4500543479664205e-10  1.2102116764246309e-09  1.4894284125656018e-10  1.6537746381668777e-10  1.0249470120289133e-10  4.5903825855893211e-10  2.5928744601741296e-11  2.5732737797620894e-11  2.7806191601088204e-10  9.1754074011004894e-11  6.1143990579485822e-11  5.0240305596743912e-10  5.7451647391106187e-11  5.9665553065252807e-10  1.1878049266866120e-10  7.6863181844781893e-11  8.2871407212130712e-11  3.4249941284945612e-10  1.7313738088579538e-10  4.6508384814124896e-10  1.3548593039659537e-10  6.2082784567287992e-10  4.4319720047639391e-10  1.0952769757794364e-10  5.2161003728117121e-11  1.3024032501522116e-10  2.5930468016592197e-10  3.9707509091809224e-10  6.0362731114165413e-10  9.3163603761926231e-11  1.1986653263130221e-10  6.8903272535627704e-11  6.5639841944165693e-10  8.6100191347496616e-11  3.3369176597183156e-10  1.4745975250024121e-10  1.2458369464408250e-10  2.0079144101918449e-11  2.8320922616025684e-10  1.5784274081701972e-09  5.6878351799181466e-11  9.6090834946575820e-10  7.9010189366636723e-11  2.4517635860117763e-11  2.4335763009068898e-11  1.2197717979717516e-10  5.6010556055518389e-10  4.4572485564885738e-10  1.6117993937379387e-10  1.1464909220261217e-10  1.6713614834063073e-10  1.8743717060357718e-10  5.8861464956818177e-11  7.7713276994011775e-11  2.0429701960762371e-11  6.0230804935667076e-11  2.9503455487604666e-10  9.2512445629896119e-11  1.0592227131343827e-10  8.3077900750280205e-11  9.6335551095004457e-11  5.3383893857307938e-11  9.6382250718729312e-11  4.5631628114013287e-10  5.7099119130714018e-11  1.6418634150749222e-10  1.7163980894029429e-10  4.6383075062377170e-10  1.9849589112654754e-10  2.8265769764558877e-10  1.4304002765758129e-10  1.4512243652103486e-10  1.4978352243004911e-10  2.1082509916040694e-11  2.8843738706060273e-10  6.4596033270481126e-10  2.5588150519337034e-11  2.5143072358710929e-10  8.9143155074113426e-11  1.5800479035558446e-10  1.1091194480811362e-09  1.3787929834072109e-10  1.6423482500133535e-10  2.3403673488176522e-10  2.8802633644067023e-10  1.0579252906248588e-10  2.0491505713485498e-10  4.2067469053505579e-10  2.1890584565686135e-10  2.3926864982091672e-10  1.1022224868118533e-10  1.1277337254163181e-10  1.1278013426776491e-10  7.1700176496012592e-11  2.0854261224058687e-10  8.8429721511454325e-10  7.7891510484455963e-11  1.0864920986054898e-10  7.8051828722684023e-11  9.7111700664755790e-11  1.6262678169692175e-10  3.7755758471579391e-10  7.9040073619682707e-11  8.5315456269409724e-11  7.6894246926714370e-10  7.5979274201327419e-10  2.9289612356417317e-10  1.9999178772642177e-10  7.7552775951330625e-11  8.0970723807351352e-11  3.3654751100674055e-10  5.8797050784348964e-11  8.3339845694682629e-11  5.0265144169027178e-11  9.3645736186681341e-11  4.1391523476299448e-10  9.0768264012848771e-11  1.9765860356696385e-10  1.6647411432733018e-10  9.0086747837851016e-10  6.1920813325242818e-11  1.9859083451184231e-10  1.1546619493431075e-10  1.1209654271817376e-10  7.4772263519619590e-10  7.5413922914505427e-11  8.5334871036759653e-11  1.1815956599004088e-10  1.1125567570323590e-09  4.1003020577792649e-11  7.8150560358645735e-11  2.7937306224918481e-10  2.5544075608802070e-10  3.4519582740122572e-10  1.8260640873687544e-10  2.0480770845793454e-10  4.0448913696909672e-10  2.9443508618481651e-11  1.0560729602398658e-10  1.2829719581622120e-10  3.7671723100026903e-11  2.6513163483741262e-10  4.4147412258939549e-11  3.3347883376205551e-10  1.3633060465479526e-10  1.1064115733292198e-10  1.9177725137735587e-10  5.0347986959187171e-10  7.3090238591056593e-11  2.6933094714029549e-11  1.4502289237327737e-10  8.2295655985346537e-11  5.9441549555652385e-11  7.6060692189540352e-11  1.7955086907454243e-10  4.9568639024606102e-11  2.6351198080098725e-10  2.5461634577949463e-10  1.2930419682409334e-10  1.2880342381185888e-10  1.3687023416695271e-11  7.1575663221328068e-11  1.4656993955420965e-10  1.6865032518586589e-10  4.9763390290436624e-10  3.6919282527621735e-11  8.2294816717780725e-11  3.3596491666455797e-11  2.3862922083548930e-10  1.2611583975508738e-10  1.8522361336891774e-10  7.5334352816280432e-11  8.8218231799612195e-11  1.2114780161160825e-10  2.0326068709253219e-10  2.2422789537237719e-10  2.6197764461451720e-10  4.3776550714228386e-10  2.1443066216428087e-10  2.1000493543268175e-10  1.4544096663286789e-10  8.0251838389168440e-11  1.7226073867949926e-10  1.6750168299428605e-10  6.2488491708624338e-10  1.2946484348146846e-10  6.2622418892804533e-11  4.0703857868934235e-10  1.8990408464248694e-10  2.0853057199287371e-10  1.2037116899971218e-10  3.2693080028229949e-11  4.4952195708016512e-11  9.8816646239365187e-11  6.8094038022253161e-10  2.9315707127612480e-10  1.8122195409239680e-10  1.3660843842708974e-10  3.3470053182749822e-10  6.7664838167521151e-11  1.0986446740927025e-10  3.5142793058984934e-10  1.2547419942497055e-09  9.9093676566457981e-11  2.8280671380706393e-10  6.1341953490862305e-10  1.2278835967378745e-09  1.9775921864967851e-10  1.5255544654970821e-09  4.1821304628234901e-10  2.2600940263120078e-10  1.1588421040425214e-10  4.2024010666136194e-11  6.5922113291272242e-11  1.2688933789875667e-10  1.5745068135999984e-10  6.3891510178538732e-11  9.9018115396549612e-11  1.0759750727110501e-10  1.2791173332608309e-10  1.9262728265961564e-10  4.9685951472930307e-10  3.1912339595594876e-10  1.6651302511991052e-10  9.6243076102094936e-11  6.1969663359589125e-11  5.9410193663828836e-11  7.0937314262846129e-11  1.8287340171039851e-10  2.2733832007645522e-10  1.0622463221174625e-10  1.0607860883510443e-10  2.3932267570137082e-10  1.3670113178645054e-10  6.9738752628002371e-11  5.9605054352296264e-11  1.0563330901840583e-10  3.4355377817991016e-11  1.8729779123902763e-10  3.2918294311362219e-11  1.6116357989459203e-10  1.7953252840456337e-10  1.5201326834244311e-10  3.9919695325045366e-10  7.9684452438916290e-11  8.3275294910470908e-11  1.4482985155639580e-10  3.0913516113889182e-10  1.4448195944983023e-10  2.6355141527912712e-10  1.1105191611720206e-10  1.3614294922467794e-10  1.5813480417681255e-10  2.8085984156852346e-10  1.2782620298586687e-10  3.3787562104574055e-11  1.1748678641949986e-10  1.1256133695087081e-10  1.4784728589374346e-10  2.5291786659211981e-10  1.7071371999531283e-10  3.5148519002192773e-11  1.2963479495441160e-10  2.3042908843920829e-10  2.9268954136221153e-11  3.3045031311086066e-10  1.6390397925463367e-10  3.8926770413355907e-10  1.1304233430113976e-10  2.3806399951328867e-10  3.2614250577193468e-10  7.5733382042405628e-11  1.0566949711069409e-10  2.1827161278830621e-10  7.3550537284422060e-11  4.8209067325950223e-10  1.6021738717399094e-10  9.8289633084380221e-11  1.0860977025414712e-10  2.0990701759687720e-10  5.4139520027029991e-10  4.7730744095310712e-10  1.8063385740643674e-10  1.7223106979367044e-10  2.0798746278209921e-10  4.0159567853096345e-10  4.5612644946417237e-11  2.2563932818378620e-10  8.1716400238126912e-11  1.2406738925239404e-09  1.1846637977601992e-10  4.6162737999538397e-11  5.4947014027771883e-10  3.3163716802564614e-10  2.4818313177733724e-10  2.1100588852198016e-10  6.4394204888833867e-11  1.5385329986923271e-10  3.3440490145138857e-11  4.3969166801134526e-10  8.2280160767560821e-11  1.3782400461901178e-10  1.2768937833474383e-10  6.6028752018919696e-11  3.4884021204838903e-10  4.3518347293340273e-11  1.1819623082259190e-10  2.4557245112461839e-10  1.7932130283604465e-10  7.1240864310108850e-10  9.2603162689881011e-11  5.7569889956160084e-10  1.4746554983851639e-10  3.5423247991623639e-10  5.5046528091455397e-10  2.4424091033103856e-10  1.5531873212140711e-10  2.7231342700407930e-10  4.8035377272276853e-10  3.4610928673128155e-10  7.5845875291180686e-11  4.9751206443695119e-11  1.6373688390777653e-10  3.5679839870421294e-10  1.8676514381793471e-10  1.2720761263476699e-10  1.7148523073692036e-10  8.1237554974438839e-11  7.1374236752862943e-11  1.9961210081190550e-10  5.8040991058258128e-11  2.0767558247683426e-10  9.0751652563202988e-11  4.7988957956272904e-10  4.9573321606596548e-10  8.2161288821812402e-11  4.1997497763333766e-11  3.9688085067514755e-10  6.4847294723923254e-10  2.5914248744395630e-10  9.8469160295139359e-10  2.8819456462973104e-10  3.1709930631661550e-10  2.7264546407342562e-10  2.6612598129078983e-10  9.7798885479194851e-11  3.1437053565592145e-11  1.9459790908955461e-10  1.0550882585161666e-10  2.1550257509795320e-10  7.5688151178791469e-11  1.2300473168025934e-10  2.0465599691090281e-09  1.7718450115339763e-10  8.1097806395227048e-11  8.2492132667268706e-11  3.9954543855245873e-10  2.4333159027703248e-10  1.8992700617955160e-10  2.0843066884007346e-10  4.4625291333568564e-11  7.5563005997892557e-10  2.4205435492459899e-10  5.3357893277008345e-10  2.5011242876843818e-10  2.4234860265095925e-10  3.1237278083120981e-10  9.4612814151431314e-11  3.3089349758954650e-11  3.6187094843707580e-11  3.6808576126909488e-10  3.6155167634289011e-11  1.1682063909934137e-10  1.0183302237174689e-09  7.5254972349149692e-11  3.5029349395097895e-10  2.6288342409592290e-10  6.2020667554993213e-11  5.9882699554885646e-11  1.8042477609913152e-10  2.4523866816908859e-10  4.8284953176104216e-11  1.1360866894515273e-10  1.6091886641462118e-10  7.6067026139228227e-11  1.7000687054533819e-10  2.1225213068566906e-09  3.3747849799347309e-10  3.1969567129496881e-10  1.0706038455272241e-10  1.0748811202512991e-10  1.8822138086339455e-10  8.0424096524551627e-11  1.3482474626786323e-10  4.9930343274530368e-10  8.7149952130948483e-11  2.4243107286279256e-10  2.1542836192358513e-10  1.3910775369262158e-10  5.1478776307509230e-11  7.7967919912942476e-11  5.5540995782344892e-11  4.4094067186801817e-10  1.0641204583272105e-10  2.2120898177997279e-11  5.7087314966162459e-10  3.0741193825310285e-11  6.2119329824308308e-10  1.1737207793094146e-11  8.4967796172153958e-10  1.7417624281326327e-10  2.5225077414310445e-10  1.0481348505072724e-10  2.8846193943416739e-11  8.5110330155681919e-11  2.7962555867896964e-11  2.0696694714723428e-10  3.7261820160087231e-10  2.7172130871242354e-10  3.2913360929109922e-10  1.3519714462300009e-10  9.4103899600922674e-11  6.3599984209185042e-11  3.6114380659782374e-10  5.0261506959224807e-10  1.0608833503933778e-10  1.0103239762347881e-10  1.4732960370193552e-10  7.6234577732548957e-11  4.5545109891994014e-11  5.4944165677898752e-11  3.2256920689293921e-11  8.8650736604661713e-12  1.7862383034266289e-11  9.8632079515653037e-11  2.2590000557965845e-12  1.1101112916420036e-11  1.8595038888415878e-10  3.4870800420082205e-09  2.2370914838094257e-10  4.2525412818335514e-11  2.2086311306791130e-10  9.2866728699254762e-11  1.1259912255057488e-10  4.3816906090051077e-11  1.7158503057232986e-11  8.8257020858123733e-11  7.2921579040800834e-10  7.9825693586812950e-11  1.8368083098170339e-10  3.2411552087966808e-10  4.8506800387990064e-10  9.6572783562207630e-11  1.0204269610242809e-10  5.8550841116986353e-11  7.7161282012717551e-11  1.1224645741137581e-10  5.7356981746312843e-11  6.0019220554800702e-10  5.9314092092811394e-11  2.7765698447512553e-10  8.8344839992307767e-11  1.2810148239119095e-10  3.1227449229223110e-10  4.1731000857965047e-11  6.3325666521509790e-11  2.8537023958604460e-10  1.1945168995630620e-11  1.1335801506908678e-10  8.8488169672979663e-11  7.6964465312052979e-11  5.6194749635511945e-10  1.6133819383352393e-09  2.8722033764918137e-10  2.8936608682854048e-10  9.1012101902571310e-11  6.9270542687255722e-11  2.5444488807151429e-10  1.1747100014969694e-10  9.9442923159396846e-11  1.0455788199482974e-10  1.9875251026832902e-10  7.3920582853796158e-11  5.2569962914521996e-11  7.0610299814552938e-11  3.9702948648150802e-11  8.6436245217902106e-11  1.9155719739434402e-10  1.6232894867965030e-10  1.1194344174395071e-10  2.7324244632999291e-10  4.7187927573758729e-11  1.3648884862639996e-10  5.2184168687262026e-10  6.6868738636616235e-11  1.1798469885615753e-10  1.3029591274299995e-09  5.8306859742818885e-11  3.3732873975142347e-10  5.1122798825875570e-10  1.5820338506074348e-10  1.2877366573591563e-10  1.2609444750675960e-10  9.0004617022117707e-11  2.4847945954893860e-10  2.8605385888729276e-10  1.7772111350887841e-10  4.6793450653860781e-10  4.2317694297833876e-10  1.2160125300743397e-10  2.1057156996145082e-10  6.6520577775007059e-11  8.4811954665052598e-11  6.2700647562870240e-11  2.3944918725821307e-10  4.0103371761927792e-10  3.0792922791677652e-10  3.2493783840080589e-10  8.6102245129647936e-11  2.2756760590791486e-10  4.7929590512864256e-10  1.7252178111812954e-10  4.8006045869461395e-10  1.8334121297865135e-10  1.3854142731384406e-10  1.1193191834929094e-10  5.1345887117097348e-11  5.4291208545353212e-11  3.3306041790399065e-10  6.2925103105488385e-11  6.4740922753911968e-11  1.2940097347107005e-10  3.2194804008982304e-10  3.1937173124603748e-10  1.5759197985465380e-10  1.1775707229552357e-10  5.9068163295124073e-10  6.2771697043092618e-10  1.5971738526513281e-09  2.6800647814438968e-10  1.9905517368867194e-10  4.4300886546359546e-10  4.5735008384744360e-10  1.1678103896493147e-09  2.9687977170863464e-10  2.4629170110263606e-10  3.3252712871124870e-11  1.2908283162042102e-10  3.2326454929517070e-10  4.9668419747138671e-10  2.1180267654889084e-10  6.6268831309328867e-10  3.0528316663980216e-10  2.1595683262465698e-11  4.8554008283398065e-10  3.3279633508758663e-10  3.8881382607447620e-11  3.3414101288047553e-10  4.1415012351733479e-10  5.4439152995579424e-10  1.4578104972013296e-10  6.7226331952475518e-10  1.9602052632629697e-10  4.7444358186110295e-11  1.2758562728432665e-10  1.3283716762972924e-10  3.1535237974544836e-10  7.9069471408681031e-11  2.6477031703260131e-10  1.9505740508948395e-10  8.1931180213647470e-12  2.4860701352889663e-10  5.7958073036523493e-11  9.0476305839329078e-11  1.2408498412034029e-10  6.3167450300793925e-10  4.1167159607482485e-10  3.0394052604353704e-10  1.1747007839681272e-10  1.3209832257519598e-10  8.9792202239079593e-10  5.3945193417793681e-10  1.3475856495384425e-10  1.4269031073538555e-10  9.3915337380577205e-11  4.8970687520768933e-10  1.3815298973994834e-10  1.7434549456716874e-10  9.5164985913518674e-11  7.0704015161801268e-11  6.3401993941347760e-11  1.4960768514889307e-10  9.8222271533557380e-11  1.2994996979961193e-10  4.3596371427151777e-10  7.6686182537374785e-11  5.9482558530032879e-10  1.2691317884374226e-10  2.2436244641483099e-10  2.8014985532518066e-10  5.4910205782607668e-10  1.1646670308063251e-10  4.0972998298346444e-11  6.2964838131260001e-11  1.4222660887713215e-10  1.5925247998427781e-10  5.1724549349041538e-10  8.4355525619182081e-11  1.6181780535531880e-10  2.5116950254269883e-10  1.3798112293255126e-10  2.3627330943847233e-10  3.3232751408312470e-10  3.1184924081381750e-10  1.0454248837662208e-10  1.7487192044000442e-10  1.4926912386177143e-10  2.2836219800954309e-10  4.7705212211134507e-10  3.7424015914904372e-10  2.0210318683486116e-10  2.0552652937696644e-10  1.2510591385445245e-10  1.7248710634456194e-10  3.0002957551635852e-10  3.8113205194829700e-10  3.6178499541683791e-10  1.6605561865324336e-10  2.2039205947348359e-10  1.9570789712300210e-10  1.5410251338662863e-10  3.9882068779267810e-10  3.1761359482587165e-11  1.0562516088605464e-10  1.2731324012753306e-10  1.2397909764893916e-07  4.0838939270603658e-10  1.7608724134155845e-10  6.1227707391662594e-11  2.5690834528105800e-10  1.3811708502232434e-10  6.4474145329227054e-11  1.0540856343325952e-10  2.0284335874777963e-10  2.0602907201758826e-10  1.9454907442353838e-10  1.8935852518749830e-10  3.0972232242553327e-10  6.5392485081220864e-11  8.0348576135386478e-11  1.9114000353739743e-10  1.2291161725960982e-10  3.5353505620247611e-11  4.0282272394054252e-10  6.4873675670700491e-11  6.1819441592492070e-11  1.9432786766494178e-10  9.9116961676372132e-11  2.3713902494240716e-10  2.9256091140217970e-10  2.0226698386282358e-10  7.8639196633677257e-11  1.8728205704523620e-10  9.6543424055109767e-11  3.2623170967173455e-11  9.0488990384737873e-11  5.8464694682555895e-11  7.8861714858048363e-11  2.2535481004600605e-10  4.7296254620364460e-11  6.6347950528468169e-11  9.4699047208157822e-11  9.3592228981673527e-11  9.4078447413656017e-11  2.5086854425103088e-10  8.7911245818438552e-11  1.8510719245827577e-10  2.0219022271946204e-10  9.9308165684213492e-11  1.6092283183795897e-10  3.1545067423443161e-10  1.2443863215959077e-10  6.1489097094065212e-10  1.7108920954506656e-10  1.4936234599082069e-10  1.3871862220519624e-10  2.2806435584940695e-10  4.4145568078871056e-11  3.9906460082436910e-11  7.6979887440600643e-11  4.3420885287924111e-10  2.0027687760424433e-10  6.3978925460006790e-10  4.4286940361962568e-10  1.2156169532321082e-10  5.4747538957797948e-10  3.6454577377204795e-10  1.8858030170295031e-10  7.0931661912445463e-11  9.3886011419941221e-11  1.7484179084507687e-10  1.8784867699254848e-10  4.1682698317552762e-11  4.8679881132768484e-10  2.8054352158552968e-10  3.0833634948915498e-10  5.3385803628893332e-11  3.5191765456197313e-10  2.6663874889346420e-10  5.8028420644752585e-10  7.3375348399446797e-11  6.1623782038882867e-11  2.3939071864069202e-10  7.2719698376823358e-11  4.2621811861286234e-11  1.4784804369842522e-10  2.4370320662247441e-11  6