<?xml version="1.0"?>
<VTKFile type="UnstructuredGrid"  version="0.1"  >
<UnstructuredGrid>
<Piece  NumberOfPoints="4852" NumberOfCells="9430">
<Points>
<DataArray  type="Float64"  NumberOfComponents="3"  format="ascii">-1 0 0  -1 -1 0  0 -1 0  0 0 0  1 0 0  1 1 0  -1 1 0  0 1 0  -0.5 1 0  -0.9999999999999999 0.4999999999999999 0  -1 -0.5 0  -0.5 -1 0  0 -0.1608775713298009 0  1 0.5 0  0.5 1 0  0.1967448868031411 0 0  -0.3402842819756838 -0.1754463246981795 0  -0.3360928867552167 0.2237817339985795 0  0.1739251016134325 0.3454194308093842 0  -0.1845446738334259 0.5543822193776872 0  -0.5035450172622962 -0.5372223492844068 0  0.4903974836933985 0.256502029034581 0  -0.06402602613750165 0.2005115688750674 0  0 -0.5061325913258391 0  -0.25 -1 0  -0.5607434762275566 0.5770753236643907 0  0.661417846167235 0.6335868540414753 0  -0.1750908942716291 -0.5374147758108375 0  -0.5383216743195917 0.02537511001381798 0  -1 0.25 0  -0.2056165886665781 0.02367698738816305 0  -0.6539549593413081 0.3090458485326236 0  -1 -0.25 0  0.03937399096792404 0.5910585483432974 0  0.1950295438274048 0.1284349537772531 0  -0.1361510971287443 -0.2196443021754108 0  0.3709580437411783 0.6139023367221857 0  0.9999999999999999 0.25 0  0.5355652144809806 0 0  -0.75 -1 0  -1 -0.75 0  -0.6447820912276343 -0.3227859331798604 0  0.25 1 0  -1 0.75 0  0.02757118475249542 0 0  -0.25 1 0  -0.75 0.9999999999999999 0  1 0.75 0  0.75 1 0  0 -0.02898318711980711 0  0.0542772905085321 0.141847885896872 0  -0.07748623494966682 -0.02778128021216367 0  -0.7007434411261342 -0.1322683994023064 0  -0.3214100548722894 -0.3468323053950897 0  -0.3395622286449249 0.4367817197726012 0  -0.09969760854495376 0.7638626373272398 0  -0.3827784330176939 0.7021622609480204 0  -0.05447844115502685 0.398213817056311 0  -0.07862912105124918 0.07174143716456963 0  0.3587916216341474 0.3687945973483578 0  -0.7158383115312454 -0.7299221184704037 0  0.4117570001049763 0.08964492840672722 0  0.6899385718560114 0.1912881096086651 0  -0.7471340166086472 -0.5269319024589989 0  -0.3873188778189399 -0.7104445708175411 0  0.7215702347083868 0.4181343885855053 0  -0.7756090426687344 0.09688250816967711 0  0.1967201330631318 0.6981134418120418 0  -0.1981019775845243 0.2878628768720205 0  -0.7986148515553664 0.5771961659070729 0  -0.7163695523295825 0.7661465496611041 0  -0.04927171663855173 -0.3734653454036856 0  0.5846866671091183 0.8162234899658729 0  0.8203399819609652 0.8059489654416853 0  -0.1039118920351461 -0.6966972831523164 0  -0.5138711496865027 0.1623608110809243 0  -0.2012501870835636 0.1252613164196127 0  -0.3584863896565291 0.07511476481422162 0  -0.3645370321229703 -0.05231311325228165 0  -0.4959855872385247 0.3945971696179318 0  0.375 1 0  1 0.125 0  -0.01175077416781554 0.07102640341420215 0  0.06230037438530048 0.3911024046745462 0  -0.1710620243858927 -0.1221911264455552 0  -0.2424943580831908 0.7733158561468954 0  -0.625 1 0  0.5332559349654602 0.4536058725455226 0  -0.5759060089228152 -0.8300065660176654 0  -0.2571271279933592 -0.7834524981885629 0  -0.3194475303017533 -0.5080607772219772 0  0.8339035618904611 0.5951914232499989 0  -0.5484377695155794 0.790469602153457 0  0.125 1 0  -0.06729826941936733 -0.09333772200321981 0  -0.4940255171430796 -0.1430491384937625 0  -0.8750000000000001 -1 0  0.02956486481495613 0.04148884798575135 0  1 0.375 0  -0.875 1 0  0.05742682601163838 0.7935681987210054 0  -0.1956390862509697 -0.3733129112065171 0  -0.07244671072962788 0.5704543376359574 0  0.2363980774558332 0.5172318301191267 0  -0.7919328368340447 0.2293118587651498 0  -0.494862811503517 -0.3887133845909395 0  0.0003448403276485223 0.2705190643071514 0  0.5097746195253741 0.6397719659922191 0  0.3988125703489884 0.8070330774467487 0  -0.805851985862328 0.4242210816492724 0  -0.06393348021208355 -0.220553965176726 0  -0.7091935548519557 -0.01415035357082001 0  0.09048419241860872 0.05229733347395492 0  -0.4777678835637631 -0.2509218867887265 0  0.7238540881344931 0.08273703854741105 0  -0.8083527980671517 -0.4109342238685664 0  0.3374202405142748 0.1531155150823557 0  -0.7942548290785927 -0.250614059593827 0  0.2362319651018399 0.2537188232083855 0  -1 -0.8750000000000001 0  -1 0.875 0  0.1842679823836013 0.04771071300493741 0  -0.2472375083509368 -0.2287249214990063 0  -1 0.375 0  -0.1706405977932699 -0.04171750017534318 0  -0.6483113894187165 0.4671735881305866 0  0 -0.07736776745332727 0  0.08050326057228901 0.2592808911930146 0  -0.375 1 0  -0.2162583163639392 0.4241677305867077 0  -0.1196263235209761 0.149751230127393 0  0.1332732774188406 0.5535673416205381 0  0.1319323826171241 0.1932696114604452 0  -0.4740899184656198 0.269124170749014 0  -0.0460347372016408 0.01387403628702924 0  0.8514111556426208 0.3699666463305545 0  -1 -0.125 0  0.2856083982980452 0.8365552954404609 0  -0.1102949186418486 0.312430491069535 0  -0.125 -1 0  0 -0.7575037395175258 0  0.07821397079968176 0 0  -1 -0.375 0  -0.375 -1 0  -0.625 -1 0  0.7474787146812756 0 0  0.625 1 0  0 -0.2918843213980812 0  -0.9999999999999999 0.625 0  -1 0.125 0  -1 -0.625 0  0.3284075310660084 0 0  0.004929205892015135 0 0  -0.125 1 0  0 -0.006571003003944568 0  1 0.625 0  1 0.875 0  0.875 1 0  -0.5624355223797097 -0.6762785623403879 0  -0.004516586297133384 0.1598195637522125 0  0.3622456690901208 0.2625234058504677 0  0.652933889192611 0.293483518367017 0  -0.8546117821562772 -0.6466175056217867 0  -0.8631364955715345 0.7868200307193246 0  0.4303355509237899 0.5007943256484877 0  -0.3983936911456854 0.855555625617559 0  -0.7786802320154846 -0.8748348645318693 0  -0.8704807302589758 -0.78437006401523 0  0.1541651969371311 0.8419491985120967 0  -0.6580401543724888 0.1525058181952983 0  -0.5771619956519364 -0.06403839910207332 0  -0.854345268363119 -0.06256224610861567 0  -0.2953963187237782 0.5617362179094587 0  -0.4231840785629233 0.5695433281898238 0  -0.3753634337586009 0.3305517212904854 0  -0.6180480149887434 -0.2161416231615078 0  -0.2723858065418296 -0.08988756702581459 0  -0.6398103059326967 -0.588426433389643 0  0.8597045551842533 0.265869107124459 0  -0.03273399910359416 -0.03292185096037473 0  -0.05450246928752098 0.1142817076627613 0  -0.1332299237165181 0.4314522792861911 0  -0.1194367842047033 0.03228589586094918 0  0.5377440282376942 0.06447669470302315 0  0.5791555613974229 0.358771032817251 0  0.6913916695420025 0.7746787571488181 0  -0.7931515413417761 0.8809530474285096 0  -0.6429970832718924 -0.4290092176300192 0  -0.1153784946654153 -0.3971498302692015 0  0.8721704283700212 0.4885603723298965 0  0.07595608331550525 0.0936042237025657 0  -0.6644571075325507 0.8678447409162893 0  0.4545170334061608 0.3500511205207059 0  -0.026188544125568 0.03573849692793636 0  -0.4088867690157431 -0.4399017609537085 0  -0.361575346850103 -0.2683981763236336 0  0.3234228999192849 0.4811952427010084 0  -0.1955237267936468 0.2010934025930751 0  0.7055959920433191 0.530622595187872 0  0.2617064942482741 0.3554901783979532 0  -0.3765230401822727 -0.8517626542471667 0  0.1093182028223098 0.6816365020893957 0  -0.2844559019083764 -0.6117406956847861 0  -0.4410049052377483 -0.6199177255549519 0  0.2961209077402462 0.6919546267731395 0  -0.8748185875827008 -0.1747139308627223 0  -0.1798331232647259 0.8546769449363079 0  0.4546547416096712 0.1630249469053932 0  0.280229440268347 0.04656549625453185 0  -0.1419656118919458 0.6571515294837441 0  -0.01112586704255816 0.708338387358004 0  -0.05323404516776982 0.8747688423230087 0  0.005652018370032797 0.4693188237387337 0  -0.3870382118027791 0.1532169893179064 0  0.5491196456724505 0.1329725443135937 0  -0.4755475335715967 0.6821423022459199 0  -0.8512703869932071 0.3327713279591076 0  -0.09011604713921745 -0.5359854306125142 0  -0.02870960315640945 -0.552068415431983 0  -0.2134855664290976 -0.2873011588821481 0  0.868513846167576 0.1514369178141707 0  -0.1683047847442232 -0.6606767945455634 0  -0.8891860109000892 -0.5285070365027654 0  -0.2811359007897559 0.3378416868472861 0  -0.6759320739869018 0.5739521334250429 0  -0.8973437417567194 0.5313561653801824 0  -0.8981792639342701 0.66077688461248 0  -0.6439851935243549 0.07227981280297774 0  -0.8589121881424825 0.02851745538672011 0  -0.8879842130401762 0.1679280062683113 0  -0.1297152655000392 0.2285378806263324 0  0.1603765147215913 0.4456297294537955 0  -0.04346097277382349 -0.1257528862759161 0  -0.7531682528662241 0.6700095364872647 0  -0.6021321449015439 0.6978704276334307 0  -0.2538771776073985 0.07835354285676584 0  -0.2488984933557953 0.6484975133424117 0  -0.02735236836780041 -0.006361380353749776 0  -0.4942905768344298 0.8768161978841696 0  -0.4763536515383383 0.4902211538736717 0  -0.2898893267427611 0.1437838058888269 0  0.002303300915501686 0.02356727476965862 0  0.7794789513513503 0.6836977575520137 0  -0.4698144583974451 -0.8246676977258151 0  0.2718352168880541 0.194580334287265 0  -0.1479250515540682 -0.8629657965637371 0  -0.06450300607999729 -0.8292599599951089 0  0.4433343263715863 0.7057200739893985 0  -0.1169313236031629 -0.2881895716870957 0  -0.264433004792943 -0.02615778986302445 0  -0.8938225547663026 -0.8965590358369012 0  -0.5724453505537598 0.2369681833860811 0  -0.4756355728608675 0.08743787457228246 0  0.4911986923347462 0.8256238651104076 0  -0.02743328783369616 -0.2605793506440867 0  -0.3098526847158884 0.8751476978286203 0  -0.14263501790906 0.08033743777475806 0  -0.4688316572863844 -0.03488326796632579 0  -0.3874337767557859 0.01206608820702661 0  -0.2912027536220365 0.02748434031692538 0  -0.3845040988359724 -0.1202710046177706 0  0.8881036255736507 0.6982035715302978 0  0.7927524116612026 0.9107301046271543 0  0.5765834392031538 0.2075933480693821 0  -0.5599003511772134 -0.4691547374809246 0  0.5988377148575376 0.7058550734882418 0  0.6783279660202474 0.8882289082159832 0  -0.05072663139586809 0.3026562483379093 0  -0.9020662880635527 0.9045829177000225 0  -0.1272396100535761 -0.06704394888991407 0  -0.1688501761157119 -0.1823069695077821 0  -0.2520614940133296 -0.1434441206440048 0  
[...]
<PointData  Scalars="w"> 
<DataArray  type="Float64"  Name="w"  format="ascii">1.7613076802856319e-10  1.0368478968159945e-11  4.4492607893243036e-10  2.5857396320279359e-09  6.2407817430352707e-10  1.5715512694953821e-12  8.6882672787367692e-12  7.5497085029272786e-11  4.0929502173929437e-11  2.1259890523615894e-11  1.0747010437234702e-10  9.6128849463973758e-11  4.0473946231312271e-10  2.7827131185134344e-10  9.1801459873615376e-12  5.2296283481097345e-10  9.0857246794815436e-11  7.2396634198375500e-11  1.3067847619613782e-10  3.5778904272833048e-10  6.7601798088618336e-11  1.0485150471254377e-10  5.7317514504892242e-10  6.2731287703259666e-09  5.8405900808632167e-10  1.0895296168205533e-10  8.9314607818536552e-11  1.7518908951718822e-10  7.6738599239782376e-11  1.8995620623405829e-11  4.6792620037210780e-10  9.8419194607794162e-11  2.4311668510993417e-10  1.8150766538883307e-10  4.5187870816889493e-10  2.2629517618204001e-10  7.8396357173152263e-11  4.7827325820345014e-10  5.8599056859312534e-10  3.1358283227460160e-11  5.2601899285005360e-11  1.0807520283039191e-10  9.2940636078657842e-11  1.9988826704224238e-11  1.0440315526492925e-09  8.8729405139726444e-11  3.2359565951016006e-11  9.6135493097853082e-11  1.2517357979462534e-12  5.8689368192158397e-10  2.2002485081779566e-10  2.1290170838409727e-10  8.2540198469070478e-11  2.5298176510971516e-10  2.6314522291814821e-10  2.0456106035755803e-10  3.5740801654161248e-10  8.9547026632878594e-11  5.7599969738116891e-10  2.5245254644193272e-10  3.1185851450373361e-11  3.1421342582117952e-10  3.7911070366813627e-10  1.4489344932160366e-10  5.4489363793838446e-11  1.7875092603462517e-10  7.1242536230151988e-11  1.7782007925934719e-10  2.3313761369005301e-10  4.6227750100740813e-11  6.4225961628523646e-11  4.5731017271032260e-10  5.7023445491814036e-11  8.7883589601669899e-11  1.7571137084070151e-10  1.7108765399517594e-10  2.5690819731962192e-10  2.9183889089601451e-10  1.8275150067369226e-10  1.9545678161164954e-10  6.5581216787234147e-11  2.5227590907832430e-10  2.6099697119797939e-10  2.0178946319620307e-10  2.3412754875852974e-10  1.2508988333475347e-10  4.7184272943740083e-11  1.1078235385237918e-10  9.4494939306713158e-11  2.5789966399173473e-10  7.0058940711451605e-11  1.0001712953212193e-10  7.8480785807141106e-11  9.5161429710367293e-11  3.8943119496156962e-10  2.0969297828290226e-10  2.5473051651512318e-11  6.4884052070456726e-10  2.5774464725242371e-10  3.1804176729976728e-11  2.7827721823029843e-10  4.1643859079473154e-10  7.1383688384848080e-11  9.7827028171557340e-11  1.5832327151075082e-10  6.4186297722620035e-11  2.7350984637716716e-10  8.4068373152055078e-11  1.4692766453593427e-10  6.6246301836427129e-11  3.0990814279072851e-10  2.4706245626368729e-10  2.3058146326099176e-10  6.4314093005088838e-10  1.2080411499319028e-09  1.5107387215425470e-10  1.6430738172215631e-10  1.0353178209821141e-10  4.5799172059126043e-10  2.5835649699729778e-11  2.5850821460547620e-11  2.7716954792564604e-10  9.1487134003652699e-11  6.1590262858332635e-11  5.0100804068588096e-10  5.7962358697966442e-11  5.9518955550096516e-10  1.1874039376068797e-10  7.7588321140444690e-11  8.3149560770959004e-11  3.4145919035083665e-10  1.7459412653504617e-10  4.6373050003821369e-10  1.3635270948225346e-10  6.1635622643633561e-10  4.4660833335400147e-10  1.0969261719512425e-10  5.2443264326291622e-11  1.3015586528739752e-10  2.6184710086366681e-10  3.3192915628492677e-10  6.0056898090042925e-10  9.2915905563248368e-11  1.1972779643820646e-10  6.8908546766941015e-11  6.5559611587700238e-10  8.6488798119800640e-11  2.5176550181630800e-10  1.4871626854280406e-10  1.2526306149800607e-10  2.0047129527912947e-11  2.8268232948229122e-10  1.5679789463497002e-09  5.7562585089388160e-11  9.5575972352831637e-10  7.9280391792962926e-11  2.4415032428096999e-11  2.4256750691999797e-11  1.2238295364241215e-10  5.5810618051503211e-10  4.4568006063649430e-10  1.6104679676780845e-10  1.1486547048551136e-10  1.6811528880245774e-10  1.8852032739181268e-10  5.9205242263093326e-11  7.7718977787904541e-11  2.0505557114236867e-11  6.0558294371961104e-11  2.9563855706550907e-10  9.2676670237199120e-11  1.0644662450307270e-10  8.3788930531731374e-11  9.7024261650617672e-11  5.3673133629968928e-11  9.6162131097690499e-11  4.5567794834989337e-10  5.7060265403063508e-11  1.6417850570678360e-10  1.7095314918052988e-10  4.6211512941428031e-10  1.9879105086543455e-10  2.8186956504033488e-10  1.4269675095345892e-10  1.4530210844084979e-10  1.5058991831283111e-10  2.1105118879421897e-11  2.8617120034137509e-10  6.5706747327939661e-10  2.5741175461479171e-11  2.5066725519705458e-10  8.9344897281269482e-11  1.5825228284081703e-10  1.1004767582234226e-09  1.3785146030931515e-10  1.6362236093039478e-10  2.3414870567280393e-10  2.8783309509909237e-10  1.0623842260081128e-10  2.0471930747685456e-10  4.2115351976718278e-10  2.1868559004177008e-10  2.4156986999639025e-10  1.1063251682234925e-10  1.1295139271721257e-10  1.1354747008089193e-10  7.1639038749488693e-11  2.0817089690094053e-10  8.8113291613576096e-10  7.8626270100471292e-11  1.0951011107514461e-10  7.7975868941070592e-11  9.7215522631369269e-11  1.6288062027139833e-10  3.7729819296354518e-10  7.9198325864956004e-11  8.5522333506255190e-11  7.7385616734051006e-10  9.8143021234016540e-10  2.9338092082196745e-10  1.9977420897248954e-10  7.9997732516630455e-11  8.1133796941978938e-11  3.3693119054327446e-10  5.9088183929046604e-11  8.3530997255645450e-11  5.0391235834809378e-11  9.3634415725211137e-11  4.1668069137805703e-10  9.1242954005392467e-11  1.9758111367678379e-10  1.6636606253812010e-10  9.0099853423872612e-10  6.2006347902710596e-11  1.9990384271087197e-10  1.1531321164326967e-10  1.1298789435856651e-10  7.4342151765780775e-10  7.5387550755966222e-11  8.5553648775378495e-11  1.1816820695604424e-10  1.1022285571457215e-09  4.1214245380129461e-11  7.8269628787566103e-11  2.7815531620189071e-10  2.5924406340425046e-10  3.5064767296213567e-10  1.8330633742697381e-10  2.0395121955967026e-10  4.0407776880632379e-10  2.9445249030392234e-11  1.0583828849406531e-10  1.2868979005081411e-10  3.7848990677903304e-11  2.7682287550096727e-10  4.4554369415866526e-11  3.3150459417381866e-10  1.3642254802581432e-10  1.1059885948168501e-10  1.9147894356405158e-10  5.0266918022211997e-10  7.3274832959522396e-11  2.6928458171573647e-11  1.4510919026660888e-10  8.2372403510051179e-11  5.9739726414552901e-11  7.6523128264947327e-11  1.7942066119561364e-10  4.9920196352681447e-11  2.6254548135678570e-10  2.5409674463680067e-10  1.2866118179943747e-10  1.2824597440880022e-10  1.3580370428289102e-11  7.1451836199462672e-11  1.4595054404305667e-10  1.6958797718420779e-10  4.9517277474330933e-10  3.7230464610044855e-11  8.2846930662253066e-11  3.3699700412690281e-11  2.3764014145125697e-10  1.2668765963083154e-10  1.8567015758899946e-10  7.5238543175762693e-11  8.8367321033911948e-11  1.2147829984714659e-10  2.0402334548646264e-10  2.2372405654569965e-10  2.6223016792798992e-10  4.3619906779578938e-10  2.1451441973165786e-10  2.0948440103093920e-10  1.4660748007813622e-10  8.0833451521492465e-11  1.7252805165682743e-10  1.6930720470904712e-10  6.2286891121887963e-10  1.2956106315077532e-10  6.3040095955720259e-11  4.0629461821642133e-10  1.8922090332118090e-10  2.0896136492025113e-10  1.1963924827846533e-10  3.2667589539081508e-11  4.5048451423036980e-11  9.9437271577899359e-11  6.8061092237802779e-10  2.9223400921754123e-10  1.8181405652077376e-10  1.3725104448797633e-10  3.4020261588553509e-10  6.7864645684845472e-11  1.1076847426966805e-10  3.5255950822375460e-10  1.2495119329849444e-09  9.9603701787245516e-11  2.8183553969400037e-10  6.1123676750845438e-10  1.2221043594793288e-09  1.9680460192164164e-10  1.5185560273582532e-09  4.1714261802946926e-10  2.2582605959115436e-10  1.1988421464088242e-10  4.2233668815502558e-11  6.6579177755169371e-11  1.2633422039129737e-10  1.5760100164349782e-10  6.4424839343128183e-11  9.8899438912235835e-11  1.0740684886863796e-10  1.2863747520540642e-10  1.9200119656933901e-10  4.9461258658940454e-10  3.1840443242524102e-10  1.6649495307879016e-10  9.7002971060760892e-11  6.2195526412145562e-11  5.9637719649786646e-11  7.0674564435931625e-11  1.8322331131394065e-10  2.2633794373499138e-10  1.0673272290606382e-10  1.0653735068046931e-10  2.4062505105758862e-10  1.3742280178698308e-10  7.0086103405441381e-11  6.0086817786343443e-11  1.0564927215109585e-10  3.4472318547853803e-11  1.8733971353505341e-10  3.2989330199564310e-11  1.6095812607491490e-10  1.7926137670109045e-10  1.5259774725103817e-10  3.9894924987146603e-10  7.9986075559123005e-11  8.4072368394740357e-11  1.4491097696981725e-10  3.0738736486458325e-10  1.4549486551499918e-10  2.6353229370202872e-10  1.1155255808569315e-10  1.3618951006137485e-10  1.5785100282189865e-10  2.9123708573608095e-10  1.2747766075600087e-10  3.3828896658357338e-11  1.1757100713498187e-10  1.1260433460390832e-10  1.4932288909840101e-10  2.5374047943024783e-10  1.7119803002894558e-10  3.5366996665110954e-11  1.3050257287751458e-10  2.3712777424995088e-10  2.9533117080388007e-11  3.3028872352117970e-10  1.6349684916768206e-10  3.8683688863552844e-10  1.1335671269451669e-10  2.3665066953197195e-10  3.2640309731414381e-10  7.6245497271800408e-11  1.0636686181908710e-10  2.1926916055992995e-10  7.3696750843371341e-11  4.8422178334942282e-10  1.5987996788557569e-10  9.8922124095802680e-11  1.0899060854333408e-10  2.1091015919143890e-10  5.3864674030237965e-10  4.7554596420306090e-10  1.8022174080155949e-10  1.7210631411832500e-10  2.0845507582673965e-10  4.0423992244368473e-10  4.5932833681856835e-11  2.2597009870757222e-10  8.2733006797152171e-11  1.2380360866262566e-09  1.1880252534050605e-10  4.6270210467363732e-11  5.4645745184772483e-10  3.3341692025533711e-10  2.4747296176141678e-10  2.1069547498098830e-10  6.4693631794962917e-11  1.5465423054241353e-10  3.3638773672925460e-11  4.3814844688249224e-10  8.2744662993729920e-11  1.3964495506574700e-10  1.2816156637730017e-10  6.6353365345364688e-11  3.4995928464445494e-10  4.3847658711085828e-11  1.1885600929702340e-10  2.4454036242634104e-10  1.7891068967861539e-10  7.0935165551777429e-10  9.3166210861890878e-11  5.7382902088699864e-10  1.4815283124069432e-10  3.5226385249470390e-10  5.4672109460709383e-10  2.4346460554679983e-10  1.5580974507439063e-10  2.7159287807323062e-10  4.7841340257257736e-10  3.5038126685490846e-10  7.6191523949382335e-11  4.9301971913634591e-11  1.6322628414877946e-10  3.5526508600908360e-10  1.8689411114657567e-10  1.2709877705163408e-10  1.7289139278848051e-10  8.1311327376189773e-11  7.1488268895794933e-11  1.9985410066232290e-10  5.8356373217711804e-11  2.0833026856209703e-10  9.1047440508189389e-11  4.7778119012624927e-10  4.9551505445316926e-10  8.2352209389701363e-11  4.2225695292717281e-11  4.0031941728148748e-10  6.4684529936498383e-10  2.5913399651278500e-10  9.7931286003845948e-10  2.8755406814348384e-10  3.1635175620149670e-10  2.7104478588892116e-10  2.6503653772045126e-10  9.8036322362866765e-11  3.1520490407178774e-11  1.9474914975160512e-10  1.0739662281678041e-10  2.1681189318090065e-10  7.5549306517567452e-11  1.2257703086926933e-10  2.0314845367922805e-09  1.7693081971659069e-10  8.1397025108605292e-11  8.2547941379056093e-11  3.9811258063701525e-10  2.4304386192043230e-10  1.8977153746909372e-10  2.0865952567472278e-10  4.4624464821813828e-11  7.5282925828501035e-10  2.4176311720730889e-10  5.3433206857571883e-10  2.5266104326468125e-10  2.4405666919571248e-10  3.1333939306498437e-10  9.4703861055150192e-11  3.3063444269674035e-11  3.6102453713630322e-11  3.6616850089622065e-10  3.6653684804372023e-11  1.1817554463633884e-10  1.0168798822700859e-09  7.5213448496952048e-11  3.5256271468201974e-10  2.6374754146803196e-10  6.2153691847761814e-11  6.0353165870753413e-11  1.7979176595169591e-10  2.4452324211515259e-10  4.8431151956763606e-11  1.1377385046138735e-10  1.6160635061886386e-10  7.6466569010904010e-11  1.6984272115367474e-10  2.1153336790071928e-09  3.5893344556967573e-10  3.1927563613453834e-10  1.0695597892570532e-10  1.0775726472279384e-10  1.8939879598824428e-10  8.0873310299097910e-11  1.3446684015649338e-10  5.0116744314093673e-10  8.7595303433083693e-11  2.4366428391138743e-10  2.1519914339189320e-10  1.3881599441985549e-10  5.1397350699339254e-11  7.8423241539569063e-11  5.5772552594221942e-11  6.9236197907347014e-10  1.0736664378847706e-10  2.2097548774714094e-11  5.7004565486546372e-10  3.0837710104451556e-11  6.2042258021978161e-10  1.1800875095136206e-11  4.1032649598800755e-10  1.7794735876035264e-10  2.5484081597496608e-10  1.0518845141998280e-10  2.8931762706916203e-11  8.5101425012672534e-11  2.8176947462086156e-11  2.0626883265935774e-10  3.7239900882424652e-10  2.7173603085639108e-10  3.2728485971829089e-10  1.3448096625608440e-10  9.5327933766942307e-11  6.4184044349136445e-11  3.5986739816588479e-10  5.0382139893709965e-10  1.0560113358504670e-10  1.0107437780483284e-10  1.4783966587611058e-10  7.6159644796036771e-11  4.6162030138013283e-11  5.5582013618918593e-11  3.2572839064371526e-11  8.8606677198208032e-12  1.7863891586054544e-11  9.8460835594625012e-11  2.2564052102239032e-12  1.1084769715635711e-11  1.8586844920063150e-10  3.4835779454641595e-09  2.2648371850857237e-10  4.2548565071756034e-11  2.2186609063797575e-10  9.3321627327472956e-11  1.1260449560853917e-10  4.3828408748195970e-11  1.7272490028374281e-11  8.9083802872789027e-11  7.2283641039035469e-10  7.9973906225044000e-11  1.8327950797832400e-10  3.2442652634583295e-10  4.8252350974590855e-10  9.6517395875053944e-11  1.0223413435754674e-10  5.8861944223314184e-11  7.7396605002645993e-11  1.1297064308584084e-10  5.7307554881010041e-11  6.0170202411184224e-10  5.9368995535782518e-11  2.7650655374860655e-10  8.8690305070543444e-11  1.2817811406513817e-10  3.1272493839046877e-10  4.1849933188210269e-11  6.3967651253201712e-11  2.8841974269268755e-10  1.1941537329445197e-11  1.1330542758427998e-10  8.9121586872412266e-11  7.7348390201616238e-11  5.6062755741410069e-10  1.6126754148003267e-09  2.9260389288719210e-10  2.8867443040494501e-10  9.1206961393804532e-11  6.9775573435192620e-11  2.5579611791593868e-10  1.1761632156134750e-10  9.9962980719809659e-11  1.0528415749933770e-10  1.9889278150392525e-10  7.4287792728604182e-11  5.2539296603817576e-11  7.0668359670482880e-11  3.9695375504208086e-11  8.6429726272715117e-11  1.9084250329922084e-10  1.6169034752467633e-10  1.1158283976718039e-10  2.7787985784360143e-10  4.7165897232742795e-11  1.3709569280370452e-10  5.1985524654603936e-10  6.7217714293409003e-11  1.1884568503755673e-10  1.2960614407189907e-09  5.8316312560819979e-11  3.3603563598565395e-10  5.0916529509735196e-10  1.5798736194689056e-10  1.2901608046216672e-10  1.2591363431174739e-10  9.0310209893852708e-11  2.4679147447822521e-10  2.8551689973056366e-10  1.7733248384951569e-10  4.6591242637492322e-10  4.2219210575882399e-10  1.2216308529862043e-10  2.1109695442328175e-10  6.6839056921704735e-11  8.5140185147337669e-11  6.2908060420389521e-11  2.4042248693988457e-10  4.0101126924088267e-10  3.0752485371368163e-10  3.2486905514348871e-10  8.6364817469111090e-11  2.2653161078647449e-10  4.7758163028854990e-10  1.7132800221712446e-10  4.8388919712350467e-10  1.8470831699845429e-10  1.3841918383977195e-10  1.1255269463347353e-10  5.1371307640150886e-11  5.4614760326781553e-11  3.3785466431161593e-10  6.3171349774207213e-11  6.4696788176949418e-11  1.2967373841064032e-10  3.2201899747322196e-10  3.1935672800242394e-10  1.5748892433389250e-10  1.1773520759611536e-10  5.8715866526981496e-10  6.2464555666848943e-10  1.5874992034186536e-09  2.6658517607147261e-10  1.9834280632837435e-10  4.4130616677028379e-10  4.5673165059304765e-10  1.1589922062719324e-09  2.9545095818244057e-10  2.4765603635132709e-10  3.3427718549081989e-11  1.3003537535434163e-10  3.2825531869530399e-10  4.8377711887609393e-10  2.1163885844616753e-10  6.6648906866239418e-10  3.0657044078929967e-10  2.1720268693818373e-11  4.8946950366743264e-10  3.3256371918812224e-10  3.8964710358089362e-11  3.3401902692903394e-10  4.1395183872708953e-10  5.4411040478108411e-10  1.4572314295071092e-10  6.7163259276690937e-10  1.9638812073378332e-10  4.7731073060811118e-11  1.2794810646369583e-10  1.3323637424950625e-10  3.1404030403623372e-10  7.9523876135726938e-11  2.6444979841836635e-10  1.9703769530227224e-10  8.2389465103749804e-12  2.2418924983898247e-10  5.8200687726374482e-11  9.0923232748641066e-11  1.2444958353916009e-10  6.2933430999838276e-10  4.1059221062925593e-10  3.0260705298119072e-10  1.1773023308129499e-10  1.3233111804917429e-10  8.9230028949366141e-10  5.3585423878763522e-10  1.3484338302784051e-10  1.4296300402870228e-10  9.4521061981506729e-11  4.8946512997436007e-10  1.3915657555836240e-10  1.7555122594653562e-10  9.5436700338558967e-11  7.1122597882749859e-11  6.3639491121846260e-11  1.5095342499826940e-10  9.8910727895583264e-11  1.2915632785833994e-10  4.3400716493071816e-10  7.7618399921138403e-11  5.9327455626319504e-10  1.2648875624660513e-10  2.2422226380393368e-10  2.8018228593036121e-10  5.4595410508854715e-10  1.1696578720631085e-10  4.0915157046652200e-11  6.3412073939100649e-11  1.4242193868831488e-10  1.5978399767436183e-10  5.1755435773214820e-10  8.4796523103076149e-11  1.6432449698562847e-10  2.5331513761908465e-10  1.3959909155853974e-10  2.3803791984114511e-10  3.4118967397855492e-10  3.1103604774812597e-10  1.0518326144035739e-10  1.7539548294657669e-10  1.4987288568333690e-10  2.2838384467666074e-10  4.7704373415959973e-10  3.7337102921252521e-10  2.0182793938442857e-10  2.0575295943072628e-10  1.2619680444222107e-10  1.7302670162612968e-10  2.9933783872890109e-10  3.8088094863385127e-10  3.6155840955713230e-10  1.6603265328848146e-10  2.2010944802560198e-10  1.9656324825653234e-10  1.5467301402306564e-10  3.9936218255713865e-10  3.2051233590270065e-11  1.0608481110350776e-10  1.2761379062380323e-10  6.5954293813444954e-08  4.0741816707293826e-10  1.7716777786971729e-10  6.1303613467591561e-11  2.5623756356682816e-10  1.3825701144500309e-10  6.4798067618527212e-11  1.0594952021012122e-10  2.0239151743086440e-10  2.0702373156339746e-10  1.9664994938689192e-10  1.8969197465548067e-10  3.1109646597540560e-10  6.5995059436539375e-11  8.0553252186878892e-11  1.9167151610214992e-10  1.2265326243702433e-10  3.5314210745246744e-11  4.0402004486368452e-10  6.5083831073045119e-11  6.2173514548911047e-11  1.9510637113449633e-10  9.9810523016673390e-11  2.3809953196460820e-10  2.9188705086880595e-10  2.1654244123740830e-10  8.2273330239204917e-11  1.8851607563628273e-10  9.6894540504079572e-11  3.2520752633644353e-11  9.0479417839017218e-11  5.8722152659692688e-11  7.8692794306012895e-11  2.2406126392759161e-10  4.7378840089594858e-11  6.6388615962090886e-11  9.5120314536812110e-11  9.4050277350194175e-11  9.4359209287675659e-11  2.5542141613091852e-10  8.7967171508796206e-11  1.8537766087680225e-10  2.0392128710609990e-10  1.0059637574230976e-10  1.6068186896900957e-10  3.1541075330045797e-10  1.2482454374983626e-10  6.1287790464491280e-10  1.7129038639421904e-10  1.4994699060911933e-10  1.3806003455558831e-10  2.2867385346793578e-10  4.4240387136030011e-11  3.9985505298140106e-11  7.7204767942251899e-11  4.3180619261967962e-10  1.9930600897008483e-10  6.5589507029556481e-10  4.4128559892856694e-10  1.2171297464991804e-10  5.4648655314983499e-10  3.6491689350784051e-10  1.8910309053319696e-10  7.1550625958197278e-11  9.4004961227176237e-11  1.7470518207698005e-10  1.8747028609617887e-10  4.1852668710752297e-11  4.9237093273021904e-10  2.8257533110181988e-10  3.1567283476161438e-10  5.3234057065361385e-11  3.5130803091678507e-10  2.6804369898956815e-10  5.7570620825519913e-10  7.3369922541820886e-11  6.2203896127441458e-11  2.3913639894151286e-10  7.2988822099199173e-11  4.2934314876600773e-11  1.4843073002607311e-10  2.4532362244529221e-11  6