<?xml version="1.0"?>
<VTKFile type="UnstructuredGrid"  version="0.1"  >
<UnstructuredGrid>
<Piece  NumberOfPoints="4852" NumberOfCells="9430">
<Points>
<DataArray  type="Float64"  NumberOfComponents="3"  format="ascii">-1 0 0  -1 -1 0  0 -1 0  0 0 0  1 0 0  1 1 0  -1 1 0  0 1 0  -0.4999999999999999 0.9999999999999999 0  -0.9999999999999999 0.4999999999999999 0  -1 -0.5 0  -0.5 -1 0  0 -0.1608775713298009 0  1 0.5 0  0.5 1 0  0.1967448868031411 0 0  -0.3428984993058897 -0.1759110946961645 0  -0.3391906052980202 0.2264148375584421 0  0.1748158202060641 0.3487792797583014 0  -0.1882160177642355 0.5570198168101527 0  -0.5081315798782002 -0.5400412127561971 0  0.4907055383878298 0.2613689627474782 0  -0.06534510177635443 0.2026980721220892 0  0 -0.5061325913258391 0  -0.25 -1 0  -0.5648431598616727 0.5808128464351379 0  0.6636011284203015 0.6390618768927626 0  -0.1717469729708467 -0.5388167947075861 0  -0.5412806619137589 0.02651013209507743 0  -1 0.25 0  -0.2077704805306253 0.02409075985650678 0  -0.6560320886659702 0.3135770067680026 0  -1 -0.25 0  0.03943571730369872 0.5940645259095395 0  0.1958426158586664 0.1310503654082514 0  -0.1363590965095473 -0.220952335377156 0  0.372883315849722 0.6178330505921245 0  1 0.25 0  0.5355652144809806 0 0  -0.75 -0.9999999999999999 0  -0.9999999999999999 -0.75 0  -0.6479745036606547 -0.324887789990465 0  0.25 1 0  -1 0.75 0  0.02757118475249542 0 0  -0.25 1 0  -0.75 1 0  1 0.75 0  0.75 0.9999999999999999 0  0 -0.02898318711980711 0  0.05437862472023516 0.1438501486401562 0  -0.07835357547771316 -0.02820529001849694 0  -0.7026204043385617 -0.1328950309298121 0  -0.324011909683046 -0.3483388438194464 0  -0.3443901409511497 0.4400950005621445 0  -0.1017542415321052 0.7660067445482523 0  -0.3882364193227738 0.7039397487155652 0  -0.05604516786036367 0.4015214984000715 0  -0.08023320757248546 0.07239928022233473 0  0.3597165361579824 0.3722958316332103 0  -0.7198656537622882 -0.7333702806889366 0  0.4119672398844273 0.09282370601835925 0  0.6900964883485963 0.195101272169743 0  -0.7486084733817775 -0.5313811727462114 0  -0.3925307360257997 -0.7113324755542361 0  0.7216548010402822 0.423817841721338 0  -0.7764841998762534 0.09862059316476485 0  0.1982982585952043 0.7005112264407759 0  -0.2012774364119937 0.2904384807906679 0  -0.8010226498966113 0.580423228127618 0  -0.7193969160029784 0.7685708909341903 0  -0.03733700092358355 -0.3750572480806301 0  0.5876146789627069 0.8186605097428583 0  0.8224022179573063 0.8095647126663613 0  -0.0956396656909818 -0.6945105541213377 0  -0.5170251455769586 0.1653162719500162 0  -0.2036416579383775 0.1266829939547091 0  -0.3613140527174031 0.07653521354303264 0  -0.3672095944584202 -0.05246253990772964 0  -0.4996204302234571 0.3986294692964576 0  0.375 1 0  1 0.125 0  -0.01168418337119858 0.07202341912486168 0  0.0627419268079694 0.394070015841906 0  -0.172660336822375 -0.1225872970184941 0  -0.24586744790231 0.774810719816495 0  -0.625 1 0  0.5344851892075423 0.4584456128226026 0  -0.5810882524908793 -0.8312753635069001 0  -0.2591850296021158 -0.7830972543773792 0  -0.3225673842924264 -0.509756918091144 0  0.8340358153835282 0.6007605698098251 0  -0.5529949633581408 0.7916876863553711 0  0.125 1 0  -0.06795583147214179 -0.09353897774499038 0  -0.4962883588414159 -0.1436120625646654 0  -0.8749999999999999 -1 0  0.02980113602767324 0.04198691800127816 0  1 0.375 0  -0.8750000000000001 1 0  0.05786698378945004 0.7948293536165079 0  -0.1952319755513343 -0.3754449778154497 0  -0.07411518066548836 0.5731423677462172 0  0.2378040640416763 0.520638771271379 0  -0.7933515869482098 0.2335504347037515 0  -0.498167783702938 -0.3906647035620369 0  -4.35461173543601e-05 0.2733028790445802 0  0.5122543733136382 0.6442549490203554 0  0.401340999759044 0.8094174658493136 0  -0.807681668359024 0.4281386506210706 0  -0.0623458016153834 -0.2227782684116613 0  -0.7109529713822934 -0.01362025529824455 0  0.0908228163536612 0.05326786285669674 0  -0.4803906668899091 -0.2518601840906284 0  0.7241453447704439 0.08508112593106382 0  -0.8092584931549071 -0.4136897551935111 0  0.3378850130355473 0.1562955433598612 0  -0.7954105950462754 -0.251900411752578 0  0.2369560306997562 0.2570826872519157 0  -1 -0.8749999999999999 0  -1 0.875 0  0.1846885516116927 0.0496048505394616 0  -0.2492613116250875 -0.2295255623133227 0  -1 0.375 0  -0.1722566967765836 -0.04213184321711619 0  -0.6515685291565112 0.4716129920596454 0  0 -0.07736776745332727 0  0.08089222509025663 0.2620332901681113 0  -0.375 0.9999999999999999 0  -0.2198345985102211 0.4271239174445987 0  -0.1215918404272473 0.15122079351314 0  0.1343352532099268 0.557181721782088 0  0.1326713219885345 0.1958103711475243 0  -0.4776715009515405 0.2729521674268532 0  -0.04700681835866517 0.01388724818546454 0  0.8500657271145911 0.3749296932582681 0  -1 -0.125 0  0.2878458573507155 0.8378121946776129 0  -0.1125845836315839 0.3151819192847369 0  -0.125 -1 0  0 -0.7575037395175259 0  0.07821397079968176 0 0  -1 -0.375 0  -0.375 -1 0  -0.625 -1 0  0.7474787146812756 0 0  0.625 1 0  0 -0.2918843213980812 0  -1 0.625 0  -1 0.125 0  -1 -0.625 0  0.3284075310660084 0 0  0.004929205892015135 0 0  -0.125 1 0  0 -0.006571003003944568 0  1 0.625 0  1 0.875 0  0.875 1 0  -0.5680264953951504 -0.6790255153696489 0  -0.00468661977565811 0.1617468913623089 0  0.3628600637957494 0.2672024544824603 0  0.653190305761325 0.2987476203471755 0  -0.8567651647781954 -0.6506826439938097 0  -0.8642605817080129 0.788316181416269 0  0.4317773733777955 0.5052429935926878 0  -0.402556746942704 0.8556024584721514 0  -0.7814125361749744 -0.8766692255634811 0  -0.8727915781898293 -0.78713897832451 0  0.1555168362463717 0.8430332105766776 0  -0.6602182565301704 0.1555059894245062 0  -0.5801979242629713 -0.06369535860854104 0  -0.8550293561528834 -0.06291906076974225 0  -0.3001728576784643 0.5642028281010504 0  -0.4283314004500329 0.5721166050385048 0  -0.3791265939408454 0.3337380495205429 0  -0.6214899307106911 -0.2170984582240882 0  -0.2748921553703654 -0.0901709891564525 0  -0.6441528786718024 -0.5918928202755633 0  0.8590700388780902 0.2692153795796987 0  -0.03289609227347993 -0.0333203035628333 0  -0.05553505429654278 0.1158057890424497 0  -0.1357962000247716 0.4343870695317262 0  -0.1210022893917099 0.03266824060825389 0  0.538276141622884 0.06675856048310461 0  0.579952568066982 0.3637758750805727 0  0.6943876225169525 0.7782616245282292 0  -0.7948119329782115 0.8815478179275628 0  -0.6459691869374596 -0.4324712528756609 0  -0.1083523179724076 -0.4008621925385539 0  0.8710127974948999 0.493548186087285 0  0.07649991050575888 0.09486898696253079 0  -0.6672642971223303 0.8682012365964745 0  0.455248215833581 0.3542038774305317 0  -0.02684361440038295 0.03613682207838959 0  -0.4124721974987064 -0.4418001957396825 0  -0.3642741509417812 -0.2693196561282584 0  0.3246378948841255 0.4848397643882942 0  -0.1984468345570899 0.2033610747127611 0  0.7065179747265399 0.5368845519118851 0  0.2625704838244909 0.3588904806991138 0  -0.3812050406704183 -0.8512368447779354 0  0.1106692179851033 0.6845949438589042 0  -0.2875950987762188 -0.6130486130967975 0  -0.4458383404512061 -0.6220323489212519 0  0.2977222461064547 0.694780460273495 0  -0.8762751683793421 -0.1757371401409775 0  -0.1818986451522012 0.8542889037283625 0  0.4550332860841807 0.1668756766236524 0  0.2804925665676624 0.04802378393292304 0  -0.1449573884724271 0.6602257250946816 0  -0.01170944907483172 0.7111593122971768 0  -0.05413770987077431 0.8743835962820683 0  0.004955290146699037 0.4725577772227921 0  -0.3899287121894462 0.1556492124702229 0  0.549854071161488 0.1365912786236284 0  -0.4807575117590367 0.6843254151436295 0  -0.8522568939676682 0.3367576320214351 0  -0.0794766597830142 -0.5373943237643601 0  -0.01831034840860724 -0.5532205470268124 0  -0.2146522171450804 -0.2888632946650587 0  0.8681561127994042 0.1536713579065261 0  -0.1646058649358301 -0.6602205849630199 0  -0.8911394438360072 -0.531898035062666 0  -0.2849336516383409 0.3404270194805592 0  -0.6793782355130034 0.577676377048057 0  -0.898422681366071 0.5337112470848282 0  -0.8991739441809928 0.662503700557977 0  -0.6466236108951352 0.07385342891242415 0  -0.8596540965246423 0.02911911057002037 0  -0.8889471091240061 0.1702269325774194 0  -0.1320297577963138 0.2309056298747997 0  0.1614923705418398 0.4484812108688401 0  -0.04369923970797926 -0.1261146048055787 0  -0.7560100897659171 0.6733732173770579 0  -0.6062838151403515 0.7007709716109687 0  -0.2565909955991333 0.07950769268068408 0  -0.2530686512662743 0.6508486459507709 0  -0.0276315951004533 -0.006780164457862779 0  -0.4979552749000538 0.8766348344647463 0  -0.4803457478384567 0.4933775125828777 0  -0.293031048566222 0.1458752734444327 0  0.002596935628468642 0.0239799485808729 0  0.7810386948044933 0.6890046388933891 0  -0.4754293981989664 -0.8250483379585032 0  0.2723464919729982 0.1974771044699807 0  -0.1458954701035954 -0.861941693856525 0  -0.06185484935970615 -0.8276371588210887 0  0.4461221876951853 0.709058630843042 0  -0.1139819840788011 -0.2911479459809626 0  -0.2668891746379216 -0.02616314862045269 0  -0.8954155711107709 -0.8979384803453903 0  -0.5753254292577796 0.2409033003265659 0  -0.4788419461462949 0.08942301397158407 0  0.4940399897731577 0.8278202040741767 0  -0.02552207851047785 -0.2627850907740203 0  -0.3126277574951679 0.8745474735992299 0  -0.144560553413474 0.08126800350678863 0  -0.4715992519187203 -0.03466105741226534 0  -0.3900916197173578 0.01254600642274682 0  -0.2938150189553431 0.0280844573906753 0  -0.3870782755296281 -0.120657117679812 0  0.8885615805371528 0.7021302657906067 0  0.7949664766641901 0.9127156119172123 0  0.5771354281281523 0.2115517618373789 0  -0.5646169114970344 -0.4721298269999996 0  0.6016889520011734 0.7101905501874184 0  0.6808652176511637 0.890137683688727 0  -0.05188088277315693 0.3053625297424648 0  -0.9027611621813485 0.9052107915260691 0  -0.1286031518235853 -0.06750093512786565 0  -0.1702763803439748 -0.1830128549050039 
[...]
<PointData  Scalars="w"> 
<DataArray  type="Float64"  Name="w"  format="ascii">1.7539139031960616e-10  9.9629926675431639e-12  4.4827704328487636e-10  2.5912020183853275e-09  6.3158700162018519e-10  1.5497278857285407e-12  8.5868898197911870e-12  7.8377676904268903e-11  4.1469409290501089e-11  2.1471017258117251e-11  9.2079016502760565e-11  9.3056001006418635e-11  4.1962702369341746e-10  2.6705566478409772e-10  8.9166713883119761e-12  5.8162836196870818e-10  8.9341656333293129e-11  7.1800802227152143e-11  1.2804924671361572e-10  3.5299794710362134e-10  6.9645200213758923e-11  1.1168547228522450e-10  5.9124443986735988e-10  4.7941105096459635e-09  6.0305374762577167e-10  1.0460735997933753e-10  8.4474376518602655e-11  1.9985854239291035e-10  7.6428457673991102e-11  2.0142454806573071e-11  4.7614393840344448e-10  9.7924184615384604e-11  2.2441088179297040e-10  1.7745198666919650e-10  4.4037859701108931e-10  2.4088343105155747e-10  7.4412104717034138e-11  4.4821355089590540e-10  6.0830094365972942e-10  3.0251815198345820e-11  4.5907246856443703e-11  1.0294675613299432e-10  8.8591455257901597e-11  1.8832125303204695e-11  1.0916047462120255e-09  9.9236376592748101e-11  3.2639959699003831e-11  8.7107511309213259e-11  1.3798397629642749e-12  6.0485623920732721e-10  2.3001147045898329e-10  2.1743446185116415e-10  7.7764503791186772e-11  2.6512342562599950e-10  2.7431241833940311e-10  1.7575406212144045e-10  3.3679180524112285e-10  8.8729735223840472e-11  5.9809252615755110e-10  2.5392736620934841e-10  2.7910838929110399e-11  3.2980828049457114e-10  3.7212430361139971e-10  1.4609951680806728e-10  5.3250994682994064e-11  1.7681053582230290e-10  7.1909499898299626e-11  1.5867655235805070e-10  2.2677685334424983e-10  4.3802411773861347e-11  5.8244939284964935e-11  3.4061907230815667e-10  5.3795507768974564e-11  8.0816808131094470e-11  2.0282559063327282e-10  1.6692927664597864e-10  2.7065198620621947e-10  2.9526668389856696e-10  1.7818506236043701e-10  1.7980322659560274e-10  6.3389372814166489e-11  2.4926648601922555e-10  2.7333712746542921e-10  2.0122829960891729e-10  2.3992733805623874e-10  1.1671612011032580e-10  4.5397457509683049e-11  1.1181659276134573e-10  8.7401667375116924e-11  2.7288508574406628e-10  7.4212028973708474e-11  9.3877081416591077e-11  7.3552074505528797e-11  9.4765508834463386e-11  4.1259562509797003e-10  2.0493438024912473e-10  2.3602237882031062e-11  6.5088904733064114e-10  2.6350050197017219e-10  3.0451951223066595e-11  2.6049073902521706e-10  4.4530221874714394e-10  7.5611825280128189e-11  9.9360682008673092e-11  1.6090501182440161e-10  6.8048171205421928e-11  2.7142388385280846e-10  8.2543245372984746e-11  1.3748418263884161e-10  6.1385867057446808e-11  3.2082652471844814e-10  2.2560860540786492e-10  2.3351619186355243e-10  6.1002576315110323e-10  1.2116363825935526e-09  1.6206053159376295e-10  1.6236520115051122e-10  1.0927279387572591e-10  4.5400911246114742e-10  2.3173555046834103e-11  2.5080504065256484e-11  2.7780850098652376e-10  9.4603223160761332e-11  5.8753135338181611e-11  5.0730784487770661e-10  5.6065435396927142e-11  6.2118238436902300e-10  1.2252884977489033e-10  7.9370121092115368e-11  8.4227042392901021e-11  3.5071322818880459e-10  1.8059945982582534e-10  4.6075607979006464e-10  1.3403718022712222e-10  6.3449633541256651e-10  4.0752655212273113e-10  1.0653342969827815e-10  5.1280084533507855e-11  1.3372255097701085e-10  2.7593858918146865e-10  1.1526269725198674e-10  6.6248635609437717e-10  8.0078028623308104e-11  1.1539909266836364e-10  6.2247952789363568e-11  6.6969708126988209e-10  7.7473413384778847e-11  3.3938741119172283e-10  1.3874611876078361e-10  1.2529013795173769e-10  1.7863359194860265e-11  2.9339931747032996e-10  1.6433234751268717e-09  6.3172405509936180e-11  1.0083997975617785e-09  7.2582198516990583e-11  2.1234644920109966e-11  2.1546756597879562e-11  1.1871108967521381e-10  5.6610661391273637e-10  4.8062897196141955e-10  1.5873223806682641e-10  1.0371140108761812e-10  1.5781094246232829e-10  1.8860584992072379e-10  5.7114944292636850e-11  6.9918891381493245e-11  1.9248398593238876e-11  5.9403496256292218e-11  2.7464239386420090e-10  9.4647128311085349e-11  1.0571674112983300e-10  8.8431138913038157e-11  9.5225634370987742e-11  5.3320518039992876e-11  9.3937276882220453e-11  4.5577727116082887e-10  5.1957552788432651e-11  1.6457821715754455e-10  1.6468188178740552e-10  4.9640053247513765e-10  1.9257911889173316e-10  2.9251574965459272e-10  1.4949868511112503e-10  1.4242875336785745e-10  1.3879300968160656e-10  1.9965242818837006e-11  2.4964475252336491e-10  6.8546875272891405e-10  2.4119939849020149e-11  2.6393982627541533e-10  8.3218097444606366e-11  1.5831468841619883e-10  1.1769350721425843e-09  1.4052762723034758e-10  1.6737886308768933e-10  2.2621963865379439e-10  2.9060353609389429e-10  9.9197467592840354e-11  2.0304658513549733e-10  4.0040634395856841e-10  2.0203736390259877e-10  2.3786662009369047e-10  1.1014215814544941e-10  1.0736881351755013e-10  1.1398023967369533e-10  6.6666651429744497e-11  2.0856407603686610e-10  9.0363739229901322e-10  8.1138101324346462e-11  1.1048136628383298e-10  7.8202580030879779e-11  9.5226571271998604e-11  1.6536491441793183e-10  3.8269915749783160e-10  7.3821347442500894e-11  7.7690219506531527e-11  8.3014715426637446e-10  4.0622192752599924e-10  3.0979000985173787e-10  2.0344117999284655e-10  1.0339659937064021e-10  7.5070183416132001e-11  3.2822163717841920e-10  5.5849011523251098e-11  7.6030272162104908e-11  4.8440493972559411e-11  9.0163469489750578e-11  4.0805841914052008e-10  9.0443171316021175e-11  2.0306510471613391e-10  1.5828625513192475e-10  9.6345532429932142e-10  5.8552392371386316e-11  1.8764076302071601e-10  1.1836368402926480e-10  1.1237216832218764e-10  7.9072559031559899e-10  6.8007419707465692e-11  8.0497820073068743e-11  1.1596291356589520e-10  1.1765227606968619e-09  3.7891381899157049e-11  7.5616121557311151e-11  2.7742865647568985e-10  2.7732243280080538e-10  3.5665992134286464e-10  1.7241145799032540e-10  2.0710415035376433e-10  4.0034991465701468e-10  2.7237405089956560e-11  1.0209764422030531e-10  1.2581874018536353e-10  3.6527093974336410e-11  3.0480464015287188e-10  4.4465614455924199e-11  3.1779412616787094e-10  1.4100502001563398e-10  1.1046125188621767e-10  1.9475192810325835e-10  4.8758466390847695e-10  6.8272350198504309e-11  2.4903447485239610e-11  1.4802386707785337e-10  8.0700440627318291e-11  5.5917636072795013e-11  7.1277548258042784e-11  1.8822520649653327e-10  4.7691966954020536e-11  2.5779367810084677e-10  2.6066136522794341e-10  1.3126707846735514e-10  1.2823607685310848e-10  1.2098524754735236e-11  7.2353262651545712e-11  1.4453487692138161e-10  1.6251412184049789e-10  5.1018207625581881e-10  3.9210023269756316e-11  8.2404192115694557e-11  3.2085758184265839e-11  2.4414178924127371e-10  1.2245007937338380e-10  1.7436727357254517e-10  7.5098669612241005e-11  8.1419776497925766e-11  1.1996949709371751e-10  2.0587498987808814e-10  2.2006853969455475e-10  2.6761654834843355e-10  4.4022019339838451e-10  2.0991956862058532e-10  2.1020141323986417e-10  1.4624951862004092e-10  8.2252014778186640e-11  1.7121335821453594e-10  1.8019233542109910e-10  6.4938549262199870e-10  1.1998195472135344e-10  6.3860950644785238e-11  4.2626813002360868e-10  1.9443201859040837e-10  1.9146225418483666e-10  9.2550856679599141e-11  2.9562918042320360e-11  4.4175177127157394e-11  9.4835940325324734e-11  7.4328295126110524e-10  2.9181609525328762e-10  1.8621957498950297e-10  1.3531029352279172e-10  3.4452699829206448e-10  6.7863058534743269e-11  1.1448941243754016e-10  3.6421446587108468e-10  9.4132504891685555e-10  9.7621888956044636e-11  2.7948206186541204e-10  6.3354254955480618e-10  1.2499939291340425e-09  1.9751893927209858e-10  1.5698486653108136e-09  4.2595049897831512e-10  2.2431078257466695e-10  1.2770785040473648e-10  3.9865954797393791e-11  6.5790901522647061e-11  1.2328778662066331e-10  1.5720610245366452e-10  6.3294555695456812e-11  1.0084776071839922e-10  1.0911648649444187e-10  1.3652532707606669e-10  1.9336112838881198e-10  5.1873352270935120e-10  3.3518955872885202e-10  1.6197268239000020e-10  9.7950648696200150e-11  6.1845204477679946e-11  6.1395041629964485e-11  6.5378289513149829e-11  1.8535652728799812e-10  1.9514909124631367e-10  1.0445150713825857e-10  1.0246805643130133e-10  2.3468455431988371e-10  1.3386657455258769e-10  6.5627744577040498e-11  6.2675192226338174e-11  1.0493099817112311e-10  3.2739868425140413e-11  1.7134240225253395e-10  3.0480660331597515e-11  1.5825330457082342e-10  1.7361951684356046e-10  1.5860689089324405e-10  3.5929490692619546e-10  8.0885938991215930e-11  8.5878863970487083e-11  1.3304573177217268e-10  2.7114933773043761e-10  1.4962976396092680e-10  2.6290523115292860e-10  1.1282652540858572e-10  1.3131719498306917e-10  1.3999240652319565e-10  3.4868436156264412e-10  1.2909794936326019e-10  3.1648616841200495e-11  1.1011170805788667e-10  1.0898553482367820e-10  1.5267070122735016e-10  2.3364249382204697e-10  1.6077096059061796e-10  3.4747715004278206e-11  1.3221053665817505e-10  2.6235842234348633e-10  2.8046303091037289e-11  3.2576925295648648e-10  1.6938784626863205e-10  3.7989957961591051e-10  1.1732761808404590e-10  2.0901085292978385e-10  3.2848405319388552e-10  7.4439783705446627e-11  1.0459645458633112e-10  2.1348295861486481e-10  6.5585150174274103e-11  5.0555405585245909e-10  1.6467197959603920e-10  9.8673188090055760e-11  1.0528162566637916e-10  2.0300652831114659e-10  5.3188837236470391e-10  4.9738525341087472e-10  1.6579671012600247e-10  1.6212493744704511e-10  1.9401888970293239e-10  4.0200343466281244e-10  4.6868484445301018e-11  2.1138261382545573e-10  8.5733115403961839e-11  1.2629236068011550e-09  1.2432619524847015e-10  4.5786184462383246e-11  5.7599134218499652e-10  3.5499456382092600e-10  2.4691735587406554e-10  1.9017672774666902e-10  6.2406074211721973e-11  1.5181017760872778e-10  3.1614195160065775e-11  4.3794055469461126e-10  7.8666783068016124e-11  1.4245505214983527e-10  1.2810494009950376e-10  6.5038520200259678e-11  3.5140883322408284e-10  4.3934151751353440e-11  1.1367120053391593e-10  2.5207192531153874e-10  1.8014319950566720e-10  7.2247735608123577e-10  8.8360721073918955e-11  5.7017683925719923e-10  1.3417043697312759e-10  3.5295916174813370e-10  5.9830138318647688e-10  2.4686882582596500e-10  1.6032791040461123e-10  2.8034749676712701e-10  4.9273781467176189e-10  3.7116886240138846e-10  7.5100903382644667e-11  4.4145080518654866e-11  1.6808650419863668e-10  3.6223281541770199e-10  1.7370287769008675e-10  1.1581925057286441e-10  1.6754815123162645e-10  7.3704247344551865e-11  6.6317939192617707e-11  1.9305128507510403e-10  5.6050901618236735e-11  2.0746661762395809e-10  9.2738108044202672e-11  4.7667079692459006e-10  4.3978807224463682e-10  7.9588905924819708e-11  4.1987347177417952e-11  4.1832547056342428e-10  6.7999162691306780e-10  2.6067318673067325e-10  1.0254168079475602e-09  2.9655404469895729e-10  3.2001139051432845e-10  2.7158500373344526e-10  2.7190210648401416e-10  9.6238970317440068e-11  2.9148868043306443e-11  1.9348363844272196e-10  1.1607005964788690e-10  2.2197875958323715e-10  7.4359847644431197e-11  1.1018736264793431e-10  2.1953467588112640e-09  1.8064569951073204e-10  7.8311041896736794e-11  7.8090920108326099e-11  4.0526999142674071e-10  2.5018120063081867e-10  1.8932671919261429e-10  2.1919446497853834e-10  4.2016565080167542e-11  7.8634718050668920e-10  2.3890722863273551e-10  5.3986064185188119e-10  2.6329692987659632e-10  2.4514894680721343e-10  3.0132002716188389e-10  9.5416741046845995e-11  3.1500696622390864e-11  3.3355467208126658e-11  3.8407484249033606e-10  3.6267083988615337e-11  1.1628321047806952e-10  1.0110167895218351e-09  7.3101681759677989e-11  3.3558240697220595e-10  2.5758696565719764e-10  5.9412132142084834e-11  5.9367076101955364e-11  1.9155289854568612e-10  2.4232910948885537e-10  4.4716980724891603e-11  1.1715948250219312e-10  1.5528588399363848e-10  7.6807534938938273e-11  1.5809925185215934e-10  2.1833977702511584e-09  3.6677269549965791e-10  3.2437979616451106e-10  1.0945253216817847e-10  9.9819574534238913e-11  1.7756592096749367e-10  7.4677366127992473e-11  1.3009320769562695e-10  5.0737109979650252e-10  8.9073803256242744e-11  2.3066543373096683e-10  1.9377675402942716e-10  1.3414592022978126e-10  4.5112154114944200e-11  7.1185652460428051e-11  4.8286396202235846e-11  3.3282633402133136e-09  1.0852334829506219e-10  2.1692264993856401e-11  5.8324544623055958e-10  2.8094817938635980e-11  6.2942581877124590e-10  1.1411837512623112e-11  3.4788147711088752e-09  1.9546111392621583e-10  2.7407722991884047e-10  9.7933674695653421e-11  2.7995102689766545e-11  7.7412848857303283e-11  2.7025488486565788e-11  1.7487610046766051e-10  3.7949407636839176e-10  2.6851170521990057e-10  3.1588812691549005e-10  1.3014217062155486e-10  1.0122791351828270e-10  6.2663269191238535e-11  3.7897672661495285e-10  4.8998963200362075e-10  9.6216622089268369e-11  9.5880364655120544e-11  1.4692677537828475e-10  7.0136134235583850e-11  4.9115744491372328e-11  5.2223883297889957e-11  3.0946037575139307e-11  8.3890204356124191e-12  1.6527087892899917e-11  8.8668239981451723e-11  2.1134391679196913e-12  1.0148655716976234e-11  1.8737823267721793e-10  3.6109227114959529e-09  2.2551190880724576e-10  3.7463412928413882e-11  2.3248283540253196e-10  8.7871962360926713e-11  1.0741398837825085e-10  4.0500534438535838e-11  1.6456200408534889e-11  8.5045331155656811e-11  7.7420435999289820e-10  7.5813868610792650e-11  1.7383913323845355e-10  3.2455233831472353e-10  4.3081392515719512e-10  9.6287279366533989e-11  1.0353509847490423e-10  5.7851275313978721e-11  7.8969630341158617e-11  1.0454112725438236e-10  5.1680271318985896e-11  6.1245061497613319e-10  5.6172329855101569e-11  2.7654358103624470e-10  8.9414847799174440e-11  1.2568164779149754e-10  2.8969259083056649e-10  4.1180654733287984e-11  6.2253351567660160e-11  2.7423542065615135e-10  1.0905986735505131e-11  1.0814879656051086e-10  9.2088420131139968e-11  7.6326308313894361e-11  5.7770004677216981e-10  1.6578295893911697e-09  2.9421852628154890e-10  2.9069015347743902e-10  9.2438929283060341e-11  6.6049466144135959e-11  2.5471815723722332e-10  1.0884354977728807e-10  9.1182199079445539e-11  1.0554303023682727e-10  1.8578479604124538e-10  7.1624762260087262e-11  4.7113311709177028e-11  6.4813213639864213e-11  3.6645834881747491e-11  7.9266429420393881e-11  1.9532876283712584e-10  1.5913200602448509e-10  1.1114514168877222e-10  2.9083805407707573e-10  4.3694434503918268e-11  1.4031945275068412e-10  5.4222151687624844e-10  6.4584959796877366e-11  1.2649742402196388e-10  1.4853522800952904e-09  5.4166605888827582e-11  3.5312129045521241e-10  5.4807663022312433e-10  1.6269597274268514e-10  1.2596411310333521e-10  1.2595811116156959e-10  8.4232390920166182e-11  2.4292490725852677e-10  2.9550094243575141e-10  1.6974031539479979e-10  4.9100942346298744e-10  4.2828031127593543e-10  1.1738952857067519e-10  2.0042778336766081e-10  6.2623750909088340e-11  8.0938266108116023e-11  6.0186405862465811e-11  2.4141558610991147e-10  4.1454089883749259e-10  3.1177790737578587e-10  3.3643666952202188e-10  8.5878704708513172e-11  2.2622446014213944e-10  4.8596355801217568e-10  1.5417430927827488e-10  4.6754032269709549e-10  1.8909878139048980e-10  1.3286777384462932e-10  1.1125796073270234e-10  4.8814187863995518e-11  5.1593669005166045e-11  3.6747997167045059e-10  6.1998446960676927e-11  5.9267611119965697e-11  1.2145984926241159e-10  3.2513485493091735e-10  3.1232194293283490e-10  1.5920005755986472e-10  1.1624168181149248e-10  6.2374175190208207e-10  6.2359436435561609e-10  1.7100225355306476e-09  2.7339241989362742e-10  1.9263368500460069e-10  4.4082996136503174e-10  4.5922603776359967e-10  1.2441825399982589e-09  2.9570386835548925e-10  2.3164701295337454e-10  3.2898272381779559e-11  1.2432708713390938e-10  3.7401790478366941e-10  5.0651051899094489e-10  2.1493898626372499e-10  7.1102266364895585e-10  2.9602036927901187e-10  2.0862007056799754e-11  4.9467940598739115e-10  3.4251261644137784e-10  3.8984280345376553e-11  3.4266178838622320e-10  4.1083307519007351e-10  5.6525367531621783e-10  1.4695890913408485e-10  6.6846150742131261e-10  1.9654954362783782e-10  4.8589213437190734e-11  1.3129331576523355e-10  1.3476028588370968e-10  3.0866689639742445e-10  7.5694864544363453e-11  2.4244842181692074e-10  2.0071631027749364e-10  7.7764059074742352e-12  1.0653390486914752e-10  5.4996314440088258e-11  9.1246130442245675e-11  1.1997456386874264e-10  6.7137890235035820e-10  4.1327648536369281e-10  3.1870672335684482e-10  1.2198949214731880e-10  1.2590539158957331e-10  9.2600456916509755e-10  5.5468165045053529e-10  1.3093036720080822e-10  1.4354039063821940e-10  1.0023454049281440e-10  5.0389867965344844e-10  1.3328055905006402e-10  1.6865167068846292e-10  9.1506223223872659e-11  7.0520588420384286e-11  6.0575508486770682e-11  1.4510911363755349e-10  1.0024543309396363e-10  1.1872668596029882e-10  3.6343350339340272e-10  8.0210715081416951e-11  6.1255005052252227e-10  1.1301740765681219e-10  2.2762990304509093e-10  2.5547528845061212e-10  5.6924807519625096e-10  1.1692073747656302e-10  3.7533722777887119e-11  6.0279765756358117e-11  1.4550319635840756e-10  1.6324240919690813e-10  4.9987650189402342e-10  8.0864731785718743e-11  1.7073449805897564e-10  2.5747163669937348e-10  1.4693503935335188e-10  2.3480906725711488e-10  3.7085400832445488e-10  3.2161590472989165e-10  9.9393411318432370e-11  1.7218657162022749e-10  1.4762912980716948e-10  2.3151447898430918e-10  2.5973922108473939e-10  3.6867983290302079e-10  1.9911232101347336e-10  1.8055723390546997e-10  1.2795628878305636e-10  1.6619153052466398e-10  3.0112639600603815e-10  3.8446094112570946e-10  3.7194251450619344e-10  1.7271889322278523e-10  2.2260773491028726e-10  2.0326499927118543e-10  1.4449673415500166e-10  3.9109699118938093e-10  3.1745127055078033e-11  1.0400683501635155e-10  1.2562851856226423e-10  5.5442882329873240e-08  4.0406437904550059e-10  1.6749831511787730e-10  6.1544409208718588e-11  2.5629196669133156e-10  1.3090013783780167e-10  6.3696989290242436e-11  1.0254832251705704e-10  1.9934101923954549e-10  2.0777248055734595e-10  2.0610565914426708e-10  1.8166662309149535e-10  3.1507550701382791e-10  6.6488730860377747e-11  8.1300272817184027e-11  1.8589704672005520e-10  1.2528919185783346e-10  3.1754111645391952e-11  4.0359067865525623e-10  6.2864456766149033e-11  5.7952501844544485e-11  1.9762721233491854e-10  1.0145032500868448e-10  2.3380388326370948e-10  2.7677097664869537e-10  1.4688307078004467e-10  1.0335687828728982e-10  1.8735081595321054e-10  9.6940564588439866e-11  2.9754224441948206e-11  8.1092133743238684e-11  5.8603972289341744e-11  8.0358310748293678e-11  2.1700219660279541e-10  4.4577162785994630e-11  6.0296133832559689e-11  9.3838118015545821e-11  9.0192315617125320e-11  9.3510427829442502e-11  2.7286448262453534e-10  8.9631875040136362e-11  1.8828015938216953e-10  2.2936003419118003e-10  1.1208869306248061e-10  1.5916881621434325e-10  3.1930374570887136e-10  1.2346478234897717e-10  6.2185965511862078e-10  1.6503732639866815e-10  1.5139177863167540e-10  1.3812728852505380e-10  2.0857826469617588e-10  4.1826680169526992e-11  3.6965486904346025e-11  7.3214932910401873e-11  3.8739755733749396e-10  2.0076909728092559e-10  7.2950040169219475e-10  4.5008645291245687e-10  1.2088086279093371e-10  5.6082255005365809e-10  3.5455722496613932e-10  1.8649569857492055e-10  7.2400431308919053e-11  9.1658775307813390e-11  1.7867636544838751e-10  1.8922840872340355e-10  3.9546857774235751e-11  5.2586608500119486e-10  2.9783569690668060e-10  3.7066223404018332e-10  4.8117914369730058e-11  3.3899403094548114e-10  2.8327125927660406e-10  5.9592854250085727e-10  6.8263462993822403e-11  6.1794339671416524e-11  2.4044560815388540e-10  6.9279302646364013e-11  4.1206933352349129e-11  1.4026534532818418e-10  2.3782584148088516e-11  6