<?xml version="1.0"?>
<VTKFile type="UnstructuredGrid"  version="0.1"  >
<UnstructuredGrid>
<Piece  NumberOfPoints="4852" NumberOfCells="9430">
<Points>
<DataArray  type="Float64"  NumberOfComponents="3"  format="ascii">-1 0 0  -1 -1 0  0 -1 0  0 0 0  0.9999999999999999 0 0  1 1 0  -1 1 0  0 1 0  -0.5 1 0  -1 0.5 0  -1 -0.5 0  -0.5 -1 0  0 -0.1608775713298009 0  1 0.5 0  0.5 1 0  0.1967448868031411 0 0  -0.3443510898863256 -0.1766669551955633 0  -0.343030510655174 0.2287266123449747 0  0.1749363036856207 0.3508208353887966 0  -0.1890562537678938 0.560324374972861 0  -0.5088464963277198 -0.5416326474287512 0  0.4914171829653554 0.261133175169761 0  -0.06754737336208591 0.2046698377086099 0  0 -0.5061325913258391 0  -0.25 -1 0  -0.5704740067401156 0.5815642494527457 0  0.6649883530900833 0.6404678445014733 0  -0.1786071262610379 -0.5398368892534243 0  -0.5433126426417474 0.02587076000659038 0  -1 0.25 0  -0.210003901185932 0.02478666655828081 0  -0.6593115613329942 0.3175188935164678 0  -1 -0.25 0  0.03861574345663529 0.5963386075126664 0  0.1953677270398309 0.1320679872614882 0  -0.1380869310969791 -0.2209958745491592 0  0.3730301413772156 0.6188153078056656 0  1 0.25 0  0.5355652144809806 0 0  -0.75 -1 0  -1 -0.75 0  -0.6484479089359201 -0.3252207725331366 0  0.25 1 0  -1 0.75 0  0.02757118475249542 0 0  -0.25 1 0  -0.75 1 0  1 0.75 0  0.75 1 0  0 -0.02898318711980711 0  0.05276488891549633 0.1446636169131965 0  -0.078404861540926 -0.0270400422292649 0  -0.7049268974540135 -0.1334411736456929 0  -0.3255416318494932 -0.3500072771504193 0  -0.3460992677031818 0.442119043615198 0  -0.1010695658630339 0.766540606218658 0  -0.3893763072047968 0.7070093617666208 0  -0.05610912080027541 0.4039121397065661 0  -0.08077814508283619 0.07256443387012226 0  0.3603585053122436 0.3756780261610545 0  -0.722946741016125 -0.7357166257447734 0  0.4125343701232208 0.09245447272814752 0  0.690299093609772 0.1962403002901425 0  -0.7520504863501009 -0.5337126171281911 0  -0.3932195829937121 -0.7136110604227222 0  0.7216152362201758 0.4261096773648555 0  -0.7806764759446253 0.1002317063344005 0  0.2007071755231736 0.7033071820580371 0  -0.2027546109672165 0.2933543814326713 0  -0.8025707345315936 0.5845469829681214 0  -0.7253553200085837 0.7700015516454559 0  -0.0334681615558832 -0.3753112750612106 0  0.5896016639128235 0.8225807238943524 0  0.8242871934408368 0.8132325737993353 0  -0.09436903744045154 -0.6976156080783872 0  -0.5187933875909763 0.1687918317859697 0  -0.2061434190074854 0.1287662057562844 0  -0.3641080255295843 0.07720504016929218 0  -0.369992831227191 -0.05111462940398713 0  -0.5043576319925432 0.4007588581362699 0  0.375 1 0  1 0.125 0  -0.01309472799184945 0.07144844190685389 0  0.06178604910223583 0.3970746412175922 0  -0.174986047830041 -0.1222382038295202 0  -0.2497010303219438 0.7760144070303794 0  -0.625 1 0  0.5368230927339259 0.4607379200800844 0  -0.5828149198310726 -0.8326886202731769 0  -0.2607274095532497 -0.7851292260011802 0  -0.3246518448552578 -0.5110956231815131 0  0.8352479340945838 0.6016848975384044 0  -0.5561239360748916 0.7941460001971165 0  0.125 1 0  -0.06859484667219325 -0.09280795807862627 0  -0.5007703292064897 -0.1435575066274407 0  -0.875 -1 0  0.02779227916932126 0.04205956677748521 0  1 0.375 0  -0.875 1 0  0.05822030214584227 0.7979506954861489 0  -0.1974362734675241 -0.3755866913328632 0  -0.07512041897039184 0.5759220902526505 0  0.2381009229966611 0.5226992282253293 0  -0.7939246182924176 0.2358099505573062 0  -0.4998840252309847 -0.3917104376044206 0  -0.001133961454594845 0.2752182986621761 0  0.514343072227297 0.6457203120755827 0  0.4025978345915106 0.8108296276116908 0  -0.8073071280080268 0.4329045797078858 0  -0.06234311396004864 -0.2234659842277254 0  -0.7136246198468068 -0.01420696476769199 0  0.08994806924731068 0.0538839025791986 0  -0.4835439247826412 -0.2533971357165284 0  0.724791042205859 0.0851264809153917 0  -0.811668250922317 -0.4154294509789954 0  0.3385657714966702 0.1583457825012299 0  -0.7965383718992178 -0.2536970607783209 0  0.2376894119999917 0.2576926575036926 0  -1 -0.875 0  -1 0.875 0  0.1847859370064207 0.05050293795386727 0  -0.2512624407571206 -0.2293234781126762 0  -1 0.375 0  -0.1742158636823131 -0.04169267359838847 0  -0.6553434505073872 0.4735189698615683 0  0 -0.07736776745332727 0  0.08067284422337213 0.264326579542791 0  -0.375 1 0  -0.2240754536349487 0.4293248023314433 0  -0.1233413232326377 0.1532025458371277 0  0.1355601427069973 0.5581517827567908 0  0.1322528690674615 0.1976943641073526 0  -0.480874991989204 0.2744585253506313 0  -0.0461648253989603 0.01463812988434958 0  0.8492613729666199 0.3773658358209511 0  -1 -0.125 0  0.2875725880272983 0.8404947855942656 0  -0.1145599070739018 0.3175359150722904 0  -0.125 -1 0  0 -0.757503739517526 0  0.07821397079968176 0 0  -1 -0.375 0  -0.375 -1 0  -0.625 -1 0  0.7474787146812756 0 0  0.625 1 0  0 -0.2918843213980812 0  -1 0.625 0  -1 0.125 0  -1 -0.625 0  0.3284075310660084 0 0  0.004929205892015135 0 0  -0.125 1 0  0 -0.006571003003944568 0  1 0.625 0  1 0.875 0  0.875 1 0  -0.5688555099407183 -0.6812083700081298 0  -0.005873742999671296 0.1629394492080568 0  0.3645099654668321 0.2656765717012557 0  0.6542084111662897 0.2976558275455547 0  -0.8562965105091589 -0.6537915786871509 0  -0.869915926983964 0.7932041884187219 0  0.4318906749139422 0.5072570225700654 0  -0.4010167792328484 0.8585717299176735 0  -0.7846943828051824 -0.876404164541797 0  -0.8725658851571212 -0.7896010808640083 0  0.1587579864200958 0.8446897253459006 0  -0.6627129928390757 0.1581822483532803 0  -0.582147623973388 -0.06608791206461855 0  -0.8572280847437428 -0.06196712775018619 0  -0.3031581646857737 0.5666656150445215 0  -0.4311565291531601 0.5744980087640784 0  -0.3826428388651734 0.3371498562311518 0  -0.6220202051971614 -0.2179512267430624 0  -0.2763596238187707 -0.09040157876989736 0  -0.6460759065213953 -0.5950912094913722 0  0.8589027458828614 0.2671806879452617 0  -0.03305936055753612 -0.03221845791226469 0  -0.05660026495300412 0.1163545243505249 0  -0.1376000913240835 0.4369864815741055 0  -0.121149882683446 0.03378243764807759 0  0.538846827751546 0.06677714743570018 0  0.5819741758108197 0.366654024763541 0  0.6963184307347426 0.7810694865469454 0  -0.8030519973443584 0.884069538430779 0  -0.6485002116031904 -0.4324607947957652 0  -0.111788560310674 -0.3983956966986459 0  0.870797326607012 0.4963993438562004 0  0.07537000147037454 0.09598262151929189 0  -0.671601555407615 0.8722171895253009 0  0.4563295781973488 0.356202649562312 0  -0.02653714121437543 0.03552371274778206 0  -0.4131035390150073 -0.4446912698539215 0  -0.366693899178995 -0.2705975628086027 0  0.3258092385017508 0.4879373583426413 0  -0.2004125731534445 0.2046346369100787 0  0.7079880103037638 0.5372142143542854 0  0.26310438154333 0.3619221316114014 0  -0.3843597599668537 -0.8518445686353178 0  0.1108831616000775 0.6854996423188858 0  -0.2891141163397994 -0.6133969866260849 0  -0.4473058571967537 -0.6237470942532795 0  0.2994205526184426 0.6975144948365086 0  -0.8751930812298985 -0.1761921231012148 0  -0.1839234484236119 0.8584639783174427 0  0.4557623567895954 0.1683702401803418 0  0.2807065719641829 0.0487078053535668 0  -0.1459613116813884 0.660721354432117 0  -0.01300801161724419 0.7116092043272145 0  -0.05386166102184735 0.8787831120948206 0  0.004532253486862341 0.4746843639011796 0  -0.3935313365448266 0.1575717517673909 0  0.550964190650224 0.1367321643554215 0  -0.483704630040816 0.6868521225041905 0  -0.8525356895429178 0.340337072778905 0  -0.07694533041246583 -0.5380644746955578 0  -0.0130629498742984 -0.5532059235755525 0  -0.2157711427159644 -0.2894422675145683 0  0.8684611320918689 0.1547448387415679 0  -0.1709141426444671 -0.6615377196483049 0  -0.8890827031180375 -0.5340369677704713 0  -0.2874042358880586 0.3439889762086975 0  -0.6830146061118777 0.5804116981306505 0  -0.8981891123211813 0.5372978598378639 0  -0.9013614380940564 0.6668883823155217 0  -0.6485277095702328 0.0748233830626959 0  -0.8621211025961402 0.03058443985355097 0  -0.8901177751361339 0.1691551689176181 0  -0.1334636458652137 0.2330701220913188 0  0.1625130129396387 0.4520668990837862 0  -0.04468360060604535 -0.1258335263480719 0  -0.7601609444177628 0.6747332520005085 0  -0.6120110053658447 0.7016169860044563 0  -0.2589347441359018 0.08091926527056748 0  -0.2564557897475223 0.6535028906852299 0  -0.02692593143179936 -0.005468188838963339 0  -0.5020362858673687 0.8784737474362908 0  -0.4856778944416758 0.496524034194159 0  -0.2949470962462089 0.1473440939188493 0  0.001076304164837946 0.02276641049834935 0  0.7824805793388936 0.6911697899018565 0  -0.4759104066523562 -0.8273123580933116 0  0.2728685018473374 0.1996700550309803 0  -0.1474289743161422 -0.8641303224991682 0  -0.05698368585044603 -0.8273547220640073 0  0.4467353520542582 0.7116176097136437 0  -0.115650422126195 -0.290241059744875 0  -0.2691745427112596 -0.02527068371734303 0  -0.896928276024669 -0.8987830922605793 0  -0.5774714271864736 0.2445292520296227 0  -0.4803745892355787 0.09035243305595585 0  0.496424221254677 0.8305920706079747 0  -0.02543428603619936 -0.2655686104747413 0  -0.3160576414713671 0.8785539999351647 0  -0.1456974524921321 0.08232164766392969 0  -0.4740435421293887 -0.03399416874898357 0  -0.3933033654261168 0.01351213534579557 0  -0.2970944638879284 0.02906853498804813 0  -0.3899982783751062 -0.1208194181127084 0  0.8895800030771066 0.7041616373190458 0  0.7984060200302293 0.9143336247482831 0  0.5790305542876072 0.2125849372602835 0  -0.5633599493974045 -0.4740083742078878 0  0.6036468852197533 0.7122851902743752 0  0.6821643136037443 0.8923046431787548 0  -0.0537330923404445 0.3081926067196518 0  -0.9066598972810832 0.9080683135435084 0  -0.1297551339280186 -0.0662568828384263 0  -0.172368376927389 -0.1827150850513134 0  -0.255594285372893 -0.1446288789401145 0  0.03605945399916693 0.2052985557786023 0  0.9050870330181642 0.9008448718773476 0  0.8541993151805626 0.0595
[...]
<PointData  Scalars="w"> 
<DataArray  type="Float64"  Name="w"  format="ascii">1.4833168926042061e-10  9.1838086861462489e-12  4.4889981926037262e-10  1.4573709289718791e-09  6.3791164879286331e-10  1.4403946603019626e-12  8.1056814564423264e-12  6.4639068733132465e-11  3.4695312292369781e-11  2.2026427675666514e-11  1.1636570364457448e-10  9.7047744045906812e-11  4.3649444739437283e-10  2.3330659308877823e-10  7.8900398006193241e-12  5.8599149779306953e-10  9.1630113573000333e-11  6.9724462359852553e-11  1.3257340872973366e-10  3.6056284660563620e-10  6.2405013518359546e-11  8.6132482339945837e-11  6.1721024595792689e-10  5.4143883637019927e-08  5.7724912448671455e-10  1.0378674865773867e-10  8.5672908910255407e-11  1.6609473455456776e-10  7.8617415595254145e-11  1.8656458303885633e-11  5.2657385458080563e-10  9.3688545697606914e-11  2.4878439173589642e-10  1.8067676304035857e-10  5.1147692963340922e-10  2.3528288425211077e-10  7.7494562939285964e-11  5.0318478673076617e-10  6.2103275337257492e-10  2.6969265000468175e-11  4.1602302204185846e-11  1.1125281711846521e-10  8.1993680936188539e-11  1.3730636919825464e-11  1.0696049241739634e-09  8.4624365659736942e-11  2.7768137665278324e-11  7.7773660369571825e-11  1.7863581930287531e-12  6.1833247996591588e-10  2.2702723997126749e-10  2.2199950057661086e-10  8.1441308266263802e-11  2.6146253074483927e-10  2.2715441049168896e-10  2.3693383719403769e-10  3.7014119083433754e-10  8.6924017631270582e-11  6.0673984436623143e-10  2.5301247070151056e-10  2.9340398596691649e-11  3.3467701422655399e-10  3.6184913741567429e-10  1.2738354557480360e-10  4.6544891572070086e-11  1.7124828052732461e-10  6.0681778170068796e-11  1.9939616973310201e-10  2.5464577711396251e-10  3.7035781600371601e-11  6.2727575876328313e-11  2.9797428693713438e-10  5.0769520917348886e-11  7.8442704364933642e-11  2.1568838693387933e-10  1.7075819689200428e-10  2.4947350078547432e-10  2.7903132792326562e-10  1.9551374896992626e-10  2.0803477877100782e-10  5.6988745981411903e-11  2.3344931310190360e-10  2.9353661012257715e-10  1.9813908259828291e-10  2.2841471988145189e-10  1.2273825377270881e-10  3.2404293928053501e-11  1.0317274050073696e-10  9.3690292397657582e-11  2.6392095822274423e-10  5.8948473852437336e-11  9.5084014618715950e-11  7.2232775633785680e-11  8.3377992675195666e-11  3.8033629973952099e-10  2.1185249214193423e-10  2.1407541985932272e-11  7.0742693087278234e-10  2.6673279547203011e-10  2.4633046335495112e-11  2.8184329726461023e-10  4.7571811481137146e-10  7.0584097963024979e-11  8.4009090154988709e-11  1.4249110499670565e-10  5.7257073916997565e-11  3.0467085877207540e-10  8.1611252565459118e-11  1.5731062070307531e-10  5.8481595176912321e-11  3.1895901845995718e-10  2.8058430313593487e-10  2.3824781296906084e-10  7.1512107134531478e-10  1.3632075932062343e-09  1.1825349191475713e-10  1.6554926936294646e-10  8.3505313376342111e-11  4.8158866301508069e-10  2.3816034447161050e-11  2.0906780113241899e-11  2.8411587918113756e-10  8.9394890636789840e-11  5.6760106670305334e-11  5.2922681097271715e-10  4.8542560610192823e-11  6.0831623154185720e-10  1.0903704645253814e-10  6.9431135923164766e-11  7.6701486752063988e-11  3.5537696299223691e-10  1.5220553585765896e-10  5.1770508306451967e-10  1.1435036510792128e-10  7.3136247786173453e-10  4.5552869263137478e-10  9.7575231033794200e-11  4.3466257090449367e-11  1.3523142441674055e-10  2.7455434950900078e-10  4.7823866764913901e-10  6.4603982135227466e-10  9.1793139056908485e-11  1.0336398110676724e-10  5.1620657600872349e-11  6.6970332738067357e-10  7.4840472157279590e-11  2.5275685132644444e-10  1.3443546473296021e-10  1.1115952915259295e-10  1.7391458768184397e-11  2.9391215365661444e-10  1.3669076203442491e-09  4.7715374749694633e-11  8.9978721550635650e-10  6.2706006837594497e-11  1.6154799496350859e-11  1.8426464110044237e-11  1.3015689736126405e-10  6.0145713692837831e-10  4.1173413650675141e-10  1.5766598523324248e-10  1.0097975735007102e-10  1.4241139203920852e-10  1.9259692713913070e-10  5.0754724791021620e-11  6.8540879845094139e-11  1.6048070530639978e-11  4.8704857976494342e-11  3.1008638917897677e-10  7.9099335114431443e-11  1.0168336523752649e-10  6.7785964617284775e-11  9.0523939609784746e-11  4.6769392956005736e-11  8.6230139812632488e-11  4.8504169170116113e-10  5.1267084863815807e-11  1.5934125345961769e-10  1.7109551416552537e-10  5.1642312708224141e-10  2.1212678024597410e-10  3.1000788449493229e-10  1.3924781791423908e-10  1.4639735629527205e-10  1.5106378592133186e-10  2.0544586972683074e-11  3.2317400121261789e-10  9.2941470342387897e-10  2.0512764383981504e-11  2.5215967900100581e-10  8.4121928032539415e-11  1.6209723000749969e-10  1.3129142892802462e-09  1.3601366881915484e-10  1.6079326098098251e-10  2.5300920306348795e-10  2.9776096900643634e-10  1.0026738219043209e-10  2.0468711557075422e-10  3.9101042542559968e-10  2.5121883375670031e-10  2.4479885078376078e-10  1.1760758685900252e-10  1.0731550971146710e-10  1.0471564663919659e-10  6.6459928022155548e-11  2.2066046905454307e-10  9.5000693647675273e-10  7.1603362541137142e-11  9.1551314050770245e-11  7.7207155384773301e-11  1.0045752317716309e-10  1.5513678467685418e-10  3.8417053788547484e-10  8.3440693466074817e-11  7.9513917551283073e-11  1.4752165427528994e-09  2.4977576693989619e-09  3.0046419240593021e-10  1.9293237765335584e-10  8.4532839486088999e-11  7.3773892966249001e-11  3.6857757672124274e-10  5.2431630624395351e-11  7.9529002203794983e-11  4.3032690112643318e-11  9.5211245934136825e-11  3.9639303391652346e-10  8.0226353128180772e-11  1.9006220558293616e-10  1.7005101090922108e-10  1.0033125509768440e-09  5.3729646131886337e-11  1.9885468082889298e-10  1.1864992635516739e-10  1.0269753926619700e-10  8.7794969408286664e-10  7.3829364722880181e-11  8.2139771558678914e-11  1.1072089586926334e-10  1.3646669819109382e-09  3.5463376758640379e-11  6.5295760621885892e-11  2.8247025057116411e-10  3.0240317270875084e-10  3.9894495559184103e-10  1.9538555899329297e-10  2.1201688615081235e-10  4.4231479738923190e-10  2.4428456141720370e-11  1.0034106426216054e-10  1.3474373244240569e-10  3.3051272283390917e-11  3.2370419213712459e-10  3.2277600267685348e-11  4.1694276453025077e-10  1.2532179361979525e-10  1.0737151246298326e-10  1.8019491114780939e-10  5.6418681978954994e-10  7.3566129350286554e-11  2.2200907889193324e-11  1.3190246731735972e-10  8.3679646430482282e-11  5.6196051531421705e-11  6.2959542288312525e-11  1.7319060554699624e-10  3.5640262343411775e-11  2.9329279784848579e-10  2.6126068705968442e-10  1.1916185290883860e-10  1.3552392308884779e-10  1.0083083185855687e-11  6.6383578517364578e-11  1.5398978215972754e-10  1.5968242592053814e-10  5.5728539830729557e-10  3.2981426731871804e-11  7.6126230736190313e-11  2.6891078824021796e-11  2.4667501534568006e-10  1.1562614971937750e-10  1.8374522548300776e-10  7.3407184079155031e-11  8.3006281279888462e-11  1.1471492460126643e-10  1.9033688201799313e-10  2.3264761223812111e-10  2.4353581757169986e-10  5.0551275723324519e-10  2.3448514292334732e-10  2.0409997403774957e-10  1.4536677061606338e-10  7.5836331291780311e-11  1.5006611374631040e-10  1.5924802198248686e-10  6.6589027334533246e-10  1.3232681715924513e-10  5.1071162020940151e-11  4.3129474047962624e-10  1.8177070687292067e-10  1.9954981972281565e-10  8.3099838948527362e-11  2.7147130992741557e-11  4.1112298661149989e-11  8.7302082091228197e-11  7.7329209908030665e-10  3.0663836540287888e-10  1.7015125694657941e-10  1.3701068147272612e-10  3.4934886080137933e-10  6.4433162106672521e-11  1.0104107435590985e-10  3.8422988375426639e-10  1.9979503380565925e-09  9.2037215176028585e-11  2.8232194234533003e-10  6.4318847258626491e-10  1.3290211097910943e-09  2.0969778371621131e-10  1.6332462550300057e-09  4.7368331053998890e-10  2.2754399431592270e-10  1.1828548926565930e-10  3.5166126133060092e-11  5.7511467350129802e-11  1.2870841345634688e-10  1.3633490637510284e-10  5.3022222392221496e-11  8.9417925158051827e-11  1.0625755950721658e-10  1.0955329342489533e-10  1.8836178599766029e-10  5.8142785740321444e-10  3.1960676611997480e-10  1.7058258377334511e-10  9.0553897608574310e-11  5.5438865145411348e-11  5.8973419203124275e-11  7.2810564564298343e-11  1.7823085454614616e-10  2.6196938692815855e-10  9.9867017460892827e-11  1.0103011807332786e-10  2.2670855670263516e-10  1.3126848562304929e-10  6.4355500633996973e-11  5.3472813822621399e-11  1.0028059748771026e-10  2.9426168778454408e-11  1.9151295179875915e-10  3.3428608574765233e-11  1.6174765758087181e-10  1.8494784335276233e-10  1.7330688523629215e-10  3.8648058892317781e-10  7.4107337333518316e-11  6.8707059669404004e-11  1.5359018854153787e-10  3.5252853938967242e-10  1.5070778633935363e-10  2.5767427358392937e-10  1.0368901820338851e-10  1.3969092403281576e-10  1.6391217946420622e-10  2.9968767740469243e-10  1.2342482064760729e-10  3.0833025975362394e-11  1.1772757579991751e-10  1.1260706437092132e-10  1.3929935620549039e-10  2.4482345294381591e-10  1.6835701326332703e-10  3.0867240318960278e-11  1.2578876052175745e-10  2.3864223208019217e-10  1.9439778536699345e-11  3.4078341242715278e-10  1.6920314175109084e-10  4.0114041331497737e-10  1.2337255812812288e-10  2.4769897722081721e-10  3.1351022792526525e-10  6.7236906055202883e-11  1.0204091009191334e-10  2.3681496817999373e-10  5.6974971046074236e-11  5.0882722101883631e-10  1.4028061637111518e-10  9.0555074048689656e-11  1.1294464482330092e-10  2.1727458546441060e-10  6.6187779462590467e-10  4.7883661092135158e-10  1.5853421394956143e-10  1.8800882158485236e-10  2.2168957348830642e-10  3.9432781519284290e-10  3.9997097778178131e-11  2.3339898435575479e-10  6.8810003278685809e-11  1.3528891804022690e-09  1.0589225781736827e-10  4.4409014381937062e-11  6.1336067030037753e-10  3.5652859979934953e-10  2.4322693665347246e-10  2.3906384516278854e-10  5.5145465055909116e-11  1.4486274487309230e-10  3.3175293468730811e-11  4.5440533001924070e-10  7.2792909126859256e-11  1.1247782274889495e-10  1.3212293833221970e-10  6.6007924839239281e-11  3.4791192341198133e-10  3.3252211108898294e-11  1.0588016652281481e-10  2.6824971656049851e-10  1.7524944471196278e-10  8.0504812694446437e-10  9.2400462025755232e-11  6.2454966422826089e-10  1.4070579224078429e-10  3.5943961652812379e-10  5.2273420509136782e-10  2.3736292670554912e-10  1.5190618885440896e-10  2.7903059995354068e-10  5.3239337355794988e-10  3.9673023504067278e-10  6.1962542021184773e-11  5.0611613049638295e-11  1.6937872933624721e-10  3.9835726635966761e-10  1.9549428103181448e-10  1.1059051987739324e-10  1.4889822447695093e-10  7.5688406073889947e-11  6.6935607037994041e-11  2.1209563505505574e-10  5.4661044593336166e-11  2.1556899595827360e-10  9.2782157878897586e-11  5.5727606174410245e-10  5.7298702933716023e-10  8.1980106204917124e-11  3.3970005230542878e-11  4.7510801272000069e-10  7.0501456403788472e-10  2.5015916578615762e-10  1.1128952893898433e-09  2.9719917194141507e-10  3.3385869667518048e-10  2.8050378106984738e-10  2.6776633399140194e-10  9.6906296642148800e-11  2.4260712945533821e-11  1.9926536605511874e-10  8.6849546999352815e-11  2.0019752450084774e-10  7.4910558369732029e-11  1.2628975560662312e-10  2.0936947262069929e-09  1.7196427308594489e-10  7.3818642859875096e-11  8.2752731066444296e-11  4.5746968472155293e-10  2.3135696602513694e-10  1.8887384182635718e-10  2.0514261305723162e-10  4.1610514174674423e-11  8.3855989349224009e-10  2.6065786593137741e-10  5.6470481905166296e-10  2.7426930343063766e-10  2.1178835938578387e-10  3.1498224425640403e-10  9.0245053299380864e-11  2.9627548720860657e-11  3.1470601127875505e-11  3.9892939817780109e-10  2.7177663118917600e-11  9.3474288394694278e-11  1.2130498733713269e-09  6.9595914313981854e-11  3.1467559936310896e-10  2.6577963454435440e-10  6.3391008188880916e-11  5.3253801061717284e-11  1.5857148755623583e-10  2.6125160771462750e-10  4.2487945262427544e-11  1.0172019333347723e-10  1.6008701500093273e-10  6.8423916638947283e-11  1.7775399405977861e-10  2.1518290807253212e-09  2.9674968952732811e-10  3.1630989543440048e-10  1.0715104023703015e-10  1.0271968448272450e-10  1.6652543180179981e-10  6.1443329011963512e-11  1.2828267913231234e-10  4.8159991835455229e-10  7.8520371477832376e-11  2.2721676419153112e-10  2.3469096015891275e-10  1.4273134506624437e-10  3.9385140471124471e-11  5.8850210654414158e-11  4.1483952332395675e-11  8.0602771530859199e-11  1.0362029832102960e-10  2.1180295808564474e-11  5.8841908743836826e-10  2.6017673995321113e-11  6.5184384101025847e-10  1.2222395496858301e-11  2.5760423574432856e-10  2.0880624587105282e-10  2.5448884623152308e-10  9.6722228260684493e-11  2.3443622702597279e-11  7.8286591811369609e-11  2.5273943834118621e-11  2.1571185368054284e-10  3.8244236247330539e-10  2.4706358110446561e-10  2.3047010342222328e-10  1.3286850727697618e-10  7.7093213087545632e-11  5.1072177626515554e-11  3.7223550499269091e-10  5.3302753343064880e-10  1.0988416885250777e-10  9.4966351406955132e-11  1.3418324503700271e-10  7.3369034982147161e-11  4.2779004078839980e-11  4.0107947679543118e-11  2.4527755330361798e-11  8.4179683967092366e-12  1.4893192468960937e-11  7.7920047608367245e-11  1.5906542063393079e-12  7.9162645055612021e-12  1.9356374881398178e-10  3.6999896630888941e-09  1.8817686646575961e-10  3.0669016457858049e-11  2.2304421411989903e-10  9.5602222903868386e-11  1.1468181155072164e-10  4.1329123157860052e-11  1.3049999513786315e-11  6.5656465341200064e-11  8.6120914213770298e-10  7.1871874037143785e-11  1.9085595688590792e-10  3.3706794981985410e-10  6.2095645932966890e-10  8.7525636795494601e-11  9.8327755303824203e-11  5.2999720775662535e-11  7.1160910948504975e-11  9.7085337329016815e-11  5.3868899536542686e-11  8.2454654697394755e-10  5.7181498112809033e-11  2.9270453086414188e-10  7.5570475574979034e-11  1.1697948675584887e-10  3.0827955606417776e-10  4.0409289958517141e-11  4.7716715667739509e-11  2.5582459792741343e-10  9.9776196428157117e-12  1.1715386513642814e-10  7.7047187533998975e-11  6.4812647128068759e-11  5.8982568878478157e-10  1.7974349601849032e-09  3.6031780191988157e-10  2.8712032763677566e-10  8.2716991070180589e-11  6.9176144350672439e-11  2.5743364253438704e-10  1.1531040716400696e-10  8.8275578212988679e-11  9.5089853007723764e-11  2.1338295676938345e-10  7.2077527836381936e-11  4.5639217874408959e-11  5.7711812719603770e-11  3.5527100942029095e-11  8.2248944888585614e-11  1.9122227353888286e-10  1.7317459533696035e-10  1.0959699049074749e-10  3.5219749940198477e-10  4.2345399484147314e-11  1.3863966516488140e-10  5.4754103103350178e-10  5.6737619286939569e-11  9.4799303535915562e-11  2.3278015047766941e-09  6.1455764469123191e-11  3.7042966001266586e-10  5.6313678873597016e-10  1.5581432907399801e-10  1.1587785187848321e-10  1.2422455731872709e-10  7.4571656582319196e-11  2.4940548423087068e-10  2.9827873654720502e-10  1.7928583046553269e-10  4.7372233004743119e-10  4.6091245916778740e-10  1.2385329411982962e-10  2.1093647458302400e-10  6.1918573567542320e-11  8.2342986385026378e-11  5.9680839723309340e-11  2.3834041004696953e-10  4.0049237950536831e-10  3.1068803356179128e-10  3.5588713208143678e-10  8.3601053912059949e-11  2.2153297609330207e-10  4.8196911549454867e-10  1.7814456654665924e-10  4.9932394772219110e-10  1.6873042933521223e-10  1.2935133332318023e-10  1.0502908969353512e-10  4.7083297470777959e-11  4.9077663510305926e-11  3.7953173043334672e-10  6.1060743545688778e-11  6.1807930518804111e-11  1.2858139456563536e-10  3.2446594524133945e-10  3.7142898489235051e-10  1.5546288617318502e-10  1.0710504490381161e-10  7.0002534628892840e-10  7.1278159961476626e-10  1.9492549647406770e-09  2.9457795004889366e-10  1.9654517586876580e-10  4.6783472790654474e-10  4.6923165994018284e-10  1.3643826358373446e-09  3.2564536021028804e-10  2.4597475062727121e-10  2.7715547803654378e-11  1.2007375345477513e-10  4.6534008435909833e-10  7.4473247898860064e-10  2.3166455558804255e-10  7.7627388359478566e-10  2.9764794663550755e-10  1.6654189050005915e-11  5.0555689653932510e-10  3.2536312104972088e-10  3.5670732896838410e-11  3.3255843976626194e-10  3.9771407536914302e-10  5.5626889266196358e-10  1.4482957785116587e-10  7.4490044286926753e-10  1.9248421080337361e-10  4.1935095276470578e-11  1.2109485388332831e-10  1.2761460390561981e-10  2.7743892259176678e-10  6.7970395775564918e-11  2.9567180167356508e-10  1.7256788610526805e-10  5.8699582792542642e-12  1.0608896606855538e-10  5.3573968146121964e-11  8.5659491399935223e-11  1.1988791144243035e-10  6.4438128530504719e-10  4.5051489187774889e-10  3.1356292050496221e-10  1.0894203035370762e-10  1.3481385190118144e-10  1.0562608358679045e-09  6.3845457817309772e-10  1.4289225062620768e-10  1.3839118657027729e-10  8.0233314171994505e-11  5.2207348569222046e-10  1.4207456079598241e-10  1.8154167322442817e-10  9.3429139859509889e-11  6.3333592899399175e-11  6.0979403045519287e-11  1.5153602507479031e-10  8.4804613072340396e-11  1.3734137267206569e-10  4.8083127579237200e-10  6.7454332890796311e-11  6.6680252695354986e-10  1.2845951448869436e-10  2.2633889721742199e-10  2.9445717295789814e-10  6.1384834314644063e-10  1.0560339682785692e-10  3.7327035029620281e-11  5.4541001859896772e-11  1.3694105883415625e-10  1.4539214520822937e-10  5.4721023067338861e-10  7.5420133251837880e-11  1.3394144575283949e-10  2.1880550727791357e-10  1.2648518406242559e-10  2.4345332465842771e-10  3.3306175620136300e-10  3.4014375559749107e-10  1.0999459387659642e-10  1.8868900137359326e-10  1.5429428129083477e-10  2.2789405473390463e-10  2.2220434053700660e-10  3.9958362671514659e-10  2.0474996773784436e-10  2.0336044097941514e-10  1.1692118878103578e-10  1.4809574248293766e-10  3.1439460267451719e-10  4.1264424244529194e-10  3.8092842928098202e-10  1.6185906181312083e-10  2.1232481065332203e-10  1.9181900767540131e-10  1.3993145164557729e-10  4.0632667712640524e-10  2.5659695144318838e-11  1.0582398534205866e-10  1.2815880160274968e-10  3.3572928730551877e-08  4.2501067563327001e-10  1.7498169775767262e-10  6.1488151578784063e-11  2.7717025807764819e-10  1.4469193089303343e-10  5.9652347686149510e-11  9.9199591964668829e-11  2.1011164219252157e-10  2.0368647542798727e-10  1.8296656005488816e-10  1.9619369172515157e-10  2.9186852539852020e-10  5.4623872201452168e-11  7.6222381189906446e-11  2.0584063362809052e-10  1.2381577330327295e-10  3.2923400738008500e-11  4.2584945399520198e-10  5.6751367312088219e-11  5.6469413618790452e-11  1.8649881343168838e-10  8.7991119469996558e-11  2.3972038367039431e-10  3.1586765792396597e-10  1.2629568492176013e-09  7.7251707981539676e-11  1.7062464596254080e-10  9.0901100839571887e-11  2.5805626120886622e-11  7.9403922370133243e-11  4.7207608625218042e-11  6.8435092074670507e-11  2.3772465048177296e-10  4.1848695971707948e-11  6.0139716697280417e-11  8.2930679146157957e-11  8.2184882930909677e-11  9.0432485492076225e-11  3.1621224466363084e-10  8.1828049672314212e-11  1.6837488210335123e-10  2.0500349062226768e-10  1.0184728394975052e-10  1.5414522886655693e-10  3.1569270313948647e-10  1.1606271390803609e-10  6.6688531354839033e-10  1.7984726819184560e-10  1.4835092730271422e-10  1.4598466053389793e-10  2.1108312322507456e-10  3.8843077940404194e-11  3.5119777581666684e-11  7.0464802635238031e-11  5.5403063195695425e-10  1.9045895801220480e-10  7.0738798203521748e-10  4.8156018520394793e-10  1.1807606583284266e-10  6.3140510487204943e-10  3.6832583670050453e-10  1.9758807405588698e-10  6.5083151536360362e-11  8.3163626590684311e-11  1.6531848704934754e-10  1.9231688223743673e-10  3.4349008719989772e-11  5.1368644322047321e-10  2.7509728443768491e-10  4.4668835126500258e-10  4.2633047117206549e-11  4.1045859452393418e-10  2.4848641162305179e-10  6.0046501501607596e-10  7.5517083890780905e-11  5.4563869674439484e-11  2.6069692755992598e-10  6.6755992993254230e-11  3.5818105231582858e-11  1.3030055655005687e-10  2.0773600392249644e-11  5