<?xml version="1.0"?>
<VTKFile type="UnstructuredGrid"  version="0.1"  >
<UnstructuredGrid>
<Piece  NumberOfPoints="4852" NumberOfCells="9430">
<Points>
<DataArray  type="Float64"  NumberOfComponents="3"  format="ascii">-1 0 0  -1 -1 0  0 -1 0  0 0 0  1 0 0  1 1 0  -1 1 0  0 1 0  -0.5 1 0  -1 0.5 0  -1 -0.5 0  -0.5 -1 0  0 -0.1608775713298009 0  0.9999999999999999 0.4999999999999999 0  0.5 1 0  0.1967448868031411 0 0  -0.340876389313125 -0.1758775117287315 0  -0.3370745932360302 0.2243947820252281 0  0.1738360441926982 0.3464511191319233 0  -0.1852828806463075 0.5551093656151113 0  -0.5038977308665814 -0.5376552038850207 0  0.4905188819088787 0.2574181504481615 0  -0.06462930280627964 0.2012504583394277 0  0 -0.5061325913258391 0  -0.25 -1 0  -0.5614078353837743 0.5774615909444513 0  0.6615565323192864 0.6340983871962143 0  -0.176469334105103 -0.5379114886125392 0  -0.5391153728766178 0.02549069621759814 0  -1 0.25 0  -0.2064231935414245 0.0238278816317214 0  -0.6546282737864662 0.3094647465224979 0  -1 -0.25 0  0.03898067684530541 0.5918934763897469 0  0.1951117788046149 0.1290905132971339 0  -0.1363674162872205 -0.2201013792531669 0  0.3710780372686315 0.6146730007999162 0  1 0.25 0  0.5355652144809806 0 0  -0.75 -1 0  -0.9999999999999999 -0.75 0  -0.6451604853725539 -0.3232127003406529 0  0.25 1 0  -1 0.7499999999999999 0  0.02757118475249542 0 0  -0.25 0.9999999999999999 0  -0.75 0.9999999999999999 0  1 0.75 0  0.75 1 0  0 -0.02898318711980711 0  0.05410736489081385 0.1424999217107774 0  -0.07784290464708683 -0.02784028451711 0  -0.7012003039178699 -0.1324561856616476 0  -0.3217040055223815 -0.3474997241952118 0  -0.3404153637538568 0.4374728548472342 0  -0.1001407518342441 0.7643398968549109 0  -0.383299309192763 0.7026812654530066 0  -0.05509937533258184 0.399134125150866 0  -0.07914667909419495 0.07206160889432325 0  0.3589242830623277 0.369883063964831 0  -0.7160844435211897 -0.7300734728329873 0  0.4118916545547625 0.09007741162732275 0  0.6899725053488192 0.1918443330277465 0  -0.7474273072882699 -0.5271699399691859 0  -0.3876479197524892 -0.7106858917393352 0  0.7215799347361358 0.4189454151735153 0  -0.7760865450208054 0.09704522921560932 0  0.1966790362999276 0.6988053459351774 0  -0.1989744766670383 0.2886542754970274 0  -0.7989313868740926 0.5774580117233638 0  -0.7167442379902094 0.7663535812337749 0  -0.05103611147013588 -0.3737045103217808 0  0.5847721464372694 0.8166262450874164 0  0.8203873911293637 0.8059839527758683 0  -0.106249723568654 -0.6972567590512045 0  -0.5147234306397318 0.1628176949910338 0  -0.2021177925811376 0.1257414150506501 0  -0.3594489088814884 0.07540455185262135 0  -0.3653770743630537 -0.05235560857369398 0  -0.4967939978464992 0.3951599047345842 0  0.375 0.9999999999999999 0  1 0.125 0  -0.01201257505071178 0.07137312170360154 0  0.06194035934966285 0.3921081879517126 0  -0.1715490521921433 -0.1225017947833524 0  -0.2430402080695117 0.7737229258439818 0  -0.625 1 0  0.5334238956206467 0.4546091100621443 0  -0.5760823575559599 -0.8301131511220476 0  -0.2576402799756102 -0.7836079058987789 0  -0.3198056812144892 -0.508625879065288 0  0.8339789306616915 0.595452504689223 0  -0.5487078944834463 0.7908402126096591 0  0.125 1 0  -0.06752714309261421 -0.09351184693754233 0  -0.4947145999596295 -0.1432989392092074 0  -0.875 -1 0  0.02953068955878295 0.0417165528927248 0  1 0.375 0  -0.875 1 0  0.05719262113244072 0.7940762841547666 0  -0.1960436495832907 -0.3739174687778204 0  -0.07306419786129116 0.571241523653452 0  0.2363840745374379 0.5181847418712405 0  -0.7923625450346192 0.2295001893736759 0  -0.4952409708902034 -0.3892693979433056 0  -0.000121114050488171 0.2714106413931229 0  0.5099853359295443 0.640417193357403 0  0.3989025574288711 0.8074533484524232 0  -0.8061991693477593 0.4244779075252981 0  -0.06429695933352593 -0.2207108308130333 0  -0.7097051223758085 -0.01412925927130749 0  0.09053100248212087 0.05261842930521005 0  -0.4782883583354371 -0.2514193478834328 0  0.7238499478801784 0.08295559993647784 0  -0.8086028460090777 -0.4111921698590064 0  0.3375684038365684 0.1538554772758524 0  -0.7945053483331336 -0.2509019531484135 0  0.2362946584726911 0.2546717595624746 0  -1 -0.875 0  -1 0.8750000000000001 0  0.184339488009678 0.04803525619852357 0  -0.2476053783267475 -0.2292958458847001 0  -0.9999999999999999 0.375 0  -0.1712915426358707 -0.04179595785062012 0  -0.6489215081811534 0.4675551552635765 0  0 -0.07736776745332727 0  0.08026876247381802 0.2602110582039841 0  -0.375 1 0  -0.2171416819134511 0.4249685170962927 0  -0.1203398583056652 0.1503300805561861 0  0.1330952756879741 0.5544538796001905 0  0.1318684936812393 0.1941020888894462 0  -0.4749789224591092 0.2696727188222627 0  -0.04633079022999625 0.01392951793296883 0  0.8513873898398975 0.3704280750274973 0  -1 -0.125 0  0.2855892602771292 0.8369900284782131 0  -0.1110397772751316 0.3132992416869927 0  -0.125 -1 0  0 -0.7575037395175259 0  0.07821397079968176 0 0  -1 -0.375 0  -0.375 -0.9999999999999999 0  -0.625 -0.9999999999999999 0  0.7474787146812756 0 0  0.625 1 0  0 -0.2918843213980812 0  -1 0.625 0  -0.9999999999999999 0.125 0  -1 -0.625 0  0.3284075310660084 0 0  0.004929205892015135 0 0  -0.125 1 0  0 -0.006571003003944568 0  1 0.625 0  1 0.875 0  0.875 1 0  -0.5627544345492228 -0.6765356411041675 0  -0.004899758656815042 0.160496127049022 0  0.3623854188585183 0.2634694595883854 0  0.6529896703405172 0.2942795621573798 0  -0.8547252623020799 -0.6466966074643626 0  -0.8634493819677552 0.7870997420531951 0  0.4305025531322116 0.501754681279304 0  -0.3985931137282254 0.8558435690414904 0  -0.778783165212631 -0.8748586573056933 0  -0.8705177377127548 -0.7844175345226673 0  0.1541091679802856 0.8423398363894892 0  -0.6586953404167034 0.1528250812663622 0  -0.5778355718986979 -0.06415353517393714 0  -0.8546347229316504 -0.06255774706907202 0  -0.2961950754492442 0.5623714656159097 0  -0.4238645607239898 0.570081002621064 0  -0.3763030507701817 0.3312681968788916 0  -0.6185252188970758 -0.216483493615578 0  -0.2731013129614407 -0.09010191460026565 0  -0.6401421735148756 -0.5887336295000445 0  0.8597006662824752 0.2661773762696362 0  -0.03286532668682965 -0.03297815842005525 0  -0.05499600933265897 0.1147749120927423 0  -0.134005682413986 0.4323167268031819 0  -0.1200481066680864 0.03244767521109208 0  0.5377741371748007 0.06474028515713555 0  0.5792536789772424 0.3597934089007395 0  0.6914502560281673 0.7749712745842414 0  -0.7934778511380342 0.8811471317230537 0  -0.6433720733439594 -0.4294134067914497 0  -0.1165705816941858 -0.3973444709377026 0  0.8721550040797433 0.4889252592055029 0  0.07591410719990521 0.09410813486121643 0  -0.6646591504111 0.8681721973198406 0  0.4546569064866137 0.3511223794417031 0  -0.02644029078348547 0.0359061217268786 0  -0.4091984981686915 -0.4404985133256166 0  -0.3620156844735968 -0.2689952871260191 0  0.3235231204499248 0.4822177516346289 0  -0.1963909982708779 0.2017423424123171 0  0.7056818023376722 0.5312701606645966 0  0.2617576317177623 0.3565604286002178 0  -0.3766956447977884 -0.8518217756175599 0  0.1090717384662668 0.6823188681269859 0  -0.2849435709397333 -0.6121550049610067 0  -0.4413701446225103 -0.6202734927254328 0  0.2962059583833483 0.6926304086138702 0  -0.8749799336338682 -0.1748270329122373 0  -0.1801883340614011 0.8550060664704117 0  0.4547789470575708 0.1637667413663742 0  0.2803165154866573 0.04681838986513109 0  -0.1425861340168135 0.6577624522539773 0  -0.0115618262658234 0.7089331876034812 0  -0.05345996541606744 0.8751020365745991 0  0.005166071475892697 0.4702440575774257 0  -0.3880271980592572 0.1536879411815382 0  0.5491830225285511 0.1335079053806998 0  -0.4760457216663578 0.6826154962057263 0  -0.8515944210564481 0.3329317181756547 0  -0.0913327768439284 -0.5364271477076333 0  -0.02744108140836586 -0.5521620908014435 0  -0.2137019652983153 -0.2879364921689185 0  0.8684742820095438 0.1516433291624261 0  -0.1699730835069123 -0.6610760763687599 0  -0.8893125008491167 -0.52858577944868 0  -0.2820519513251765 0.338619261358278 0  -0.6764438535149638 0.5743105892695255 0  -0.8975067844714231 0.5314983925543618 0  -0.8984089125472003 0.6609911443903758 0  -0.6446351497448664 0.07248164545184568 0  -0.8592217494278187 0.02859696096900754 0  -0.8882469769624552 0.1679666806531209 0  -0.130475857859173 0.229282927598111 0  0.1602481883973644 0.4466727580214965 0  -0.04359200594447257 -0.1258798033128183 0  -0.7535530917659968 0.6701944274830857 0  -0.6026177922938659 0.6981603258388743 0  -0.2547847828722058 0.07868478299493228 0  -0.2496103326003076 0.6490748527402453 0  -0.02749906715607637 -0.00639536445042666 0  -0.4944965096367868 0.8770550548356529 0  -0.4771254513796412 0.4907937136000575 0  -0.2908406377089872 0.1442700935029833 0  0.002228238082303054 0.02369000437699604 0  0.7795874385439202 0.6839108892442284 0  -0.4699811685381903 -0.8247761514036362 0  0.2719616493127159 0.1954363435933544 0  -0.1489146605895716 -0.8632609925064771 0  -0.06572920155058062 -0.8297036516675499 0  0.4434602290338874 0.7063242100661515 0  -0.1173333809334052 -0.2885220382352898 0  -0.2652565975066955 -0.02616176240713937 0  -0.8938685010972632 -0.8965461423016108 0  -0.5732111951194485 0.2374383017077565 0  -0.4765118987541093 0.08773093098776172 0  0.4913027847511363 0.8260252602822896 0  -0.028381564388435 -0.260397175907863 0  -0.3101966907726109 0.8754187087760237 0  -0.1433602933591049 0.08068242236777372 0  -0.4696274539023781 -0.03487185247174607 0  -0.3883535851986945 0.01219050954450688 0  -0.2921142824550063 0.02765373305504605 0  -0.3852304314260477 -0.1205145266927476 0  0.8882057168035423 0.6982174470956767 0  0.7927333007515233 0.9108266120348421 0  0.5766587348961514 0.2083493252084409 0  -0.5602319918283185 -0.469626989581353 0  0.599005186941039 0.7063218143227863 0  0.6783049509421982 0.8884647894535195 0  -0.05135151653203116 0.3035577460749017 0  -0.9022260066754512 0.904700346134783 0  -0.1277161814564298 -0.06720394884290451 0  -0.
[...]
<PointData  Scalars="w"> 
<DataArray  type="Float64"  Name="w"  format="ascii">1.7376506908601751e-10  1.0329649581105795e-11  4.4505693775368561e-10  2.6606928236212230e-09  6.2424666465255346e-10  1.5639747409206630e-12  8.6707448428239524e-12  7.4776958630147652e-11  4.0430898520434225e-11  2.1080754204268109e-11  1.0698809521751295e-10  9.5860152198153613e-11  4.0466219878154947e-10  2.7555137517248057e-10  9.1126711072844647e-12  5.2849562550006091e-10  9.0921015329062896e-11  7.2146030474546564e-11  1.3076487546316523e-10  3.5410279038324660e-10  6.7102886510141521e-11  1.0450694692260376e-10  5.7478509478722516e-10  2.4877165266770271e-09  5.7794939872895476e-10  1.0803616512396245e-10  8.8542578108825446e-11  1.7033953644394576e-10  7.6473713663062150e-11  1.8812587240333903e-11  4.6850479267188284e-10  9.7616739399730798e-11  2.4175120370692088e-10  1.8003764252920511e-10  4.5626670589795545e-10  2.2621380154496541e-10  7.7694334666156438e-11  4.7669093920948250e-10  5.8808434622984533e-10  3.1110723149706256e-11  5.2126472054011958e-11  1.0761474750609354e-10  9.2183232099298732e-11  1.9617722819631616e-11  1.0568576977337585e-09  8.8301455546138259e-11  3.2015960489980175e-11  9.5832383730538923e-11  1.2460000582116875e-12  5.9261017327966423e-10  2.2194652606057228e-10  2.1469160781906128e-10  8.2207825735198411e-11  2.5242284354824565e-10  2.5933879805463398e-10  2.0290849977106240e-10  3.5519099857769597e-10  8.9072006153068742e-11  5.8190741576538451e-10  2.5148621948968694e-10  3.1151217388105171e-11  3.1520077481510083e-10  3.7856139899834096e-10  1.4346474047694139e-10  5.3941062414107645e-11  1.7788523027270862e-10  7.0414687445793110e-11  1.7754729998566423e-10  2.3289480447995290e-10  4.5766645589380917e-11  6.4418316229871327e-11  4.2975627933939950e-10  5.6474840666727170e-11  8.7801141355886861e-11  1.7289565212402572e-10  1.6984725021455490e-10  2.5709673120316867e-10  2.8951828297024194e-10  1.8239056969706644e-10  1.9409978948904115e-10  6.4826482927930910e-11  2.5224930353998955e-10  2.6494237184986720e-10  2.0039273264154765e-10  2.3428745407231173e-10  1.2407237857220150e-10  4.6366817784282330e-11  1.0970254339896457e-10  9.4375159086395492e-11  2.5243541905690975e-10  6.9219664810179499e-11  9.8890185918182194e-11  7.7902278596803633e-11  9.4064693088657965e-11  3.9075057166929429e-10  2.0905099812396474e-10  2.5416358617865278e-11  6.5869756459722438e-10  2.5641962089185005e-10  3.1510007405923919e-11  2.7539459248359655e-10  4.1383732388142389e-10  7.1223616521753601e-11  9.7030937245299355e-11  1.5650327346303213e-10  6.3836566873423296e-11  2.7391028730514357e-10  8.3013364627405880e-11  1.4614425907294537e-10  6.5703307611706686e-11  3.1277968094411071e-10  2.4569691110010061e-10  2.3349882040177593e-10  6.4234628701810817e-10  1.2113233821916912e-09  1.4923940165853079e-10  1.6598680092039661e-10  1.0246375833485710e-10  4.5911092179230336e-10  2.5839451223156829e-11  2.5616027224840291e-11  2.7911099909709311e-10  9.1678889473190361e-11  6.1021478119545241e-11  5.0305873834494838e-10  5.7252406392721511e-11  6.0185664718529741e-10  1.1871426367363406e-10  7.6926544294478503e-11  8.2501102301467993e-11  3.4280976808056470e-10  1.7227270862603482e-10  4.6532403774032057e-10  1.3465735202863389e-10  6.2563509155484537e-10  4.4182082976685331e-10  1.0868266668136308e-10  5.1922024758776852e-11  1.3008219514516269e-10  2.5732465901386471e-10  4.1962303647347722e-10  6.0886340032686140e-10  9.2282630282446684e-11  1.1939883284850359e-10  6.8479185734430214e-11  6.5685152685841731e-10  8.5602161216524937e-11  3.3364165061648820e-10  1.4716028724055886e-10  1.2369753370261857e-10  1.9960763893291151e-11  2.8385500933085482e-10  1.5944498693853972e-09  5.7053044911298844e-11  9.7377271585241896e-10  7.8745011992148430e-11  2.4359430803532163e-11  2.4155712189000964e-11  1.2173022552333484e-10  5.6181657240828595e-10  4.4601065404281934e-10  1.6122564715103167e-10  1.1451294354643538e-10  1.6654751856626720e-10  1.8705216486220178e-10  5.8380322284710036e-11  7.7489482850876164e-11  2.0343351714645495e-11  5.9848035183453424e-11  2.9327832998464148e-10  9.2183955332455637e-11  1.0581473671876841e-10  8.2597991234842936e-11  9.5994682146393557e-11  5.3231720775800855e-11  9.5495359882901589e-11  4.5557689172362726e-10  5.6722599819000204e-11  1.6413935940166775e-10  1.7226536497164337e-10  4.6544964460986518e-10  1.9769573123681038e-10  2.8349028068738391e-10  1.4328251615871094e-10  1.4493562734382107e-10  1.4957344798003319e-10  2.1080710866496872e-11  2.8543807402235824e-10  6.5852404793629414e-10  2.5486614878984211e-11  2.5241864595949343e-10  8.8964082106813690e-11  1.5782670055246682e-10  1.1210773119692197e-09  1.3721205028549468e-10  1.6394492757710211e-10  2.3338437268684920e-10  2.8751266342411609e-10  1.0569126274320980e-10  2.0455735019122699e-10  4.1892194715529267e-10  2.1808268911831049e-10  2.3881435303179796e-10  1.0998122068244471e-10  1.1226015299707829e-10  1.1281353171405157e-10  7.0833422682931817e-11  2.0849831963739487e-10  8.8754816318859326e-10  7.7978489207992030e-11  1.0816667228525624e-10  7.7682956515348214e-11  9.6789207547494159e-11  1.6224643587513553e-10  3.7769988234184006e-10  7.9129465764595595e-11  8.4545672593753518e-11  8.1714046274721645e-10  7.1670573725809226e-10  2.9294599784928571e-10  2.0003002543131414e-10  7.6617165751129925e-11  8.0526482455384877e-11  3.3571698293802585e-10  5.8510350582359523e-11  8.3169437117363681e-11  5.0135704452845851e-11  9.3092973738326735e-11  4.1282286635747739e-10  9.0289813207954984e-11  1.9753777532208227e-10  1.6565940295771535e-10  9.0508620808660375e-10  6.1652136743309960e-11  1.9830650047376912e-10  1.1539133073362290e-10  1.1198525016387465e-10  7.5243180874553154e-10  7.4838618316418130e-11  8.4907065748421463e-11  1.1795913081598951e-10  1.1265544822287278e-09  4.0883595126843112e-11  7.7844504542646135e-11  2.7980180565492033e-10  2.5262769677758431e-10  3.4807053696158574e-10  1.8177564282254051e-10  2.0412032413901106e-10  4.0398465761936149e-10  2.9386238434225142e-11  1.0515629662681165e-10  1.2790885377440655e-10  3.7533992830810012e-11  2.7292660729015156e-10  4.3776807689837859e-11  3.3425543727244927e-10  1.3593837264561306e-10  1.1025887690501222e-10  1.9155334077606567e-10  5.0197694773215409e-10  7.3063539338543180e-11  2.6903239096430403e-11  1.4491275097740676e-10  8.2107307499680735e-11  5.9294649493400671e-11  7.5887471575352018e-11  1.7912179333669636e-10  4.9180584128108582e-11  2.6410725114915517e-10  2.5459862339600286e-10  1.2920207271172030e-10  1.2913798894714324e-10  1.3678994697386616e-11  7.1595812208342707e-11  1.4714645200572546e-10  1.6796676280405778e-10  5.0022942350255696e-10  3.6919562831060011e-11  8.2113165426809531e-11  3.3410430837876549e-11  2.3973091571844390e-10  1.2540340081106470e-10  1.8440476940327139e-10  7.5375529011340724e-11  8.7389113770112769e-11  1.2088857793174920e-10  2.0230644576169793e-10  2.2399945032540586e-10  2.6117177332254496e-10  4.3866736428611464e-10  2.1391151919133227e-10  2.1033911912525346e-10  1.4467156286228586e-10  7.9897143013970320e-11  1.7109828189034872e-10  1.6567361480271508e-10  6.2974882875812012e-10  1.2913116672365054e-10  6.2362966423152280e-11  4.0773782726301252e-10  1.9086431813838734e-10  2.0718553787825722e-10  1.2380176127055726e-10  3.2635288631208818e-11  4.4796048622430905e-11  9.8562690094407541e-11  6.8372444182968704e-10  2.9462591532271309e-10  1.8067591595822775e-10  1.3606453306725184e-10  3.3460712605551949e-10  6.7451965294881333e-11  1.0982125405452764e-10  3.5384141162198456e-10  1.3313071202150403e-09  9.8814666625081698e-11  2.8312792870243384e-10  6.1700715129657081e-10  1.2369402557420568e-09  1.9908852178899560e-10  1.5366765594623484e-09  4.1901579043972769e-10  2.2613205423756341e-10  1.1644411096228376e-10  4.1613700080153577e-11  6.5853123722327687e-11  1.2641012999002843e-10  1.5626701386072886e-10  6.3578329182625569e-11  9.9010519597466519e-11  1.0719483689182927e-10  1.2772816143292785e-10  1.9321512265978937e-10  5.0017848314428874e-10  3.1969718351348537e-10  1.6597279427831613e-10  9.5959874335580029e-11  6.1760421178018166e-11  5.9293449548228417e-11  7.0516529140791878e-11  1.8159638793119308e-10  2.2543737743949621e-10  1.0564497391714581e-10  1.0494968408245229e-10  2.3828574657034188e-10  1.3640509538925911e-10  6.9504984095550321e-11  5.9488777638040548e-11  1.0550804108423119e-10  3.4173616549630540e-11  1.8556857393965725e-10  3.2870614593781358e-11  1.6101111851351097e-10  1.7956410967671590e-10  1.5226799255222540e-10  3.9804142756115104e-10  7.9520266938148157e-11  8.3048642018076240e-11  1.4436604078268882e-10  3.0621316597845246e-10  1.4424078398662252e-10  2.6348141534205831e-10  1.1072198312508856e-10  1.3512399774977775e-10  1.5594404178751573e-10  2.8016026279066080e-10  1.2791986512497872e-10  3.3657354377637341e-11  1.1708012085009762e-10  1.1207701182576988e-10  1.4789890398322714e-10  2.5173288829154728e-10  1.7039434677865438e-10  3.4928165384004715e-11  1.2943746327031364e-10  2.3208257878027664e-10  2.9065700231592582e-11  3.2970458830395382e-10  1.6408473280781692e-10  3.9270349678929895e-10  1.1270659083294005e-10  2.3551185669278866e-10  3.2447464454090735e-10  7.5532742274154787e-11  1.0552172387037030e-10  2.1782817435337244e-10  7.3308308727586628e-11  4.8366698680069956e-10  1.6007685036609128e-10  9.7974860098169161e-11  1.0830815027326247e-10  2.0936226366733562e-10  5.4258735338721514e-10  4.7961183260527001e-10  1.7985572170368176e-10  1.7136089969779871e-10  2.0735086073396800e-10  4.0017431318778709e-10  4.5536246050121545e-11  2.2486797300147983e-10  8.1997643001582672e-11  1.2438291779501769e-09  1.1813055504438638e-10  4.6039071236846835e-11  5.5296728786167456e-10  3.3264648705854281e-10  2.4695633143798120e-10  2.0936257300594665e-10  6.3927046040374188e-11  1.5313494184426468e-10  3.3457242417546140e-11  4.3752612782398370e-10  8.1949450911178895e-11  1.3739531270281162e-10  1.2725113993545793e-10  6.6004673410180081e-11  3.4777788656587906e-10  4.3133120174452206e-11  1.1749259567334912e-10  2.4546234121456096e-10  1.7899727362595287e-10  7.1459134987113097e-10  9.2423055848146269e-11  5.7608915161971979e-10  1.4722669628969767e-10  3.5623137122482652e-10  5.5496581134610466e-10  2.4405107186786575e-10  1.5490123620006957e-10  2.7318759613452485e-10  4.8173857682075201e-10  3.4438765100104344e-10  7.5288074140772950e-11  4.9229402767196116e-11  1.6388373453272717e-10  3.5847374264778861e-10  1.8531260338482248e-10  1.2667362397011837e-10  1.7059678566812679e-10  8.1000859068382339e-11  7.1132464856610101e-11  1.9903733254362750e-10  5.7900583591847466e-11  2.0660934767201780e-10  9.0668857402567131e-11  4.8090841051650201e-10  4.9249735364222160e-10  8.1810892841740346e-11  4.1775648823694853e-11  3.9805469436960205e-10  6.5037267809279566e-10  2.5841076036972845e-10  9.9264358179316588e-10  2.8850622652363919e-10  3.1722870903776953e-10  2.7491135805352604e-10  2.6729403868417900e-10  9.7353113317733824e-11  3.1239992493098062e-11  1.9377032777062809e-10  1.0588829423348613e-10  2.1442996907065987e-10  7.5388363990880318e-11  1.2288318001522841e-10  2.0701128460836374e-09  1.7721326158922419e-10  8.0949572505427815e-11  8.2220927489482047e-11  4.0081394194331067e-10  2.4292402320342468e-10  1.8968077280184657e-10  2.0806712401738297e-10  4.4589656075333619e-11  7.5888096873250913e-10  2.4162368730930594e-10  5.3460513390297789e-10  2.4923136623196068e-10  2.4158285869949059e-10  3.1158602915923481e-10  9.4611628345679353e-11  3.3035000593909430e-11  3.6033699368203630e-11  3.7092220772274408e-10  3.5958169045464930e-11  1.1650603050693530e-10  1.0219712848663942e-09  7.5235625483040744e-11  3.4915159042381677e-10  2.6249153776535981e-10  6.1986701630677757e-11  5.9929986227000964e-11  1.8071283403406168e-10  2.4540539767495615e-10  4.8268624436997210e-11  1.1322829650780718e-10  1.6059426659316908e-10  7.6036784105100051e-11  1.6934170349311262e-10  2.1407986635437080e-09  3.5879092890622891e-10  3.1995960479251890e-10  1.0728420385372850e-10  1.0742004233919624e-10  1.8697449629302156e-10  8.0076815746989601e-11  1.3391616916361430e-10  4.9691907096148328e-10  8.6809444165299041e-11  2.4074012879519231e-10  2.1389570786030352e-10  1.3912665594218625e-10  5.1148168883703216e-11  7.7462100274187322e-11  5.5136807089965018e-11  3.9116897566361189e-10  1.0610344173346600e-10  2.2112308428343247e-11  5.7144895271535406e-10  3.0581477653762668e-11  6.2159907131204886e-10  1.1674233361729193e-11  8.0249753884474588e-10  1.7538248521787076e-10  2.4829529504357483e-10  1.0428767722338432e-10  2.8725150425280568e-11  8.4892525853717013e-11  2.7918342458021161e-11  2.0513565963619982e-10  3.7270829317059366e-10  2.7152802222814598e-10  3.3145680623037630e-10  1.3568344802335815e-10  9.4102589139107705e-11  6.3404623676221387e-11  3.6435710851309443e-10  5.0216472629003543e-10  1.0523618983992210e-10  1.0027216656932018e-10  1.4629196723969181e-10  7.6214080369384731e-11  4.5680470346537240e-11  5.4590439009968467e-11  3.1993137504971701e-11  8.8408732318122842e-12  1.7760625789231473e-11  9.8350524911248652e-11  2.2333911739918271e-12  1.0969994291082849e-11  1.8617233502242549e-10  3.4952168784277398e-09  2.2364957733404322e-10  4.2235219292070405e-11  2.2057155940570497e-10  9.2843811806466752e-11  1.1220806428153033e-10  4.3815342398675868e-11  1.7055405165122234e-11  8.7711550722811309e-11  7.3933895291617916e-10  7.9507296672930255e-11  1.8382105895785449e-10  3.2411727702698171e-10  4.8482123410291478e-10  9.6535587324655662e-11  1.0190681029999481e-10  5.8341837309410394e-11  7.6956512333189864e-11  1.1181440938379882e-10  5.7192838020854149e-11  6.1145786364689018e-10  5.9171646780761493e-11  2.7842479571322244e-10  8.7937713627297975e-11  1.2792017275037062e-10  3.0971709336773890e-10  4.1467630271777818e-11  6.2856983030291147e-11  2.8477743190423186e-10  1.1878540857851974e-11  1.1306238481994755e-10  8.8310235656124602e-11  7.6670053782967244e-11  5.6285993009474812e-10  1.6155958112614742e-09  2.9754090702045734e-10  2.8956167716392790e-10  9.0625277103796596e-11  6.9116338183478129e-11  2.5374468645380651e-10  1.1713327379671910e-10  9.9070873114577213e-11  1.0433057398305042e-10  1.9747244874874601e-10  7.3876579536320545e-11  5.2466222965912661e-11  7.0334172686692731e-11  3.9653570994848952e-11  8.6298488647184840e-11  1.9159717917155963e-10  1.6203793995684244e-10  1.1171869345126198e-10  2.7610297822677431e-10  4.6964240537493965e-11  1.3616468887831771e-10  5.2418614949777433e-10  6.6489553818738835e-11  1.1778733461554794e-10  1.3678995453228959e-09  5.8062088200704914e-11  3.3771549568145128e-10  5.1318987142515879e-10  1.5809621559404942e-10  1.2797324211544747e-10  1.2582800818771818e-10  8.9734252636851971e-11  2.5034812924800877e-10  2.8636698787469812e-10  1.7721793652786379e-10  4.6986552949904639e-10  4.2381952126827408e-10  1.2111517374436822e-10  2.0975705883379405e-10  6.6420497082274393e-11  8.4626105059615453e-11  6.2543843743459957e-11  2.3899073197431687e-10  4.0082872479233357e-10  3.0810465835996345e-10  3.2486474792091427e-10  8.5823404710457177e-11  2.2856714696843885e-10  4.8083083746720833e-10  1.7052426307050661e-10  4.7850486541348154e-10  1.8304770662202962e-10  1.3821712795974852e-10  1.1146471332777959e-10  5.1173977608682648e-11  5.4185919049369039e-11  3.3047088954377968e-10  6.2605789568989648e-11  6.4389322757961770e-11  1.2915448204686185e-10  3.2079656276198703e-10  3.1898665329394060e-10  1.5729432212578895e-10  1.1768416018389807e-10  5.9499263216392543e-10  6.2896832473974720e-10  1.6146906388663718e-09  2.6981613253756475e-10  1.9964752128549310e-10  4.4514855024531143e-10  4.5508593996356247e-10  1.1797096574654921e-09  2.9744263287220548e-10  2.4570352800129910e-10  3.2956055362863092e-11  1.2881282847437458e-10  3.2900938475152930e-10  5.0541479239190922e-10  2.1319826217544758e-10  6.6428751941074042e-10  3.0372503108787851e-10  2.1485442464452518e-11  4.8178543641581441e-10  3.3415658510229706e-10  3.8674969982138580e-11  3.3392187854349357e-10  4.1402994796482214e-10  5.4401789114956398e-10  1.4555149349890986e-10  6.7086083335535370e-10  1.9503780929947816e-10  4.7333170947804582e-11  1.2720303505704027e-10  1.3235599549569723e-10  3.1537101442746750e-10  7.8557009007606323e-11  2.6295341703993681e-10  1.9510383791164052e-10  8.1254916056215942e-12  2.3878614992894722e-10  5.7838526076507951e-11  9.0113388167060153e-11  1.2376593455844956e-10  6.3455247767494919e-10  4.1383580242704226e-10  3.0577901241151551e-10  1.1706799743883006e-10  1.3168656629155535e-10  9.0557997838797181e-10  5.4458849825164553e-10  1.3441479318460342e-10  1.4250086568468035e-10  9.3630742928401715e-11  4.8816012942099638e-10  1.3812619983929338e-10  1.7389706128135452e-10  9.4617107250609071e-11  7.0534918127574227e-11  6.3329253164490504e-11  1.4900832885047322e-10  9.7896038204209884e-11  1.2864882432623803e-10  4.2901065855025647e-10  7.6711208558714801e-11  6.0147418714207376e-10  1.2619835627215477e-10  2.2413595805432231e-10  2.7918961774954198e-10  5.5369668174269714e-10  1.1606126572428087e-10  4.0838693431968295e-11  6.2783447217023029e-11  1.4195077377458057e-10  1.5874210900672204e-10  5.1388905733317066e-10  8.4004655171861183e-11  1.6161841747937664e-10  2.5137133459378895e-10  1.3773862370580989e-10  2.3571029804147593e-10  3.3199477572663834e-10  3.1190052377215191e-10  1.0439884791093455e-10  1.7455724326839344e-10  1.4890930262215229e-10  2.2764593456675428e-10  4.7801652276175835e-10  3.7423782544736396e-10  2.0188416553474150e-10  2.0338690844347061e-10  1.2489163439488785e-10  1.7212446169307192e-10  3.0060415997730087e-10  3.8138469085486282e-10  3.6214755926053881e-10  1.6594523717668577e-10  2.1980291091847477e-10  1.9467633533510276e-10  1.5303893935892609e-10  3.9858245973478085e-10  3.1643626916656577e-11  1.0530386503194596e-10  1.2697052625318526e-10  5.1025614874559638e-08  4.0640748444431073e-10  1.7575531625047539e-10  6.1017999950345158e-11  2.5701599847157855e-10  1.3757571014022577e-10  6.4291511929697557e-11  1.0519034151344759e-10  2.0284572421757300e-10  2.0557956380327705e-10  1.9462126982225152e-10  1.8854045126676731e-10  3.0829818145170908e-10  6.5000688533052265e-11  8.0093039891666768e-11  1.9069824909028944e-10  1.2249588539906441e-10  3.5241367638010300e-11  4.0116686515478960e-10  6.4416527915547323e-11  6.1665498974023205e-11  1.9406919495204965e-10  9.8834950031717475e-11  2.3693181847092347e-10  2.9177975252972751e-10  1.2519542310129102e-10  7.8826257883215215e-11  1.8691201311762185e-10  9.6122258921661555e-11  3.2592391990017984e-11  9.0141818065645326e-11  5.8236034930495725e-11  7.8763520436177259e-11  2.2703296322982322e-10  4.7124651733328853e-11  6.5917603140351582e-11  9.4287344065353275e-11  9.3389979795996428e-11  9.3710303880364325e-11  2.5565097411812361e-10  8.7831946406697482e-11  1.8440512152856981e-10  2.0302876613472171e-10  9.9891440571024459e-11  1.6104438106677765e-10  3.1518290606983793e-10  1.2371756011441857e-10  6.1737307943834062e-10  1.7014810039124024e-10  1.4904911859333318e-10  1.3869475927553704e-10  2.2646740954149124e-10  4.4065666835259726e-11  3.9846453400753340e-11  7.6651051908676160e-11  4.3396511907091330e-10  2.0032219504121905e-10  6.3706812078548932e-10  4.4337177282910164e-10  1.2088566354840598e-10  5.4808814233416545e-10  3.6439061689627761e-10  1.8812708196962496e-10  7.0707668163105003e-11  9.3233341041121921e-11  1.7454109513046010e-10  1.8775462333397953e-10  4.1528706261874655e-11  4.8193604705896334e-10  2.7817861843098047e-10  3.0188857170941802e-10  5.3342928396657949e-11  3.5078632316685284e-10  2.6692518902814116e-10  5.8648315433382349e-10  7.3064774496165053e-11  6.1570355502759955e-11  2.3922097868490473e-10  7.2365972802062129e-11  4.2520457125842448e-11  1.4678620954558480e-10  2.4303643705467246e-11  6