<?xml version="1.0"?>
<VTKFile type="UnstructuredGrid"  version="0.1"  >
<UnstructuredGrid>
<Piece  NumberOfPoints="4852" NumberOfCells="9430">
<Points>
<DataArray  type="Float64"  NumberOfComponents="3"  format="ascii">-1 0 0  -1 -1 0  0 -1 0  0 0 0  1 0 0  1 1 0  -1 1 0  0 1 0  -0.5 1 0  -1 0.5 0  -1 -0.5 0  -0.5 -1 0  0 -0.1608775713298009 0  1 0.5 0  0.5 1 0  0.1967448868031411 0 0  -0.3411981162717037 -0.1760640548254666 0  -0.3375364155411065 0.2247865492835189 0  0.1739544119535706 0.3469313017130238 0  -0.1855993814888602 0.5554981970744906 0  -0.5040264075559355 -0.5379889966049123 0  0.4906078942960229 0.2581594175738123 0  -0.06482993620571148 0.201551642818465 0  0 -0.5061325913258391 0  -0.25 -1 0  -0.5616990313326103 0.5777830147434354 0  0.6616647663581821 0.6346184172330958 0  -0.1766042718792697 -0.5382520796976287 0  -0.5395324405551561 0.02572603319302686 0  -1 0.25 0  -0.2067716924959186 0.02394151897223765 0  -0.6549762478614333 0.3097881024147698 0  -1 -0.25 0  0.03891285165264328 0.5922742532122235 0  0.1951849208440542 0.1294463138867561 0  -0.136508223378833 -0.2202875342382392 0  0.3712673671278064 0.6151591829941045 0  0.9999999999999999 0.25 0  0.5355652144809806 0 0  -0.75 -0.9999999999999999 0  -0.9999999999999999 -0.75 0  -0.6453589594326936 -0.3234358453536175 0  0.25 1 0  -1 0.7499999999999999 0  0.02757118475249542 0 0  -0.25 1 0  -0.7500000000000001 0.9999999999999999 0  1 0.75 0  0.75 1 0  0 -0.02898318711980711 0  0.05411073663236932 0.1427456261785614 0  -0.07796013138517389 -0.02788659429307675 0  -0.7015274646335743 -0.1323859851416689 0  -0.3218419048428271 -0.3478880355098956 0  -0.3408226272770597 0.437866156558181 0  -0.1002642408188645 0.7644827070201105 0  -0.3836055612158434 0.7028830526026766 0  -0.05531196702259151 0.3995368393586997 0  -0.07933260438143912 0.07217181367278008 0  0.3591245605593166 0.3705278047132241 0  -0.7160865339776267 -0.7302027277505493 0  0.4119748534373812 0.09044566646646705 0  0.6899481180896522 0.1924295833876032 0  -0.7476253437598021 -0.5273361468672392 0  -0.3876747356768183 -0.7109318914382436 0  0.7215699953382081 0.419671395252163 0  -0.7763434288789903 0.09723691744453795 0  0.1967731449616109 0.6991351280474007 0  -0.1993641613680267 0.2890423565752091 0  -0.7990875805867705 0.577634639154875 0  -0.7168468894755944 0.7664923068934982 0  -0.05332293929886118 -0.3736271839103508 0  0.584837332264603 0.8168774343094508 0  0.8204285706535267 0.8060636902375179 0  -0.1069428065662498 -0.6975925547245075 0  -0.5151617459084369 0.1631661962084407 0  -0.2024871763087565 0.1259928922512064 0  -0.3599127108640903 0.07567754910589181 0  -0.3658055055080048 -0.05228087750485698 0  -0.4972253793166848 0.3955553505694876 0  0.375 1 0  1 0.125 0  -0.01205413622828934 0.07147818097032188 0  0.06191703602961688 0.3925478875703562 0  -0.1717684558748819 -0.1226303973092473 0  -0.2432434268429323 0.7738928879341399 0  -0.625 0.9999999999999999 0  0.5335512776228268 0.4553785240535472 0  -0.5760195187367924 -0.83024005350678 0  -0.2576568972514764 -0.783825531261798 0  -0.3198658427743567 -0.5090184706799089 0  0.8340129365741261 0.5957900940564697 0  -0.5488972391965494 0.7909715403006743 0  0.125 1 0  -0.06761766903197242 -0.09357349020072056 0  -0.4951046910976516 -0.1433349708797715 0  -0.875 -0.9999999999999999 0  0.02956710853648599 0.04177133983979374 0  1 0.375 0  -0.875 1 0  0.05718976275414816 0.7942760391990197 0  -0.1961784368098062 -0.3742632320069704 0  -0.0732993304278403 0.571645176499064 0  0.2365556451362718 0.51868099265838 0  -0.7925705000059481 0.2296728969432518 0  -0.4954615850661503 -0.3896377601789819 0  -0.0002344586462063147 0.2717804156931879 0  0.5101418039764299 0.6409513437807041 0  0.3989748647942102 0.8077287846158485 0  -0.8063904515559472 0.4246685687808151 0  -0.06447673161816948 -0.2206957307837307 0  -0.7100279637710714 -0.01395402541676517 0  0.09057108971559326 0.05274850231090491 0  -0.4786087790852547 -0.2516579794379638 0  0.7238095877891749 0.08323419588318866 0  -0.8087544200748086 -0.4113315299231263 0  0.3376800211563277 0.1543441220200679 0  -0.7947586814872435 -0.2509603050540162 0  0.23642328027202 0.2551858408454523 0  -1 -0.8750000000000001 0  -1 0.875 0  0.1843792945476431 0.04822199352777275 0  -0.2477998453935837 -0.2295921467592271 0  -1 0.375 0  -0.1715634154053184 -0.04180986094921615 0  -0.6491836442261995 0.4678637494324941 0  0 -0.07736776745332727 0  0.08027553690621407 0.2606017617543745 0  -0.375 0.9999999999999999 0  -0.2175218922096468 0.4253800534892209 0  -0.1206155398574065 0.1505778691396817 0  0.1331763690026818 0.5548615194954198 0  0.1319203162819046 0.1944781115156633 0  -0.4753993898052547 0.2700703306599579 0  -0.04643157376979757 0.01390362785074278 0  0.8513174564189522 0.3708850318570326 0  -1 -0.125 0  0.2856447006340125 0.8371860654954133 0  -0.1113294498922315 0.3136942655552137 0  -0.125 -1 0  0 -0.7575037395175258 0  0.07821397079968176 0 0  -1 -0.375 0  -0.375 -1 0  -0.625 -1 0  0.7474787146812756 0 0  0.625 0.9999999999999999 0  0 -0.2918843213980812 0  -1 0.625 0  -1 0.125 0  -1 -0.625 0  0.3284075310660084 0 0  0.004929205892015135 0 0  -0.125 1 0  0 -0.006571003003944568 0  1 0.625 0  0.9999999999999999 0.875 0  0.8750000000000001 1 0  -0.5627942921320483 -0.6767549193114224 0  -0.004986154314012108 0.1607471096159487 0  0.3625160177784507 0.2641080183140106 0  0.6529825442202365 0.2950640584726129 0  -0.85474866785773 -0.6467446162649921 0  -0.8634993828942422 0.7871192853625009 0  0.4307085531487204 0.5024010477804133 0  -0.3987565742346158 0.8560649297083467 0  -0.7787314173956531 -0.874927614860332 0  -0.8705086299271588 -0.784438011947159 0  0.154123771787896 0.842521931784911 0  -0.6590462386739738 0.1531377906715765 0  -0.5781675147087223 -0.06401864280865598 0  -0.8547698473189771 -0.06249086318700746 0  -0.2965224218529107 0.5627465260101711 0  -0.4242546095220885 0.5704712000057012 0  -0.3767503886435541 0.331665198057472 0  -0.6187311851594121 -0.2165928698982243 0  -0.273461058086211 -0.09015056684305651 0  -0.6402094646764185 -0.5889967697532045 0  0.8596458787883752 0.2665485243988019 0  -0.03289191521835921 -0.03302381601340469 0  -0.05515212363321705 0.114953304636861 0  -0.1343265390013184 0.4327207293085417 0  -0.1202892099911538 0.03250156207012796 0  0.537777697847282 0.06501261730988707 0  0.5793104348097132 0.3606212893010626 0  0.6915331672646563 0.7752411254345326 0  -0.793433792584192 0.8812470356524662 0  -0.6435292606676549 -0.4296823591468873 0  -0.1171658163354706 -0.3975764569970256 0  0.872122620148693 0.4892673063342624 0  0.0759394847185839 0.09429782272047674 0  -0.6647486149927853 0.8683037074995734 0  0.4548082327704492 0.351879451444348 0  -0.02650904733190961 0.03593862081478296 0  -0.409359288286572 -0.4408954558349242 0  -0.3622456587286805 -0.2693188635438558 0  0.3237282086680932 0.482793575247851 0  -0.1967655357052373 0.2020780044480487 0  0.7057368020053472 0.5319037049924135 0  0.2619369787719739 0.3571048663537464 0  -0.3766544644160645 -0.8519872281710548 0  0.1090738010368243 0.6826348439630775 0  -0.2849658972189552 -0.6124979980491787 0  -0.4414616636926736 -0.6205719806991649 0  0.2963593047797896 0.692996097137051 0  -0.8750638139064081 -0.1748110150128796 0  -0.1803142042706962 0.8552590454659157 0  0.4548594411175485 0.1643638334357246 0  0.2803659547811048 0.04699297810450812 0  -0.1428054811078044 0.6579923961576176 0  -0.01166068186385689 0.709145622578497 0  -0.05349567914209649 0.8753132363064094 0  0.005059027395716433 0.4706525911540865 0  -0.3884963639819146 0.1540468191620302 0  0.5492033878535901 0.1340245768659431 0  -0.4763468382586408 0.6828364533568582 0  -0.8517680147380573 0.3330748304233438 0  -0.09277900660711 -0.536663092974299 0  -0.03160080918082787 -0.5523155391456678 0  -0.213834233497374 -0.2882649878812983 0  0.8683952320878556 0.1518912579142752 0  -0.1700991002650145 -0.6613963335321844 0  -0.8892732141738481 -0.5286494188891405 0  -0.2824937863441669 0.3390343602764802 0  -0.6766280417790393 0.5745587271876206 0  -0.8976565001175799 0.5316087523104766 0  -0.8985160094489901 0.6610610474518793 0  -0.6449735699843094 0.07275253630634798 0  -0.8593485152908664 0.02869431345849645 0  -0.8883577685235804 0.1680649930584978 0  -0.130783450432279 0.229617810189846 0  0.1603525171003518 0.4471611531641224 0  -0.04364551185508429 -0.1259204032900739 0  -0.7536806303966193 0.6703725853409176 0  -0.6027914650386239 0.6983454183490745 0  -0.2551856141348081 0.07890758008165394 0  -0.2498677276232329 0.6493125882211364 0  -0.02753732293610696 -0.006452573326009994 0  -0.4946028474999143 0.8772642272935017 0  -0.4775521945458613 0.4912016837942179 0  -0.2912813392898491 0.1445893869654761 0  0.002248016385598953 0.02371562554987975 0  0.7796650297516228 0.684215909233617 0  -0.4699413065000397 -0.8249247410713042 0  0.2720836841024434 0.1959281542929242 0  -0.1489938499032339 -0.8634109757745518 0  -0.06613139650685929 -0.8299618970437901 0  0.4436008334967734 0.7067464119725685 0  -0.1176283986271175 -0.2886611564767821 0  -0.2656423177310374 -0.02609722106485976 0  -0.8938109020531075 -0.8965554945484578 0  -0.573626056799726 0.237800158537482 0  -0.4769779661807073 0.08803736398656611 0  0.491352896023751 0.826284860279475 0  -0.02859266019425686 -0.2601648586260569 0  -0.3103132327628717 0.8756563490471652 0  -0.1436545011259401 0.08083530719638038 0  -0.4700788838018383 -0.03472502978727046 0  -0.3888126364756874 0.01238377306234958 0  -0.2925279193079056 0.0278214193996984 0  -0.3856230498854267 -0.1205553979890554 0  0.8882418951149866 0.6983626013720053 0  0.7927173318945472 0.9108307376904776 0  0.576673363726944 0.209043649748522 0  -0.5603373882450861 -0.4699569149481973 0  0.5991217581601488 0.7067533150738824 0  0.678353698264927 0.888568398628932 0  -0.05155893903987196 0.3039426271642232 0  -0.9022064541537521 0.9046921791944575 0  -0.1279076674073008 -0.06726884837336539 0  
[...]
<PointData  Scalars="w"> 
<DataArray  type="Float64"  Name="w"  format="ascii">1.7351846366230577e-10  1.0368779539815646e-11  4.4503339201584558e-10  2.6310883136702934e-09  6.2469891051177409e-10  1.5695873340286314e-12  8.6780024077391468e-12  7.4252820737443538e-11  4.0006981776588755e-11  2.0947297753895211e-11  1.0720733640506202e-10  9.5412902246187825e-11  4.0484342637826785e-10  2.7382836982519099e-10  9.1018327560799675e-12  5.3209407229679633e-10  9.1059802167618091e-11  7.2019264259345216e-11  1.3070965277016475e-10  3.5247561332913033e-10  6.6729606164987045e-11  1.0464561832853727e-10  5.7665722887522298e-10  1.2316641353022465e-07  5.7494395060289338e-10  1.0692385124505139e-10  8.7925558310064447e-11  1.6929757665393717e-10  7.6174759877884853e-11  1.8765944939964341e-11  4.6967986735620908e-10  9.6729930373091243e-11  2.4167853535553921e-10  1.7958860935376673e-10  4.5849459559223876e-10  2.2648757022234958e-10  7.7211872511793504e-11  4.7455198129488478e-10  5.9023007153462160e-10  3.1077052659785269e-11  5.2338995628942027e-11  1.0793281683978140e-10  9.1826618079639005e-11  1.9587329750023967e-11  1.0614037844162991e-09  8.6968704019757105e-11  3.1844365359450272e-11  9.5505792483400695e-11  1.2480813419352326e-12  5.9427295701171058e-10  2.2290087868867685e-10  2.1557174758650463e-10  8.2473615109493071e-11  2.5231162891982765e-10  2.5810848908322264e-10  2.0360562862332910e-10  3.5268464461093015e-10  8.9004877877821586e-11  5.8599352494299293e-10  2.5110901111529326e-10  3.1156570991319124e-11  3.1646840151233235e-10  3.7810182747785585e-10  1.4244897919947669e-10  5.3788438952568358e-11  1.7717788321148286e-10  6.9866819341206089e-11  1.7726890410543380e-10  2.3268891913332627e-10  4.5760149746068982e-11  6.4322355620317643e-11  4.3113702084177201e-10  5.6016791319946216e-11  8.7420598304834024e-11  1.6894093446110255e-10  1.6913039532738890e-10  2.5793900172058901e-10  2.8900985073492415e-10  1.8247939650176240e-10  1.9355201475309088e-10  6.4573023233873605e-11  2.5247324174808282e-10  2.6707198182787598e-10  1.9998635166554990e-10  2.3494828588029239e-10  1.2439789791131731e-10  4.6088051392188958e-11  1.0899803595598748e-10  9.4031749348035343e-11  2.5121261843732212e-10  6.9132629633382506e-11  9.8000333552606644e-11  7.7710128584369478e-11  9.3483128878811203e-11  3.9187849106078406e-10  2.0857621865610707e-10  2.5434063905291862e-11  6.6207169181548159e-10  2.5563266647152273e-10  3.1493706535866632e-11  2.7411873669195393e-10  4.1245177164110207e-10  7.0964427369515341e-11  9.6838458739808562e-11  1.5526900531780500e-10  6.3435931174404595e-11  2.7420798049120376e-10  8.2344001593511808e-11  1.4498147510659102e-10  6.5556157307270225e-11  3.1406116489605924e-10  2.4538588386746664e-10  2.3469010611655093e-10  6.4174653129011724e-10  1.2131895366901448e-09  1.4737353723912292e-10  1.6692632397135084e-10  1.0163155256117281e-10  4.5973948783925236e-10  2.5908117764881449e-11  2.5614546224943069e-11  2.8013256055877159e-10  9.1948057184873070e-11  6.0511075021330416e-11  5.0519152269241327e-10  5.6815167456996712e-11  6.0461907014543916e-10  1.1893961356034332e-10  7.6172847126371887e-11  8.2462060342795012e-11  3.4423268742650127e-10  1.7119661824879573e-10  4.6643524198199401e-10  1.3423693631813587e-10  6.2985717503894859e-10  4.3660797859421953e-10  1.0873241257237809e-10  5.1674928524807973e-11  1.3025887810765816e-10  2.5588591088422677e-10  4.5011550020539433e-10  6.1284551353838601e-10  9.2469026479321036e-11  1.1887901619094560e-10  6.8523184165020363e-11  6.5861029544684672e-10  8.5115331477418831e-11  3.3551498591140015e-10  1.4597566157784663e-10  1.2344606944218234e-10  2.0000863466366387e-11  2.8482189046296347e-10  1.5992799218228425e-09  5.6353228766518967e-11  9.7838675347082955e-10  7.8380238237125501e-11  2.4427437896769518e-11  2.4266109917253579e-11  1.2108180999979577e-10  5.6466971966797970e-10  4.4661896518116987e-10  1.6115223668289460e-10  1.1394916012279316e-10  1.6577679816027554e-10  1.8569902366804921e-10  5.8325682196479793e-11  7.7400829235748445e-11  2.0346965333907031e-11  5.9633854258975122e-11  2.9202663907914780e-10  9.2110711139515341e-11  1.0501946115214913e-10  8.2483019558138413e-11  9.5345198153608867e-11  5.3054887516424512e-11  9.5850102301817427e-11  4.5605311717066163e-10  5.6842579962516205e-11  1.6422075149694995e-10  1.7245594593757114e-10  4.6831014500457248e-10  1.9736336619452871e-10  2.8499907076240998e-10  1.4397795527051114e-10  1.4442990195285835e-10  1.4813484675137693e-10  2.0989440370940066e-11  2.8652732479014828e-10  6.4613432022486691e-10  2.5338689097444108e-11  2.5360024006451307e-10  8.8465807266397428e-11  1.5724746252973742e-10  1.1297401990807963e-09  1.3730757162371480e-10  1.6450725042174399e-10  2.3256717143370900e-10  2.8781107991563979e-10  1.0512641554538456e-10  2.0449599664201663e-10  4.1715429198796801e-10  2.1745517289480854e-10  2.3769769186606080e-10  1.0941106716680417e-10  1.1184068361621935e-10  1.1165712660097759e-10  7.1130022219376251e-11  2.0872973832993914e-10  8.9233525722949504e-10  7.7146131945625919e-11  1.0753209729172666e-10  7.7815243367311047e-11  9.6704869921606885e-11  1.6204893792589795e-10  3.7801956280390530e-10  7.8602526118168569e-11  8.4270111102799424e-11  7.6984562735516905e-10  7.6965117859802038e-10  2.9277333424889744e-10  2.0049855214806553e-10  7.5854917089766057e-11  8.0380456442864812e-11  3.3451736651375877e-10  5.8244960893429939e-11  8.2592067696740143e-11  4.9989304737007546e-11  9.3022939353330408e-11  4.0877248023034313e-10  8.9897158425323135e-11  1.9781964660795770e-10  1.6552830024052882e-10  9.0641627074397285e-10  6.1503592301998162e-11  1.9658341535580982e-10  1.1553589134947706e-10  1.1089299665151767e-10  7.5398229413397054e-10  7.4761906843596487e-11  8.4643531911339707e-11  1.1797618219042946e-10  1.1338065560339171e-09  4.0641668211314281e-11  7.7669021354437301e-11  2.8094672351280643e-10  2.4970905455625492e-10  3.4360341909438056e-10  1.8034361607134380e-10  2.0476960294938163e-10  4.0423264361940284e-10  2.9378480407856220e-11  1.0488036198390528e-10  1.2744924370770610e-10  3.7355645406439557e-11  2.6587189370465356e-10  4.3708142607642384e-11  3.3582442100848410e-10  1.3586312796994127e-10  1.1033616545335768e-10  1.9186243728221699e-10  5.0210158242415490e-10  7.2672140659130031e-11  2.6810928552073160e-11  1.4487765522074811e-10  8.1777024360213985e-11  5.8874643862894909e-11  7.5184563053939514e-11  1.7948960993065563e-10  4.9203760372524028e-11  2.6484825291873128e-10  2.5523831171638138e-10  1.2981939797413313e-10  1.2959309961815246e-10  1.3673049204195637e-11  7.1861957334158191e-11  1.4779671093885291e-10  1.6687517913297733e-10  5.0313169412369758e-10  3.6643685870705567e-11  8.1678543932681336e-11  3.3458423444299122e-11  2.4112855221274973e-10  1.2516327434824371e-10  1.8362062487481229e-10  7.5521789196604320e-11  8.7312155935965840e-11  1.2062738743240308e-10  2.0177451470791738e-10  2.2416823297133167e-10  2.6127477325196971e-10  4.3985146154537328e-10  2.1382675305877786e-10  2.1110016935169418e-10  1.4358543764628623e-10  7.9647252920632526e-11  1.7030196345530458e-10  1.6479876733363043e-10  6.3187864833955887e-10  1.2874913904015411e-10  6.2096473281037505e-11  4.0918062518058058e-10  1.9158835019989538e-10  2.0634690945918580e-10  1.2505860362766225e-10  3.2533739965953062e-11  4.4752842413164734e-11  9.7894885027255763e-11  6.8497684130651796e-10  2.9546857486765728e-10  1.8038789952881328e-10  1.3521847173524686e-10  3.3363512030579727e-10  6.7383959579258720e-11  1.0977331381673091e-10  3.5357741372308594e-10  1.1844939768235399e-09  9.8316598596917121e-11  2.8406350772026249e-10  6.1908021984179855e-10  1.2430604601010182e-09  1.9946865646980494e-10  1.5454442790769862e-09  4.2046792098397382e-10  2.2627307560202581e-10  1.1676464609666352e-10  4.1611669804190794e-11  6.5248751817951206e-11  1.2678782460618540e-10  1.5636008734519803e-10  6.3247797663727981e-11  9.9226171372786336e-11  1.0740273433452655e-10  1.2685239820059880e-10  1.9372138376871477e-10  5.0300728636995296e-10  3.2118949471885447e-10  1.6576337710589704e-10  9.5266685336312021e-11  6.1541251554162575e-11  5.9011949987484382e-11  7.0640809903144896e-11  1.8160595955733639e-10  2.2589387936107892e-10  1.0509122587876225e-10  1.0471857482773221e-10  2.3705699053389353e-10  1.3568648618265800e-10  6.8963748974994795e-11  5.9063317402160915e-11  1.0548677807645482e-10  3.4093597130365323e-11  1.8544344991523513e-10  3.2624569033590454e-11  1.6105560065915361e-10  1.7932968074898148e-10  1.5194693075695169e-10  3.9684476951811358e-10  7.9250449950900833e-11  8.2458664216959649e-11  1.4384058727274869e-10  3.0681631284733660e-10  1.4409772818548624e-10  2.6358633033250965e-10  1.1027709296913113e-10  1.3506029971625944e-10  1.5653428754336939e-10  2.7851039737421640e-10  1.2819045267085428e-10  3.3575658527430039e-11  1.1664238592569640e-10  1.1207028534197881e-10  1.4624399197340907e-10  2.4984351375100229e-10  1.6932478675767604e-10  3.4757623407668536e-11  1.2864405385934805e-10  2.3085302863937112e-10  2.9073826683098954e-11  3.2984053321414490e-10  1.6469321496480430e-10  3.9507335441839625e-10  1.1219008303129972e-10  2.3653213622915478e-10  3.2436493814264213e-10  7.5022948758206479e-11  1.0494930778692842e-10  2.1633521403163236e-10  7.2979254178453980e-11  4.8349525847589699e-10  1.6076565669136048e-10  9.7329435120479688e-11  1.0788213671610416e-10  2.0769695567290176e-10  5.4530445153388024e-10  4.8219086598213056e-10  1.7930612424911918e-10  1.7104622419535430e-10  2.0580888086939212e-10  3.9738990649130304e-10  4.5302172063316419e-11  2.2380307276992641e-10  8.0905793960011320e-11  1.2475209469112234e-09  1.1775512215345064e-10  4.5880633582913969e-11  5.5770948153122659e-10  3.3258875420142187e-10  2.4745750622293964e-10  2.0932147628299380e-10  6.3840395927398195e-11  1.5258461974886423e-10  3.3144359758942778e-11  4.3853881230172145e-10  8.1533219084444690e-11  1.3592655520505724e-10  1.2686613958882681e-10  6.5437242469706581e-11  3.4663804848297832e-10  4.2987083810362985e-11  1.1677467354222191e-10  2.4585210349727350e-10  1.7927752580958758e-10  7.1834213271475073e-10  9.1769171249881314e-11  5.7760181401263738e-10  1.4606990524278246e-10  3.5869592871169662e-10  5.5833669449270421e-10  2.4488105418533957e-10  1.5471922815684942e-10  2.7437853371947383e-10  4.8293631187486234e-10  3.4140293228153267e-10  7.5131211615746822e-11  4.9589017952426434e-11  1.6454123625337261e-10  3.5975922550591412e-10  1.8503275027626703e-10  1.2627959148350168e-10  1.6918986851285463e-10  8.0777184430580875e-11  7.0834652162105118e-11  1.9883976378797782e-10  5.7549661395086970e-11  2.0624413461278235e-10  9.0294648272744945e-11  4.8317212797452675e-10  4.9072547534061315e-10  8.1637687590735162e-11  4.1699258989604809e-11  3.9691625410723883e-10  6.5326747270298187e-10  2.5856555432123711e-10  9.9814011590543916e-10  2.8945847559412359e-10  3.1817790280744535e-10  2.7620010542260083e-10  2.6889610446930852e-10  9.7093418655050511e-11  3.1291519042975872e-11  1.9350630858637807e-10  1.0386782989506102e-10  2.1344561181560016e-10  7.5624440532726762e-11  1.2220300737331438e-10  2.0789932014992271e-09  1.7774721012174957e-10  8.0676449369105436e-11  8.1932615446369819e-11  4.0206826701209561e-10  2.4358361707515382e-10  1.8983236484861108e-10  2.0813920616275196e-10  4.4409540857132155e-11  7.6339769877655103e-10  2.4168843304264901e-10  5.3334353560273433e-10  2.4761420240807184e-10  2.3995993673736791e-10  3.0966888065985676e-10  9.4426037635944259e-11  3.3060124495676137e-11  3.6162696525891551e-11  3.7321410356089524e-10  3.5771956259574667e-11  1.1547341999565474e-10  1.0245343996944177e-09  7.5203454185784985e-11  3.4655466358913139e-10  2.6144313084039603e-10  6.1741303936051999e-11  5.9455024931983134e-11  1.8162753758117244e-10  2.4590794743001932e-10  4.7889473708006403e-11  1.1315140172246309e-10  1.5949096437391857e-10  7.5768494761932422e-11  1.6902867396254775e-10  2.1508397454993363e-09  3.4754031413698905e-10  3.2091939368694612e-10  1.0723080005123195e-10  1.0682561790603145e-10  1.8586384156196832e-10  7.9560174672509475e-11  1.3432166594148633e-10  4.9589673448778583e-10  8.6541150104061180e-11  2.3965809032586806e-10  2.1330379977280135e-10  1.3931304128010132e-10  5.1140806415221019e-11  7.7210742002329844e-11  5.4892924236367214e-11  3.9228795216702312e-10  1.0536800294875713e-10  2.2114773204605419e-11  5.7298570120468163e-10  3.0493206245326685e-11  6.2311206187829857e-10  1.1681915604083729e-11  8.1430014261062945e-10  1.7438502111556007e-10  2.4707177916096343e-10  1.0371121361557922e-10  2.8745849752302080e-11  8.4428374039728042e-11  2.7734993160851346e-11  2.0571373346359519e-10  3.7336125437291091e-10  2.7172937032162461e-10  3.2990861920105691e-10  1.3504576134225794e-10  9.2971239723665965e-11  6.3089653472347180e-11  3.6553603203046692e-10  5.0050288960191068e-10  1.0539144094435937e-10  1.0025506532498475e-10  1.4616244794602001e-10  7.6051112662695134e-11  4.5089390091301346e-11  5.4321976636766042e-11  3.1975466071132585e-11  8.8530655815529347e-12  1.7812602388066030e-11  9.8227932281114812e-11  2.2568472759256245e-12  1.1081080082297096e-11  1.8633861820839985e-10  3.5010581567449496e-09  2.2061134030678643e-10  4.2274733993689419e-11  2.1948497895876736e-10  9.2139476820320622e-11  1.1192307519375894e-10  4.3664431389335522e-11  1.7037653449061031e-11  8.7480357656205415e-11  7.4672075981399433e-10  7.9483059468277241e-11  1.8355861657496460e-10  3.2308230761547516e-10  4.8479730858584275e-10  9.6684171845288300e-11  1.0153393973577743e-10  5.8039288585933817e-11  7.6849791185501831e-11  1.1117495905975306e-10  5.6936979736740039e-11  6.0020981064726957e-10  5.9069016727406459e-11  2.7983278447290568e-10  8.7705204089890606e-11  1.2771383818664764e-10  3.0910552182824367e-10  4.1524029002810606e-11  6.2542141930166447e-11  2.8122069625561202e-10  1.1870721778172196e-11  1.1260741444034697e-10  8.7768572979743595e-11  7.6518203655708800e-11  5.6537476715289855e-10  1.6161636070312530e-09  2.8661129194842601e-10  2.9006769561021360e-10  9.0473232101337099e-11  6.8537681158644791e-11  2.5209220097533340e-10  1.1680454320800642e-10  9.8287298921058848e-11  1.0363333229573143e-10  1.9690423737177089e-10  7.3301941586219628e-11  5.2405184858737167e-11  7.0353758578329419e-11  3.9586935577118308e-11  8.6129472600213636e-11  1.9239816771296962e-10  1.6247038304095658e-10  1.1201870321315448e-10  2.7194884737050628e-10  4.6862939695325739e-11  1.3546566949840054e-10  5.2736323323491948e-10  6.6280126862957930e-11  1.1711938288265863e-10  1.2986004347183489e-09  5.7873430714225112e-11  3.3901811085536720e-10  5.1675042506562864e-10  1.5854103606895595e-10  1.2800028256936674e-10  1.2594946212471787e-10  8.9648436215228645e-11  2.5073216573709382e-10  2.8732260518343358e-10  1.7720987670478002e-10  4.7338996577980778e-10  4.2499309669961615e-10  1.2032790983365251e-10  2.0843697181429859e-10  6.6004393618255961e-11  8.4177777712138184e-11  6.2366700840566342e-11  2.3762182650384725e-10  4.0114525669581198e-10  3.0871088681172983e-10  3.2468969635859383e-10  8.5512594230637182e-11  2.2999544485311258e-10  4.8341027195653532e-10  1.7142578884821646e-10  4.7440039099184148e-10  1.8172794732955396e-10  1.3785792746715840e-10  1.1107039378383146e-10  5.1010819521418819e-11  5.3740294576526704e-11  3.2829003456711101e-10  6.2363722936364933e-11  6.4551967363977620e-11  1.2876077597924636e-10  3.2102164290710699e-10  3.1778481058826256e-10  1.5719001124535900e-10  1.1770410288348211e-10  5.9972974432938571e-10  6.3255490069164631e-10  1.6245743094586482e-09  2.7094214441684091e-10  1.9980326970438458e-10  4.4623432169931992e-10  4.5523786400244073e-10  1.1891710148944849e-09  2.9859723323255571e-10  2.4377003005535886e-10  3.3003020271024184e-11  1.2771312051054152e-10  3.1732703095952525e-10  4.8578145270559001e-10  2.1293749921678395e-10  6.6110152309417100e-10  3.0206478407588282e-10  2.1460981504095294e-11  4.7973079435342350e-10  3.3530728233510542e-10  3.8678498895672758e-11  3.3457221499848766e-10  4.1436382034751735e-10  5.4473680633399051e-10  1.4562754286372417e-10  6.7126230465365849e-10  1.9500047457489826e-10  4.7093232128799641e-11  1.2702728442479081e-10  1.3202789367867569e-10  3.1696067925061540e-10  7.8165101399589779e-11  2.6266403311364898e-10  1.9314430270370122e-10  8.1345980410893360e-12  2.5047360821813847e-10  5.7556665548950575e-11  8.9710578106393796e-11  1.2306909413502157e-10  6.3838873462401369e-10  4.1496661307400681e-10  3.0788617083039484e-10  1.1680014638237111e-10  1.3109225083188562e-10  9.1279418453449422e-10  5.4859424636444533e-10  1.3390033589742028e-10  1.4215660827402486e-10  9.3670994575388479e-11  4.8809984872413403e-10  1.3668502432580193e-10  1.7254788073935534e-10  9.4282855335861601e-11  7.0175027797764534e-11  6.3066360150480116e-11  1.4754020484527793e-10  9.7346842562294482e-11  1.2947114822074394e-10  4.3130532748514668e-10  7.5772965964586750e-11  6.0420070402402333e-10  1.2596337244828852e-10  2.2437386565998991e-10  2.7741105177630037e-10  5.5703136017549872e-10  1.1571373416109189e-10  4.0720980166170258e-11  6.2409000343800495e-11  1.4196531535078436e-10  1.5845272238061585e-10  5.1309621150113593e-10  8.3598754915282914e-11  1.5924592726111344e-10  2.4861750689961569e-10  1.3743531012339248e-10  2.3465505234128547e-10  3.3053252890596621e-10  3.1266165967457498e-10  1.0342080788713487e-10  1.7353355401401385e-10  1.4843541924418271e-10  2.2771815928688663e-10  4.6096640747449464e-10  3.7440465395374166e-10  2.0178503675956779e-10  2.0313311868441421e-10  1.2372114632980155e-10  1.7165293849317315e-10  3.0151155008260024e-10  3.8133569885287174e-10  3.6234359374143550e-10  1.6615999016137043e-10  2.2020227738171461e-10  1.9368451502442582e-10  1.5256631609967171e-10  3.9762943768710280e-10  3.1493598102954365e-11  1.0472720168620310e-10  1.2676307203637677e-10  1.1322817509093300e-07  4.0670605832368040e-10  1.7449596902742568e-10  6.0942268383342188e-11  2.5779520134347878e-10  1.3701935219865024e-10  6.3855250663651501e-11  1.0457577879432476e-10  2.0313034279840952e-10  2.0469484658963219e-10  1.9243297695480671e-10  1.8795938241302300e-10  3.0745648382757989e-10  6.4562396646554502e-11  7.9909825701106869e-11  1.8974848926381736e-10  1.2264990068801784e-10  3.5247819752208576e-11  4.0017508079795266e-10  6.4332253138275893e-11  6.1274315245492473e-11  1.9329985671803016e-10  9.8146064649907181e-11  2.3558575600084767e-10  2.9156900633169784e-10  2.8768332259949416e-10  7.8080357555687653e-11  1.8523511662605948e-10  9.5783416371337919e-11  3.2531016837509379e-11  9.0107737234208389e-11  5.8014757098390318e-11  7.9062058459576270e-11  2.2793849145388840e-10  4.6957104550631781e-11  6.5912438841305723e-11  9.4058426052212667e-11  9.2875815898860467e-11  9.3484704459216850e-11  2.5124291681088263e-10  8.7897429796621753e-11  1.8348131870379116e-10  2.0264319431997960e-10  9.9639046354121264e-11  1.6127609994221110e-10  3.1528911730842166e-10  1.2343037513609814e-10  6.1924283239161119e-10  1.6986815385279971e-10  1.4834944536248618e-10  1.3919849783110993e-10  2.2557511567467742e-10  4.3942380473511008e-11  3.9676014046954260e-11  7.6406036616193085e-11  4.3414555424470686e-10  2.0121786478405835e-10  6.3347368527573493e-10  4.4536666193739564e-10  1.2090627530371322e-10  5.5007053039446168e-10  3.6358824605810496e-10  1.8729488982846647e-10  7.0198453970050065e-11  9.3247832440674387e-11  1.7483997066745463e-10  1.8803842710327594e-10  4.1425805618632620e-11  4.7847466171982821e-10  2.7665190533184985e-10  2.9611070546324039e-10  5.3181341465171857e-11  3.5071506709415045e-10  2.6497112801826678e-10  5.8941164361691278e-10  7.3023859042719958e-11  6.1068400093571339e-11  2.3955958715559738e-10  7.2155681710057015e-11  4.2250132122998249e-11  1.4638912202613461e-10  2.4215381534928155e-11  6