<?xml version="1.0"?>
<VTKFile type="UnstructuredGrid"  version="0.1"  >
<UnstructuredGrid>
<Piece  NumberOfPoints="4852" NumberOfCells="9430">
<Points>
<DataArray  type="Float64"  NumberOfComponents="3"  format="ascii">-1 0 0  -1 -1 0  0 -1 0  0 0 0  1 0 0  1 1 0  -1 1 0  0 1 0  -0.4999999999999999 0.9999999999999999 0  -1 0.5 0  -1 -0.5 0  -0.5 -1 0  0 -0.1608775713298009 0  1 0.5 0  0.5 1 0  0.1967448868031411 0 0  -0.3423789501189908 -0.1762959273504095 0  -0.3390009311362219 0.2259937176015233 0  0.1745139436186797 0.3485113550600974 0  -0.1872152458243756 0.5566728675635449 0  -0.5062682614394326 -0.5392274584347311 0  0.4908968469176285 0.2603356461177041 0  -0.06528660944393261 0.2025692415605232 0  0 -0.5061325913258391 0  -0.25 -1 0  -0.5641366275423826 0.5793322952414288 0  0.6627136801457009 0.6374221079742866 0  -0.1744587020159185 -0.5392533497196949 0  -0.5407924694712162 0.02630759261940363 0  -1 0.25 0  -0.2076946137404344 0.02410199510738066 0  -0.6561771331002764 0.3119683508430134 0  -1 -0.25 0  0.03895582203095848 0.5936525762335948 0  0.1956193098790435 0.1306392628590782 0  -0.1360370807332791 -0.2212305697113123 0  0.3723893597532597 0.6169027561695684 0  1 0.25 0  0.5355652144809806 0 0  -0.75 -1 0  -1 -0.75 0  -0.6469614931856472 -0.3243197797843233 0  0.25 1 0  -1 0.75 0  0.02757118475249542 0 0  -0.25 1 0  -0.75 1 0  1 0.75 0  0.75 1 0  0 -0.02898318711980711 0  0.05443928134714174 0.143574661805271 0  -0.07830522830283015 -0.02809133522296279 0  -0.7024065821364054 -0.1326440857607444 0  -0.3227374600772415 -0.3487502667465537 0  -0.342876872527621 0.4393573803578184 0  -0.1011783421760096 0.765451299394792 0  -0.38582908426572 0.7040716704408424 0  -0.0558258075200965 0.4009806896987488 0  -0.07989984019476903 0.07251113658645753 0  0.3597099479420161 0.3725518456074335 0  -0.7188199435360808 -0.7320785442851103 0  0.4122341425632403 0.09171468229141012 0  0.6900257671310683 0.1944080606983881 0  -0.7489697766861182 -0.5294325083364654 0  -0.3894950351752301 -0.7113389506095356 0  0.7214853006444555 0.4228090255138573 0  -0.7770211136300186 0.09830085241225808 0  0.1978073995873411 0.7004011053629451 0  -0.2006449275263313 0.2902753526716894 0  -0.8003098168646795 0.5794649989852428 0  -0.719018456433777 0.7677494751398745 0  -0.04019456306793208 -0.3738875127066845 0  0.5863805103975204 0.8186751172614419 0  0.8216442200516076 0.8085462885622002 0  -0.1026000065562385 -0.6969475375576721 0  -0.5164657727299128 0.1647508472512555 0  -0.203537735005062 0.1266543837906793 0  -0.3611488726103427 0.07629731982853087 0  -0.3670413070664555 -0.05210627555255053 0  -0.4990985406591079 0.3973678736226515 0  0.375 1 0  1 0.125 0  -0.0118959197056059 0.07196091315202051 0  0.06213654851615984 0.3940204999822538 0  -0.1724800853695352 -0.1228839875043222 0  -0.2450703600733833 0.7746309918630547 0  -0.625 1 0  0.5343020557585397 0.4580118980378355 0  -0.5787410243483744 -0.8308636469037369 0  -0.2574670892480917 -0.7833591818535875 0  -0.3206463709782704 -0.5099216509845043 0  0.8341865774595831 0.5984179826582053 0  -0.5509737433514814 0.7919812917403167 0  0.125 1 0  -0.06785589246062658 -0.09377205171409519 0  -0.496442889999183 -0.1434160282931033 0  -0.875 -1 0  0.02985648820346464 0.0419784279505943 0  1 0.375 0  -0.875 1 0  0.05732277544635569 0.7951018817237019 0  -0.1948214730288141 -0.3757056526021035 0  -0.07407868215144492 0.5728147622425622 0  0.2373865159365673 0.5202807477341438 0  -0.7932272005151314 0.2314896864590365 0  -0.4971133834677899 -0.3904821392907786 0  -0.0002590102503416234 0.2730225263633528 0  0.5115735856705461 0.6430982767355603 0  0.4003976021343426 0.8088678248415297 0  -0.8071269268319962 0.4266626680050351 0  -0.06201237255097607 -0.2222162509794148 0  -0.7108478905342511 -0.01354742747095421 0  0.0908490205580729 0.05319659160668024 0  -0.4800191133319655 -0.2521183182466209 0  0.723912393004158 0.08414868808568014 0  -0.8096237386264709 -0.4126570407993923 0  0.3380373215461266 0.1559575553838647 0  -0.7952387457807538 -0.2517078115787527 0  0.2369377154196626 0.2566871732301043 0  -1 -0.875 0  -1 0.875 0  0.1846223105133037 0.04902722310570696 0  -0.2485093687542744 -0.2301357622442653 0  -1 0.375 0  -0.1723187593160106 -0.04195577272100081 0  -0.6510390898984578 0.4698386473092504 0  0 -0.07736776745332727 0  0.08067383501568678 0.2618856874318736 0  -0.375 1 0  -0.2192960269450103 0.4267139776194946 0  -0.1213802391437642 0.1513192391730056 0  0.1338201836899343 0.5563834805859744 0  0.132416502157015 0.1956656581191938 0  -0.4770837785409289 0.2717474635614085 0  -0.04680687391893916 0.01387303443957392 0  0.8507445370270398 0.3734124916260542 0  -1 -0.125 0  0.2866169212160222 0.8380765169693214 0  -0.1122274708608245 0.3149709077808254 0  -0.125 -1 0  0 -0.7575037395175259 0  0.07821397079968176 0 0  -1 -0.375 0  -0.375 -1 0  -0.625 -1 0  0.7474787146812756 0 0  0.625 1 0  0 -0.2918843213980812 0  -1 0.625 0  -1 0.125 0  -1 -0.625 0  0.3284075310660084 0 0  0.004929205892015135 0 0  -0.125 1 0  0 -0.006571003003944568 0  1 0.625 0  1 0.875 0  0.875 1 0  -0.5657275150783186 -0.6781117690529739 0  -0.004886150595947566 0.1616336606473223 0  0.3629663255579821 0.2659709201258591 0  0.65309335703254 0.2975741932510279 0  -0.8559428704001898 -0.6489131759366292 0  -0.8649468637462927 0.7887115565311174 0  0.4315282116356587 0.5045896642577612 0  -0.4000697534051709 0.856309196619645 0  -0.7808056029576819 -0.8757547277743228 0  -0.8717566191922016 -0.7861548631990843 0  0.1549474598436793 0.8431103197048535 0  -0.6600663429321806 0.1546895853219868 0  -0.5795687417567632 -0.06398416376323574 0  -0.8553425364659728 -0.06226011222714913 0  -0.2988554175454735 0.5638619708689043 0  -0.4265422528287009 0.571661532068463 0  -0.3785633538416175 0.3333154709264778 0  -0.6203803538828415 -0.2169835085660088 0  -0.2744800494402833 -0.09024017031270876 0  -0.6428401817548266 -0.5908035823148728 0  0.859347736702439 0.2681233535594728 0  -0.03295436865230196 -0.03319412355774425 0  -0.05544885170183034 0.1156112483636161 0  -0.1354687877032449 0.4340722185560204 0  -0.1209591083139119 0.03262437021136765 0  0.537964912425989 0.06594656157688483 0  0.5797481589103278 0.3634137516377017 0  0.6930801481897442 0.7774901123328042 0  -0.7955946602117469 0.8819283901313101 0  -0.6454288163550566 -0.4310703755794146 0  -0.112404055855887 -0.399119865415257 0  0.8716287772509105 0.4917767223064403 0  0.07632484614158136 0.09492111593452844 0  -0.6664357344775962 0.8691674984392227 0  0.455272100714167 0.354149982200286 0  -0.02669086563075811 0.03615840149462324 0  -0.4108073258782523 -0.441869623274334 0  -0.3635319616440781 -0.2698428206068025 0  0.3245960347149062 0.4846988116971983 0  -0.1979225222591749 0.2030144291916162 0  0.7061674137567305 0.5349460987854455 0  0.2625382713147982 0.3589018823253205 0  -0.3782792592190297 -0.851589147956955 0  0.1096460921584549 0.6838710374027356 0  -0.2850505699039121 -0.6131055201543848 0  -0.443647016544657 -0.6215089087526059 0  0.2975238868858651 0.6944486201399638 0  -0.8755898954893888 -0.1751222406264683 0  -0.1813924822821372 0.8553494726608636 0  0.4551427582106171 0.1662385846785284 0  0.2805709606806572 0.04761050109457329 0  -0.1442111804527079 0.6592356144885348 0  -0.01206193238587048 0.7103350481265593 0  -0.05391050448153161 0.8755077335699172 0  0.004868809248262241 0.4720753978351014 0  -0.3898818866493591 0.1551323462861413 0  0.5495071177077622 0.1356589472276095 0  -0.478724715254554 0.6841449976653622 0  -0.8522578376200172 0.3348261079846725 0  -0.08718125668218667 -0.5374114775824219 0  -0.02313787565221021 -0.5527044834683563 0  -0.2136501995702247 -0.2893241630299115 0  0.8682087371356741 0.1529718302790244 0  -0.167690216125067 -0.661421011124717 0  -0.8902338069181905 -0.5302301999989835 0  -0.2841157247847306 0.3403954042055359 0  -0.6786393892751772 0.5764414805456857 0  -0.8980138971846937 0.5329087877731918 0  -0.8992773805548973 0.6624720031901741 0  -0.646095597695295 0.07371804253323025 0  -0.8599419218492927 0.02932332848089598 0  -0.8889053828026708 0.1688697740647691 0  -0.1316417286815159 0.2306898147904824 0  0.1610471059167126 0.4487341058594205 0  -0.04370042859082774 -0.1262225908293983 0  -0.7555235163039712 0.6718969421304035 0  -0.6053010350002925 0.6997009115627942 0  -0.256311097866807 0.07941151312870777 0  -0.252049278091482 0.6505087004233522 0  -0.02766188222522534 -0.006651276491989784 0  -0.4963899381629392 0.8773661612123655 0  -0.4796815515379238 0.4927702325460135 0  -0.2925313672227648 0.145436211326805 0  0.002480262385508692 0.0238943123756814 0  0.7804874466487631 0.6870885399048791 0  -0.4722077885490495 -0.8251270616027612 0  0.2725206803353993 0.1974607332876958 0  -0.1480446171089162 -0.862739605360003 0  -0.06455205020137333 -0.8292447115396082 0  0.4450565998792227 0.7084866594231377 0  -0.1148056643432757 -0.2902177551594374 0  -0.2666818220918316 -0.02599956709180468 0  -0.894999309842673 -0.8973657200169692 0  -0.5748987155580567 0.2397544052272928 0  -0.4782125798228095 0.08897328985353328 0  0.4929517542332222 0.8276441477976165 0  -0.02285280486130405 -0.2628308602879532 0  -0.3117975961189873 0.8756809612284888 0  -0.1444586935321055 0.08122558290918887 0  -0.4712717096146339 -0.03441533337766709 0  -0.3900658431007694 0.01276741640159947 0  -0.2937053999098637 0.02816190364287737 0  -0.3869054185895453 -0.1206182657734367 0  0.888612439703885 0.7004389228198542 0  0.7943089733997116 0.9122716171313942 0  0.5769807919338916 0.2111486888169697 0  -0.5625605393924781 -0.4712977348149857 0  0.6006413182191765 0.7090585885281728 0  0.6795831208718487 0.8899866168804403 0  -0.05200350721197882 0.305235325223461 0  -0.9032152790063153 0.9055025639116008 0  -0.1284520013217924 -0.06746253224667471 0  -0.1697574407328186 -0.1834947568368837 0  -0.2538539989685961 -0.1442384371244024 0  0.0370946856639438 0.203395409223602 0  0.9028167067151538 0.8961908080629898 
[...]
<PointData  Scalars="w"> 
<DataArray  type="Float64"  Name="w"  format="ascii">1.6810293066577267e-10  9.9254789798787485e-12  4.4648614656212693e-10  2.6297214168817926e-09  6.2653482842486150e-10  1.5204323604157692e-12  8.5288506080232568e-12  7.4162815968312652e-11  3.9513231122373344e-11  2.1037706663098281e-11  1.0160474781232775e-10  9.4924403434484316e-11  4.1719263295122881e-10  2.6189296020460940e-10  8.7703455244279908e-12  5.5043099464635828e-10  9.1797818796929884e-11  7.1884645517617407e-11  1.3053754692267865e-10  3.5080177376543678e-10  6.7743356629854999e-11  1.0433840283106927e-10  5.8611408550646134e-10  2.0130149341982919e-08  5.9302359397503748e-10  1.0629787326591143e-10  8.5891247605736081e-11  1.7171223002934276e-10  7.6740037922027778e-11  1.8887979383275686e-11  4.7387488094970112e-10  9.7115567460035389e-11  2.3448842592279483e-10  1.7873384412360031e-10  4.6304765868893567e-10  2.3300872715548028e-10  7.6071486828034619e-11  4.6663890688381300e-10  5.9950327981732665e-10  2.9781042113558540e-11  4.7417142061972573e-11  1.0589681652532678e-10  8.9310004086170870e-11  1.7950375142201107e-11  1.0830124528540874e-09  9.1248989025965574e-11  3.1108702781037780e-11  8.9871524640029897e-11  1.3345572698345975e-12  6.0022173589444373e-10  2.2547446286737823e-10  2.1679856967450348e-10  8.0510817457362379e-11  2.5884723529531462e-10  2.5546713734380309e-10  1.9610056265883936e-10  3.5099456373446904e-10  8.8927299631235945e-11  5.9347011275560610e-10  2.5079055403497047e-10  2.9898022860991908e-11  3.2133683300122787e-10  3.7580694150598869e-10  1.4048962883589162e-10  5.3114240353339042e-11  1.7539115093955528e-10  6.9123623991259339e-11  1.7504542781709571e-10  2.3404449989317142e-10  4.3589156831550910e-11  6.2894006808292099e-11  5.1574421759704322e-10  5.4287261871476254e-11  8.4189853028546398e-11  1.7462758675853415e-10  1.6849015979928395e-10  2.6041366156672025e-10  2.8856105588123938e-10  1.8253857378633420e-10  1.9079057732361605e-10  6.2369893522671205e-11  2.5119984801606585e-10  2.7292285449711237e-10  1.9953287238283453e-10  2.3592909418942936e-10  1.2065328360804160e-10  4.3156956750245174e-11  1.0773452828815263e-10  9.3082614371727174e-11  2.6041404117513288e-10  6.9564316427450842e-11  9.5491871283709275e-11  7.5398779442107092e-11  9.2074948013395775e-11  3.9479372170499757e-10  2.0849374906712181e-10  2.3999501087857161e-11  6.6903349849938125e-10  2.5478724875317170e-10  2.9716766736340713e-11  2.6962943734399074e-10  4.3022614482971299e-10  7.2825405480662051e-11  9.5800911854168243e-11  1.5441556790639417e-10  6.4703195193779217e-11  2.7726110075486142e-10  8.1568868640152467e-11  1.4396599537115115e-10  6.3188281773914239e-11  3.0972586796097542e-10  2.4129014359416025e-10  2.3771188872324935e-10  6.4185128948002152e-10  1.2296165690563327e-09  1.4676768268039198e-10  1.6775999324415015e-10  1.0165743589955049e-10  4.6037729659301923e-10  2.4444436675479453e-11  2.4521543462089917e-11  2.8224067597518846e-10  9.3836156599539022e-11  5.9386190960155000e-11  5.0852038735591076e-10  5.5281261739349670e-11  6.1512477289972113e-10  1.1911409953256125e-10  7.6461776581900640e-11  8.1945846667021700e-11  3.4876915148676292e-10  1.7015771199552095e-10  4.6941354844167096e-10  1.3090557237977309e-10  6.4243167422928288e-10  4.2193251442654525e-10  1.0544819571490007e-10  5.0287697187703298e-11  1.3226517590152234e-10  2.6065361697066651e-10  2.8173177254898140e-10  6.3425975308159847e-10  8.7246352797693042e-11  1.1973464249138355e-10  6.3762205793209941e-11  6.6390251073895019e-10  7.9925057141917696e-11  2.8002255975367834e-10  1.4093027748531201e-10  1.2094724265162820e-10  1.8763327119317969e-11  2.8866420453768238e-10  1.6413970315157112e-09  5.7563240311059029e-11  9.9491414979525141e-10  7.4080976047362874e-11  2.1564651479655481e-11  2.1985346078183598e-11  1.2195716643659473e-10  5.7150317239313205e-10  4.5025520110884996e-10  1.6088005944064535e-10  1.0887866287106050e-10  1.5879778014966959e-10  1.8401528007678836e-10  5.6209205915930506e-11  7.3426621923858800e-11  1.9078021505003446e-11  5.8058297807134740e-11  2.8698181112150303e-10  9.1459425785223102e-11  1.0554042889391820e-10  8.1043082010759805e-11  9.4186548469644521e-11  5.2287416891891200e-11  9.3202967998266895e-11  4.5954985022175920e-10  5.4413905169891183e-11  1.6401472950858587e-10  1.7132590984460093e-10  4.8008138346510426e-10  1.9735631439995047e-10  2.8824904071915731e-10  1.4635903315860473e-10  1.4420667951971795e-10  1.4524971899603407e-10  2.0754117466546077e-11  2.7715280915748462e-10  7.0046730602525465e-10  2.4202321046508463e-11  2.5607400254792893e-10  8.6603635733604153e-11  1.5715912932948112e-10  1.1633549531069277e-09  1.3928949131975725e-10  1.6677708723133457e-10  2.3195461524711640e-10  2.9055618539239105e-10  1.0245503976709606e-10  2.0387643218893713e-10  4.1502530900051654e-10  2.1618736072593635e-10  2.3816889910161834e-10  1.1163441609827293e-10  1.0971799136438080e-10  1.1252495801803390e-10  6.8242386574129968e-11  2.0985094784230824e-10  9.0686485499838775e-10  7.8191101733022048e-11  1.0623612965676558e-10  7.7674074000306355e-11  9.6494262341782265e-11  1.6217031455784415e-10  3.8049330003200353e-10  7.8418455245097434e-11  8.0783964872273089e-11  8.4202652648904521e-10  8.0509488315868128e-10  3.0077372692797229e-10  2.0131344075373025e-10  7.8811273138077138e-11  7.6952743583428752e-11  3.3882540857361971e-10  5.6398638123262742e-11  8.0647100403903770e-11  4.8498194417322763e-11  9.1799101137589979e-11  4.0794747871154033e-10  8.8432585471520929e-11  1.9973007759450417e-10  1.6371328126625540e-10  9.3285306902550655e-10  5.9485674962832717e-11  1.9409666759310070e-10  1.1634486849759931e-10  1.1103316599032581e-10  7.6676240257978214e-10  7.2204769290093301e-11  8.3050324773493030e-11  1.1716644789234543e-10  1.1650045100689716e-09  3.8870809755810383e-11  7.6522960790563227e-11  2.8047797193810336e-10  2.5986948204560423e-10  3.5012176607340259e-10  1.7827857265242765e-10  2.0740741517432684e-10  4.0806252385337776e-10  2.7714567986895550e-11  1.0322168237361268e-10  1.2744752226125498e-10  3.6346822701971818e-11  2.9129380885631485e-10  4.1716491173990704e-11  3.4017483747533799e-10  1.3587721582263135e-10  1.1016162236054071e-10  1.9188174337794918e-10  5.0538690047521867e-10  7.1635990866741698e-11  2.5482714127584591e-11  1.4422446522450367e-10  8.2420827732241698e-11  5.7323735074911861e-11  7.1489073187819738e-11  1.8131405575170078e-10  4.5678584927913460e-11  2.6635442786873534e-10  2.5872482089102234e-10  1.3080498330277431e-10  1.3034012849297189e-10  1.2586104792582060e-11  7.2142944188482734e-11  1.4862979624061768e-10  1.6420905118099787e-10  5.0886940652504556e-10  3.6761285108091700e-11  8.0323206611361167e-11  3.1853348227696985e-11  2.4416029075577710e-10  1.2263422155844842e-10  1.8104364015443127e-10  7.5519352461940786e-11  8.4105408129256244e-11  1.2166271068018588e-10  2.0088812828737777e-10  2.2381406270101552e-10  2.6042093233876346e-10  4.4596442035170207e-10  2.1512733743091151e-10  2.1184697610694128e-10  1.4285032412569253e-10  8.1186804074588733e-11  1.7381969185767016e-10  1.7014939223919860e-10  6.4020520124546468e-10  1.2686287357084762e-10  6.0656845405818759e-11  4.1542128561237911e-10  1.9138764667674729e-10  1.9955662592906682e-10  1.1455049688867461e-10  3.0821497022371250e-11  4.3984617338948903e-11  9.5354466241239075e-11  7.1385416769874625e-10  2.9803570489380421e-10  1.8017442017207223e-10  1.3529400373102947e-10  3.3668344315273856e-10  6.8280880376188585e-11  1.1200974085641565e-10  3.6310330679093594e-10  9.8880520773514204e-10  9.6708187263745648e-11  2.8286517366822674e-10  6.2688007192543525e-10  1.2653259758453465e-09  2.0018933048267110e-10  1.5756031724466700e-09  4.2409448677514749e-10  2.2688376562226049e-10  1.2630046339293869e-10  3.9529820725511667e-11  6.4356136274448928e-11  1.2635520014354467e-10  1.5272002716573408e-10  6.1424186754925035e-11  9.8453862335916509e-11  1.0832338334351716e-10  1.2833677185870056e-10  1.9334917061287914e-10  5.1157860611582942e-10  3.2626616457350136e-10  1.6496589878252788e-10  9.4805629568737424e-11  6.0971097259215285e-11  5.8877093045783300e-11  6.9125355428152535e-11  1.8100870681806239e-10  2.1566271551494977e-10  1.0396791459057540e-10  1.0234013003478728e-10  2.3427662273847068e-10  1.3386913972690603e-10  6.6937336971872690e-11  5.9226947585960542e-11  1.0524827127171581e-10  3.2985233775830567e-11  1.8047933652277413e-10  3.1963561672112843e-11  1.6081719992753265e-10  1.7839056133934081e-10  1.5776971470326197e-10  3.8827246322143927e-10  7.9270533312135175e-11  8.1204063600473672e-11  1.4207230249360465e-10  2.9894674749793848e-10  1.5117734768049175e-10  2.6303482030383650e-10  1.0952401150146888e-10  1.3384571701882088e-10  1.4952275974585833e-10  2.9215834690777749e-10  1.2832462350564175e-10  3.2699466637310999e-11  1.1501569086421999e-10  1.1114289138436057e-10  1.4800921327835904e-10  2.4362843372427990e-10  1.6628814550450667e-10  3.3871418065644982e-11  1.2948086575435589e-10  2.3639388553733082e-10  2.6546656724623568e-11  3.3072054627910239e-10  1.6647689852669426e-10  3.9751959269601609e-10  1.1671308562278865e-10  2.2602796122926624e-10  3.2255084314969978e-10  7.3971991209371960e-11  1.0345175976742217e-10  2.1533357556477279e-10  6.7944138768392988e-11  4.9292295886280051e-10  1.6017843736892005e-10  9.6803829385381765e-11  1.0757543197784087e-10  2.0520597088595339e-10  5.5325350926479406e-10  4.8671472750041595e-10  1.7638288487843040e-10  1.6950396545980408e-10  2.0456061556793426e-10  3.9732621623308714e-10  4.4812614869875231e-11  2.2083184460165277e-10  8.0841690551200547e-11  1.2592850563110119e-09  1.1840478024395321e-10  4.5976751260428682e-11  5.7034945690624553e-10  3.4699046370045900e-10  2.4788797309481258e-10  2.0600309575202913e-10  6.1731097120182192e-11  1.5051994002802463e-10  3.2912254124828348e-11  4.3997838120026552e-10  7.9081953089634347e-11  1.3426131431841633e-10  1.2788172519974934e-10  6.5924835510298857e-11  3.4593616305871011e-10  4.1587290925787561e-11  1.1390867689906577e-10  2.5496705144352973e-10  1.8140216190823864e-10  7.2960409580666445e-10  9.0274425817098784e-11  5.8247682704965560e-10  1.4108323049637884e-10  3.6376381674947162e-10  5.8178893893306910e-10  2.4670302749794206e-10  1.5464550766279271e-10  2.7808867353847506e-10  4.8570158855819373e-10  3.4724416070819120e-10  7.2379552558412803e-11  4.7616273872490917e-11  1.6579170986067794e-10  3.6300177449234787e-10  1.8170812417742643e-10  1.2260367929914277e-10  1.6501461021254206e-10  7.7754759643567536e-11  6.9101787704840047e-11  1.9811874890734564e-10  5.6899312394475295e-11  2.0557660643385881e-10  9.1528411551955509e-11  4.9092793827911133e-10  4.8314985199320996e-10  8.0616389228889501e-11  4.0563627124268830e-11  4.1457457155167713e-10  6.6680129459249494e-10  2.5857889442508775e-10  1.0183762624682042e-09  2.9359312278066406e-10  3.2181619107532809e-10  2.7946192695555142e-10  2.7232459857328350e-10  9.6163054184720209e-11  2.9393320752051215e-11  1.9485690972151946e-10  1.0627197281176831e-10  2.1288991766734006e-10  7.4975409742822745e-11  1.2072026331065792e-10  2.1366727272859069e-09  1.7896756836018452e-10  7.9158141552091432e-11  8.0850751221978064e-11  4.0483559907644423e-10  2.4514288128296871e-10  1.9079519585954207e-10  2.1041661250173999e-10  4.3601446014873332e-11  7.7567509376868574e-10  2.4300944179713059e-10  5.3767268805117473e-10  2.5168390177185614e-10  2.3735904600280525e-10  3.0677740222584433e-10  9.3920653013486863e-11  3.1843875671895907e-11  3.4197073433013236e-11  3.8098243999027579e-10  3.3805152147202422e-11  1.1161988683656739e-10  1.0388534531279821e-09  7.4924610504216857e-11  3.3262284004932382e-10  2.5803182816458721e-10  6.1605535984935687e-11  5.8508346832935607e-11  1.8136943904174244e-10  2.4772025890018119e-10  4.6037557843525846e-11  1.1296892908361742e-10  1.5819210617498195e-10  7.6111571965590035e-11  1.6694356365201231e-10  2.1832635066055840e-09  3.9890680270636558e-10  3.2254571360816897e-10  1.0776201878853070e-10  1.0414728078841708e-10  1.7887717550860817e-10  7.4720400000651547e-11  1.3172728280447266e-10  4.9335440955663466e-10  8.6309838560461194e-11  2.3458646888089226e-10  2.0923206885283530e-10  1.3840751706163876e-10  4.7800665601167083e-11  7.1765865699382073e-11  5.0249937218705433e-11  8.1888235458885765e-10  1.0477757666026527e-10  2.1848951133356038e-11  5.7912294873042145e-10  2.8677373396679575e-11  6.2847932958404458e-10  1.1386049370069167e-11  1.1863204807218648e-09  2.1351948195079746e-10  2.5566231840818135e-10  1.0047072820517420e-10  2.7431383028896200e-11  8.2117417077506124e-11  2.7068394212378474e-11  1.9294077089751860e-10  3.7549491448174212e-10  2.6988472829319974e-10  3.2330907183585146e-10  1.3241488056808005e-10  9.3544729519085319e-11  6.0269959791641390e-11  3.7073965646198059e-10  4.9586221279116506e-10  1.0182167481856381e-10  9.7119357531189547e-11  1.4304172269466597e-10  7.3629424331353004e-11  4.5908800066364163e-11  5.0511566163841378e-11  2.9470392447504417e-11  8.5744674399947315e-12  1.6757236860190214e-11  9.1292682310319831e-11  2.0098531914909039e-12  9.8391794493026623e-12  1.8670505653317980e-10  3.5372169901260693e-09  2.1932466120730133e-10  3.8589061107281875e-11  2.2481750873405756e-10  9.1606671265139774e-11  1.1146423869297502e-10  4.2464523597689835e-11  1.5980950271321379e-11  8.1977949635766388e-11  7.7645262670639228e-10  7.6243201616323970e-11  1.8299863722074966e-10  3.2321289759379819e-10  4.8638258239570318e-10  9.6251995199354895e-11  1.0104860833357556e-10  5.6928334740582388e-11  7.6462107250342589e-11  1.0623073003857828e-10  5.5300221423718742e-11  6.3271918822975260e-10  5.8827869751606622e-11  2.8273552715262357e-10  8.6161369285136471e-11  1.2653366612272353e-10  3.0188989644968699e-10  4.0602342220805294e-11  5.9821922455325967e-11  2.7573490812086784e-10  1.1268589746689916e-11  1.1221479002871757e-10  8.7179365170682546e-11  7.4591737594677383e-11  5.7540581005333085e-10  1.6224408121940239e-09  2.9943351668533920e-10  2.8929572679883887e-10  8.9543883020104684e-11  6.7534652823391565e-11  2.5304141404297125e-10  1.1409446443000667e-10  9.3840066285531356e-11  1.0211057072095483e-10  1.9375692639355106e-10  7.3053486239573133e-11  4.9413329205679664e-11  6.6286795726631965e-11  3.7940487483469248e-11  8.3199863180394378e-11  1.9339129419467657e-10  1.6322725084342007e-10  1.1238412451872631e-10  2.8001009420294547e-10  4.5351803979504763e-11  1.3560262831316897e-10  5.3810352319471545e-10  6.4095398925361817e-11  1.1746949656028446e-10  1.4721499515770851e-09  5.7373030292284569e-11  3.4963623325220834e-10  5.2896321261162191e-10  1.6014656221895712e-10  1.2423455445515207e-10  1.2628752999553089e-10  8.4576758449659901e-11  2.5089442101142051e-10  2.9049909597749813e-10  1.7564485901161534e-10  4.8365931023024003e-10  4.2951134946854826e-10  1.1910699450182876e-10  2.0658730121658648e-10  6.4368577665105408e-11  8.3003798801354011e-11  6.1173993467968027e-11  2.3926296968259907e-10  4.0339227452445541e-10  3.1084478280940441e-10  3.3407846635297583e-10  8.5342932080278381e-11  2.3121927960500686e-10  4.8732082639461988e-10  1.6448436528040737e-10  4.7455966051412832e-10  1.8226688249409132e-10  1.3820301377115500e-10  1.1125288261674214e-10  5.0221130850158664e-11  5.2089910008450501e-11  3.3505517247692211e-10  6.1578360027588741e-11  6.2166799983252505e-11  1.2690569461669764e-10  3.2354308029040308e-10  3.2091929249865259e-10  1.5785015634816517e-10  1.1681653713335917e-10  6.1389367835323973e-10  6.4180617234389441e-10  1.6628986893530129e-09  2.7408315134101908e-10  1.9857055476464358e-10  4.4848708763064601e-10  4.6086990508192508e-10  1.2266500140904254e-09  3.0297634156239643e-10  2.3694459387961504e-10  3.1706775978313366e-11  1.2581117991647374e-10  3.3100499970904980e-10  5.0866874343864609e-10  2.1301476667930837e-10  6.9979017621955330e-10  2.9915182907034084e-10  2.0246385390591210e-11  4.9195401364877735e-10  3.2657869782845286e-10  3.8077869055128735e-11  3.3655293644905271e-10  4.1376727847224961e-10  5.5219140808039825e-10  1.4657332977455046e-10  6.7971130219578177e-10  1.9496858931978351e-10  4.7033752353717047e-11  1.2684355701115968e-10  1.3225691634977644e-10  2.9712582013121026e-10  7.5476376358255538e-11  2.5838624627388864e-10  1.9187603121442688e-10  7.5187637070355579e-12  1.2901282368948625e-10  5.5812337221679943e-11  8.8866620538196574e-11  1.2125815089037999e-10  6.4777250105840561e-10  4.2009923530667859e-10  3.1532042140133651e-10  1.1671587619900441e-10  1.2948275588026374e-10  9.3272469867465680e-10  5.6048294463283903e-10  1.3402829120086828e-10  1.4398464449961163e-10  9.5241201060462535e-11  5.0002355441788520e-10  1.3730036697013107e-10  1.7117039366320832e-10  9.2729460246829555e-11  6.8803902597157454e-11  6.2152086733317548e-11  1.4597658518406545e-10  9.6583568699300127e-11  1.2580974750470026e-10  4.0740295509596183e-10  7.6292335730538865e-11  6.1920308310637087e-10  1.2249231337525195e-10  2.2641758603827093e-10  2.7437353871935516e-10  5.6723202296031368e-10  1.1484702182836160e-10  3.9557225622975179e-11  6.0513879773819556e-11  1.4248788525398398e-10  1.5746381138570132e-10  5.1089671933628251e-10  8.0713649847681449e-11  1.5948678355044333e-10  2.4998490558964043e-10  1.4101529797602769e-10  2.3718366304952563e-10  3.3718139609099356e-10  3.1720763463317496e-10  1.0366486006422941e-10  1.7343828194182475e-10  1.5064986900823294e-10  2.2887545573120704e-10  4.3198151986392961e-10  3.7540347771709639e-10  2.0105391769551235e-10  1.9336160842416254e-10  1.2464922449749102e-10  1.6718568481901286e-10  3.0232047161966779e-10  3.8422915027409799e-10  3.6552913668761311e-10  1.6731737698717281e-10  2.2014070106680744e-10  1.9909756739268168e-10  1.4712352959314808e-10  3.9537016507815643e-10  3.0369415081360114e-11  1.0495166460170023e-10  1.2959752983926589e-10  5.1000322928180514e-08  4.0880555784589697e-10  1.7143109326273079e-10  6.1118233053929784e-11  2.5982152439996417e-10  1.3561169353989032e-10  6.3582630344559184e-11  1.0329675600606932e-10  2.0344748523956574e-10  2.0526318193449666e-10  1.9624923854239402e-10  1.8689297911621940e-10  3.0664039791694396e-10  6.3518900855729733e-11  7.9661846929512243e-11  1.9025773592751681e-10  1.2475840059108853e-10  3.3482409386194826e-11  4.0189883208974928e-10  6.2633371636596657e-11  5.9392849549122012e-11  1.9640230732643771e-10  9.7863869123722105e-11  2.3358260703781931e-10  2.9014871240624448e-10  1.0225439839591903e-10  8.1286235893579165e-11  1.8497512472125467e-10  9.4380567642244986e-11  3.0582628046049795e-11  8.5029096324541002e-11  5.6705607841198139e-11  7.8289918414957752e-11  2.2794081726582053e-10  4.5566617867204021e-11  6.2491380951793127e-11  9.1412254042570482e-11  9.0814037429468302e-11  9.2892372388283440e-11  2.6724693509716919e-10  8.8102500547622381e-11  1.8773647309720121e-10  2.1445086884805674e-10  1.0633169258402984e-10  1.6145822436258375e-10  3.1644841042390259e-10  1.2126255939645380e-10  6.2349996122234619e-10  1.6784970428903475e-10  1.4915355361898160e-10  1.3993229944109136e-10  2.1720215904347077e-10  4.2525844460721777e-11  3.8160359171572240e-11  7.4749209497621338e-11  4.3587334647252803e-10  2.0149045682554186e-10  6.5020509934840611e-10  4.5282378448915786e-10  1.1993167996327254e-10  5.5500875191941186e-10  3.6085462688864873e-10  1.8759006319174063e-10  7.0251337497369388e-11  9.1088835847592960e-11  1.7604606475068029e-10  1.8901089304179187e-10  3.9537447415436062e-11  4.9193210345135478e-10  2.8574659206328011e-10  3.1761532905740806e-10  4.9991565573474075e-11  3.5503128256897481e-10  2.7114735317416645e-10  6.0155158235955778e-10  7.1886288502906606e-11  6.0133997289336395e-11  2.4160453682180146e-10  7.0268691544616472e-11  4.1039948009756230e-11  1.4103063911807276e-10  2.3409549197081576e-11  6