<?xml version="1.0"?>
<VTKFile type="UnstructuredGrid"  version="0.1"  >
<UnstructuredGrid>
<Piece  NumberOfPoints="4852" NumberOfCells="9430">
<Points>
<DataArray  type="Float64"  NumberOfComponents="3"  format="ascii">-1 0 0  -1 -1 0  0 -1 0  0 0 0  1 0 0  1 1 0  -1 1 0  0 0.9999999999999999 0  -0.5 1 0  -1 0.5 0  -1 -0.5 0  -0.5 -1 0  0 -0.1608775713298009 0  1 0.5 0  0.5 1 0  0.1967448868031411 0 0  -0.3406759559800445 -0.1756739152865811 0  -0.3369761369743207 0.2241690151127587 0  0.1734818638436211 0.3460988293290616 0  -0.1850849744696676 0.5549406852507605 0  -0.5032843378017138 -0.5373761870562321 0  0.4902984157445031 0.2567429731149072 0  -0.06482366652168119 0.2011688331245909 0  0 -0.5061325913258391 0  -0.25 -1 0  -0.5610852179877061 0.5771403189620664 0  0.6612939503165877 0.6332438823274653 0  -0.177112379187234 -0.5375638700662705 0  -0.5389387760581766 0.02527199412489112 0  -1 0.25 0  -0.2063696792526133 0.02396170152808122 0  -0.6544849399253834 0.3090075241396402 0  -1 -0.25 0  0.03892690440058837 0.5916441441313076 0  0.1946716327506114 0.1289664555832731 0  -0.1365308603966646 -0.2196689765805238 0  0.3707971160737054 0.6140847445258565 0  1 0.25 0  0.5355652144809806 0 0  -0.75 -1 0  -0.9999999999999999 -0.75 0  -0.6447968022174481 -0.3230569502965478 0  0.25 1 0  -1 0.75 0  0.02757118475249542 0 0  -0.25 1 0  -0.7500000000000001 1 0  1 0.75 0  0.75 1 0  0 -0.02898318711980711 0  0.05362449309499941 0.1424331471280766 0  -0.07786954833773121 -0.0275812824357259 0  -0.7010112149388099 -0.1325332026438295 0  -0.321510309890908 -0.3471466434629759 0  -0.340190391372153 0.437206814634336 0  -0.09998194785947549 0.7642031903849296 0  -0.3829722660521144 0.7024932719876804 0  -0.05517664584393458 0.3989536921581663 0  -0.07919399776467044 0.07211645822437948 0  0.3585925070321015 0.3692424103689569 0  -0.7154717398663986 -0.7297124210773195 0  0.4116783477185726 0.08985235568468569 0  0.6899192154768259 0.1913026411749072 0  -0.7470365473661558 -0.5267907568276544 0  -0.3870875672837181 -0.7106262984108895 0  0.7215638519360261 0.4179934945794619 0  -0.7759942211480851 0.09674814882509168 0  0.1965071480570785 0.6984785210132421 0  -0.1989455263479102 0.2885075048041092 0  -0.798754611912134 0.5771401401003555 0  -0.7164513872276581 0.7661335079583333 0  -0.05357259045022893 -0.3732932608683696 0  0.5844659411751066 0.8161433021850386 0  0.8201416682772018 0.8054773192344241 0  -0.1069318165903111 -0.6974970892400061 0  -0.5145775919822235 0.162449676103765 0  -0.2021044930466887 0.1257234289249073 0  -0.3593335413972497 0.07528447890996232 0  -0.365201983424666 -0.05233276604096303 0  -0.4965752683016595 0.3947729065493983 0  0.375 1 0  0.9999999999999999 0.125 0  -0.01231314443104571 0.07129294316571606 0  0.06170883321357045 0.391858338041868 0  -0.1715290520900728 -0.1221717741092621 0  -0.2427638631131432 0.7736213686529636 0  -0.625 1 0  0.5331830347414532 0.4536916388224294 0  -0.5754688187086687 -0.8300088386941359 0  -0.2574735397224573 -0.7837386720656236 0  -0.3195569835929962 -0.5083365095897192 0  0.8339330264581859 0.5947579764967872 0  -0.5484111122837471 0.7906539433823082 0  0.125 1 0  -0.06761920935869166 -0.09327840728942714 0  -0.4944578401859505 -0.1432973460538821 0  -0.8749999999999999 -0.9999999999999999 0  0.02917525671691849 0.04174926544759881 0  1 0.3749999999999999 0  -0.875 1 0  0.05720472395001711 0.7939048349568627 0  -0.196376396898333 -0.3733787061349181 0  -0.07298818052823255 0.5710652887609534 0  0.2361199897912489 0.5177204648168862 0  -0.7922772306200633 0.2291266118766555 0  -0.4948087667569643 -0.3890324161599114 0  -0.0003978555853219235 0.2712640497425909 0  0.5096411992450492 0.6396915072615874 0  0.3986613214168194 0.8070803937772069 0  -0.8060929649046024 0.4241200243160944 0  -0.06454576942912715 -0.2203543704767627 0  -0.7095654971719189 -0.01434580184722638 0  0.09017724392467519 0.05271464685360525 0  -0.477971857071818 -0.2512737700039238 0  0.7238336237655544 0.08272864007594703 0  -0.8083593365680747 -0.4109780173464901 0  0.3372277475645696 0.1535238960552448 0  -0.7943414347667653 -0.250852604884284 0  0.2358783974747106 0.2543301957857084 0  -1 -0.8749999999999999 0  -1 0.875 0  0.1840580550991966 0.04803505409863391 0  -0.2475232532793988 -0.2289270126497805 0  -1 0.375 0  -0.1712526441262292 -0.04152888651188556 0  -0.6486831401769927 0.4671546181738998 0  0 -0.07736776745332727 0  0.07988247911558799 0.2600234325827321 0  -0.375 1 0  -0.2169905972638517 0.4247713040990134 0  -0.1204245354130288 0.1503080294209136 0  0.132914614690489 0.5541055707221302 0  0.1313976074884873 0.193944366342269 0  -0.4748082194763459 0.269297620356805 0  -0.04631192726601922 0.01405679874137705 0  0.8514886093399905 0.3697822750124755 0  -1 -0.125 0  0.2854541789447606 0.8367338849684208 0  -0.1111028459343824 0.3131601855797377 0  -0.125 -1 0  0 -0.7575037395175258 0  0.07821397079968176 0 0  -1 -0.375 0  -0.375 -0.9999999999999999 0  -0.625 -1 0  0.7474787146812756 0 0  0.625 1 0  0 -0.2918843213980812 0  -1 0.625 0  -0.9999999999999999 0.125 0  -0.9999999999999999 -0.625 0  0.3284075310660084 0 0  0.004929205892015135 0 0  -0.125 1 0  0 -0.006571003003944568 0  1 0.625 0  1 0.875 0  0.875 1 0  -0.562014815087166 -0.6762694411904282 0  -0.005260287565332412 0.1604104345767629 0  0.3620549980834189 0.2629409594343327 0  0.6529101217278943 0.2934868946482078 0  -0.8544273460388606 -0.646328309253954 0  -0.863271650011599 0.7868815852270177 0  0.4302113334679143 0.5010010322510426 0  -0.3983889073322603 0.8557827010111353 0  -0.7783892180989016 -0.8746717558581808 0  -0.8702363405245347 -0.7841133178902069 0  0.1540350381032883 0.8421717775858492 0  -0.6585699289823361 0.1524303150425623 0  -0.5776124665685034 -0.064276232423434 0  -0.854534528817585 -0.06269088968772142 0  -0.2958934628396697 0.562175930312261 0  -0.423558549952512 0.5698327125724264 0  -0.3761360448952583 0.3309618466868342 0  -0.6182136492224481 -0.2164572874555284 0  -0.2729785552974045 -0.08990186087004211 0  -0.6394948101432146 -0.5883668108276512 0  0.8597446514594069 0.2657740391931916 0  -0.03291555430027641 -0.03284697067617406 0  -0.05518851518020475 0.1147388961699117 0  -0.1339484834724424 0.4321396929999888 0  -0.1200263481145859 0.03261337064885558 0  0.537689351814032 0.06454647993585363 0  0.5790858919796268 0.3588722608721231 0  0.6911167530157702 0.7743796776019267 0  -0.7932151728932806 0.8810481284254339 0  -0.6429062094664701 -0.4291373886009137 0  -0.1177599793467642 -0.3967614690291833 0  0.8722567726320162 0.4882873842217646 0  0.07542570660955847 0.0941251114470365 0  -0.6644388096479242 0.8680371202344439 0  0.4543950369792095 0.3503528627728443 0  -0.02651038413433261 0.03588751840375514 0  -0.4087966572121869 -0.4402141361704857 0  -0.3617625540759642 -0.2687289551042891 0  0.3232129195693307 0.4816130789317934 0  -0.1963949045907461 0.201656252128858 0  0.705559561192471 0.5303262286255036 0  0.2613958434752839 0.3560769151345878 0  -0.3762739516795969 -0.8519252456157304 0  0.1089804489347884 0.6820556823934394 0  -0.2847908401525684 -0.6119852106461443 0  -0.4407386756360735 -0.6200729160312942 0  0.2959785048551603 0.692198113626335 0  -0.8748684970990651 -0.1748599002472788 0  -0.1800154812453369 0.8549750076338996 0  0.4545449725125176 0.1632892144721334 0  0.2801310694920484 0.04676949404992497 0  -0.1423843539927492 0.6575945433396246 0  -0.01148848970518701 0.7087429231953867 0  -0.05337485645159921 0.8750490984965891 0  0.005071961254872318 0.4700137551336757 0  -0.3879123620496885 0.1534585441576022 0  0.5490431368248466 0.1330950956701924 0  -0.4757131338513401 0.6823775383736244 0  -0.8515271404100004 0.3326140988895006 0  -0.09356169597813362 -0.5361003129063269 0  -0.03188563343214849 -0.551849077653814 0  -0.2137879605763391 -0.2874651645066718 0  0.8685196623805129 0.1513982087820639 0  -0.1703422958542491 -0.6610846957559957 0  -0.8890962675139028 -0.5283263468081639 0  -0.2819270772761839 0.3384013386539443 0  -0.6761630555043241 0.5739516329169263 0  -0.8974504862685986 0.5312863548501013 0  -0.8983093875010401 0.6607841468189728 0  -0.6444857418813504 0.07216829166852183 0  -0.8591398081142139 0.02840519055829373 0  -0.8881748832751797 0.1677684134572058 0  -0.1305576269477256 0.2291948372057565 0  0.1599701710258848 0.4462948884646818 0  -0.04367435035406335 -0.1257150169533507 0  -0.7532934215296837 0.6699175100876251 0  -0.6022702938947992 0.6978913422275036 0  -0.2547211502428166 0.07867738182190796 0  -0.2493037969128579 0.6489036480675179 0  -0.02750422565284969 -0.006293165875889827 0  -0.4942542193839353 0.8770046612924477 0  -0.476856083009474 0.490464110259373 0  -0.2907730947633062 0.1441534602109975 0  0.0020329833751504 0.02362753913542452 0  0.7793915366519925 0.6831756309528835 0  -0.4694164477358942 -0.8247747227291397 0  0.271551969021559 0.1951212140628127 0  -0.1489004358390317 -0.8634242561848968 0  -0.0660304770540448 -0.8299153967795104 0  0.4431498610055426 0.7057563436710109 0  -0.117797990519325 -0.2880035529601352 0  -0.2651531035774356 -0.02603414850332313 0  -0.8936570680388757 -0.8963966164404771 0  -0.5730655826918251 0.2370001308322617 0  -0.4763670905627501 0.08747931738720149 0  0.4910213854769743 0.8256153588354828 0  -0.0285518344729531 -0.260022749363208 0  -0.3099812366561108 0.8753964240560926 0  -0.1433628906287295 0.08075964531949699 0  -0.4694408776156694 -0.03497968291919561 0  -0.3881973439602143 0.01211046002938448 0  -0.292008487705597 0.02766839221850739 0  -0.3850172845723591 -0.1204277745692999 0  0.8881165657708409 0.6977483542196772 0  0.792471083076447 0.910535727803316 0  0.5765183914346372 0.2077260816817367 0  -0.5596716502502058 -0.4693346650304834 0  0.5986563454349023 0.7056225255498295 0  0.6780612556555023 0.8881247779691995 0  -0.05151113215151205 0.3034142973331984 0  -0.9021036875851637 0.9045980834108339 0  -0.127732817702999 -0.06689473531928311 0  -0.1692099579328758 -0.182
[...]
<PointData  Scalars="w"> 
<DataArray  type="Float64"  Name="w"  format="ascii">1.7442004116754199e-10  1.0398752574800283e-11  4.4494469021551609e-10  2.5709225165693173e-09  6.2388886551015187e-10  1.5712470444923067e-12  8.6888606461299525e-12  7.4860457831474649e-11  4.0549711021517190e-11  2.1065859920162433e-11  1.0816317391455529e-10  9.6069953282618641e-11  4.0307459389382313e-10  2.7871862983637110e-10  9.1716986128714867e-12  5.2980173052444939e-10  9.0571557337625546e-11  7.2060754358370924e-11  1.3081556712307256e-10  3.5409443504800700e-10  6.7021391689121958e-11  1.0427575322405334e-10  5.7097392506567665e-10  3.0163453671549948e-08  5.7512467172058851e-10  1.0819335045641070e-10  8.9288561946562794e-11  1.6962034335293321e-10  7.6349036797361849e-11  1.8763133727829627e-11  4.6597475874483480e-10  9.7615343084260909e-11  2.4310099183587090e-10  1.8031820042677109e-10  4.5465063434804066e-10  2.2535593912471932e-10  7.8060142681992053e-11  4.7907849213076479e-10  5.8660407453525754e-10  3.1359498831178283e-11  5.3086648065166631e-11  1.0794839239070594e-10  9.2689627099087930e-11  1.9832409819762007e-11  1.0488755885893334e-09  8.7897699579724735e-11  3.2118016031148533e-11  9.7054719876394699e-11  1.2349992221909957e-12  5.9164831027417360e-10  2.2096827947125395e-10  2.1439453062107351e-10  8.2354063154802501e-11  2.5144441605268084e-10  2.5931285147852071e-10  2.0381630403227125e-10  3.5589424876102438e-10  8.8742812323384635e-11  5.7987001988775094e-10  2.5150435154755696e-10  3.1484966984971927e-11  3.1419238553896344e-10  3.7922626847422087e-10  1.4425427347567091e-10  5.4126219643522812e-11  1.7853731525928710e-10  7.0554763758343360e-11  1.7795791701792501e-10  2.3207795453613113e-10  4.6104209385576511e-11  6.4717191919735012e-11  4.3387466485213327e-10  5.7061028876245212e-11  8.8644055855128162e-11  1.7040610978285633e-10  1.6969828837253504e-10  2.5548532316781032e-10  2.8877332518494833e-10  1.8228633412210407e-10  1.9442244462991595e-10  6.5325361685055447e-11  2.5237818667431845e-10  2.6477450863449819e-10  1.9976306120105469e-10  2.3352946067428568e-10  1.2452925804838265e-10  4.6769823244232474e-11  1.1023371428342783e-10  9.4770342005631630e-11  2.5122201290796967e-10  6.9139908303365044e-11  9.9893893153003309e-11  7.8296684082695833e-11  9.4441114710819948e-11  3.8999970589429156e-10  2.0885914672026041e-10  2.5681294637272965e-11  6.5867295745848541e-10  2.5711332078703760e-10  3.1744592555297376e-11  2.7627823362429658e-10  4.1099533090809775e-10  7.0967381731113945e-11  9.7109256703931100e-11  1.5669041505239914e-10  6.3778908566422356e-11  2.7277044505210312e-10  8.3517261104546041e-11  1.4695639170874711e-10  6.6099435048587090e-11  3.1248838391456648e-10  2.4611581502857314e-10  2.3340797953171028e-10  6.4152761337097861e-10  1.2083677721477234e-09  1.4985077736949003e-10  1.6516510584456402e-10  1.0252404731929884e-10  4.5903316937225028e-10  2.6125624535625663e-11  2.5773884589243258e-11  2.8031806636523951e-10  9.1306135771597466e-11  6.1228374155648078e-11  5.0071798978479319e-10  5.7471682406367021e-11  6.0104827321683329e-10  1.1824234784204219e-10  7.6988133207191643e-11  8.2445510934610749e-11  3.4079040233632914e-10  1.7264939534916148e-10  4.6399887105931891e-10  1.3486246322301184e-10  6.2498885338668378e-10  4.4712444451986994e-10  1.0903401550720307e-10  5.2254773956885075e-11  1.2946076864474046e-10  2.5614335313208789e-10  4.3541291257406988e-10  6.0743772809782688e-10  9.3166545289789585e-11  1.1934224455892974e-10  6.9355395123275157e-11  6.5558273426565243e-10  8.6969543700064471e-11  3.3052767661786775e-10  1.4791469242546702e-10  1.2386457779993845e-10  2.0182569985680856e-11  2.8336373736541621e-10  1.5801298718295947e-09  5.6953609750275735e-11  9.7463238680452775e-10  7.9730637781245094e-11  2.4861167574737330e-11  2.4553545613922690e-11  1.2188263281188213e-10  5.5926957751399714e-10  4.4462961917264140e-10  1.6126243143508473e-10  1.1576719568982662e-10  1.6758720815967639e-10  1.8809871975854659e-10  5.8666448107832306e-11  7.8421449393018326e-11  2.0575100501968881e-11  6.0150508052334143e-11  2.9385116290002623e-10  9.2142654870591786e-11  1.0580940621782743e-10  8.2739415036055493e-11  9.6257127315638759e-11  5.3303357584355022e-11  9.5798221621499758e-11  4.5447553914371695e-10  5.7198010849062320e-11  1.6414644431885991e-10  1.7222929692139433e-10  4.6178913283498920e-10  1.9718287772644419e-10  2.8175735534996804e-10  1.4298870578094205e-10  1.4517400376673536e-10  1.5112495570522730e-10  2.1128236380075874e-11  2.8707449562962056e-10  6.4562867493821567e-10  2.5766536827545844e-11  2.5216513209165448e-10  8.9341813796799592e-11  1.5823055468635113e-10  1.1223557839211985e-09  1.3669547747594827e-10  1.6348104518737408e-10  2.3377820020083422e-10  2.8586975978432799e-10  1.0654007388260100e-10  2.0457150025847948e-10  4.1998854229543491e-10  2.1852246715424646e-10  2.3944713694988168e-10  1.0977720449258677e-10  1.1282921466143472e-10  1.1288525793389285e-10  7.1181907866654979e-11  2.0844332128421009e-10  8.8537463814945956e-10  7.7893968296888956e-11  1.0822958301581701e-10  7.7718101635033083e-11  9.6640958813739263e-11  1.6186087084306914e-10  3.7801033014227392e-10  7.9261859477002218e-11  8.5132950131299494e-11  7.8166955391464539e-10  8.4979483644924840e-10  2.9153004555602338e-10  1.9971086565154282e-10  7.5961656501869569e-11  8.1297223573790788e-11  3.3447064550721005e-10  5.8808222708056313e-11  8.3595736065797301e-11  5.0363507552041596e-11  9.3178587090773896e-11  4.1351812659188371e-10  9.0517874793107843e-11  1.9644490400695510e-10  1.6563313577518692e-10  9.0270388319282939e-10  6.1997385416213556e-11  1.9877500515299870e-10  1.1498870147607072e-10  1.1208068083535592e-10  7.4948747981284781e-10  7.5273978683336552e-11  8.5160796145633148e-11  1.1761902439906096e-10  1.1328667162937884e-09  4.1371961913113624e-11  7.8046180137636828e-11  2.7932357569165340e-10  2.5048956134239868e-10  3.4372212404559677e-10  1.8300305322048619e-10  2.0497029238474034e-10  4.0254175031004878e-10  2.9699562553044709e-11  1.0536426323138816e-10  1.2770435397024859e-10  3.7794378165135604e-11  2.6661068204811047e-10  4.4026775991094847e-11  3.3249962956203490e-10  1.3566773617700217e-10  1.1005820850245404e-10  1.9120953260832586e-10  5.0083521489845147e-10  7.3526648866101523e-11  2.7189919029729566e-11  1.4513610338069768e-10  8.2148111580313028e-11  5.9847034922536274e-11  7.6957465412426620e-11  1.7848771159263102e-10  4.9642924603919173e-11  2.6323841434328087e-10  2.5374698093221566e-10  1.2870643887912387e-10  1.2910354791504398e-10  1.3859987523696335e-11  7.1463565924264773e-11  1.4729026680008647e-10  1.6827992774534637e-10  4.9956695865310715e-10  3.6965393193313737e-11  8.2578763356329081e-11  3.3701278846509806e-11  2.3864155674095454e-10  1.2557191719074707e-10  1.8471264795070624e-10  7.5312100218076882e-11  8.7809819183201943e-11  1.2086929334300424e-10  2.0221423646193370e-10  2.2439282736837713e-10  2.6117744475840858e-10  4.3773077727760665e-10  2.1288817407290162e-10  2.1048463706423193e-10  1.4530994388632965e-10  7.9678858087624938e-11  1.7070018967440965e-10  1.6492235020151090e-10  6.2966918169896541e-10  1.2995318157391716e-10  6.2710473949633966e-11  4.0648774367863930e-10  1.9095476825307532e-10  2.0844240449331203e-10  1.2664660817906623e-10  3.3016068964647352e-11  4.4924093387076663e-11  9.8989922199517714e-11  6.8110180209981992e-10  2.9456750262511679e-10  1.8040443698912342e-10  1.3596788542106919e-10  3.3507635347599318e-10  6.7293544247872799e-11  1.0945628681965543e-10  3.5252852861659139e-10  1.0652061433258249e-09  9.9396567585216263e-11  2.8368665486594620e-10  6.1809922990544193e-10  1.2292507026139593e-09  1.9982522770925941e-10  1.5301581421431015e-09  4.1736765755051042e-10  2.2626076673674265e-10  1.1635725309025277e-10  4.1913525347656961e-11  6.6005459356217843e-11  1.2620075139371963e-10  1.5682252006377903e-10  6.3849101225203498e-11  9.9105722970014303e-11  1.0702552325794260e-10  1.2766199480272487e-10  1.9319010011866667e-10  4.9834993694975348e-10  3.1869402112393991e-10  1.6596164263961647e-10  9.6210444039733899e-11  6.1912549169594425e-11  5.9470071135978267e-11  7.0690085727643366e-11  1.8137112266396333e-10  2.2749083556320635e-10  1.0598923192550566e-10  1.0542212754973173e-10  2.3862961376356658e-10  1.3713447740886482e-10  7.0218209833042232e-11  5.9460371482452713e-11  1.0521820192343244e-10  3.4333283806641228e-11  1.8620697196498095e-10  3.3130262023137704e-11  1.6067742121214059e-10  1.7990172045310548e-10  1.5131401476958488e-10  4.0092441573625921e-10  7.9398115629775364e-11  8.3241984371796330e-11  1.4469225689416751e-10  3.0791112770597700e-10  1.4289878952298338e-10  2.6358746689446316e-10  1.1090115280315076e-10  1.3520005652789205e-10  1.5683357752307842e-10  2.7661938120977688e-10  1.2802081510996730e-10  3.3816057134822463e-11  1.1745865432283886e-10  1.1203661704040278e-10  1.4775941649418703e-10  2.5395508529040734e-10  1.7153124573699954e-10  3.5136503869198123e-11  1.2908875041576691e-10  2.3054745184343347e-10  2.9531245987934920e-11  3.2870185542539433e-10  1.6370777381832931e-10  3.9211338471893642e-10  1.1221816822010215e-10  2.3681018705865110e-10  3.2406293631845182e-10  7.5694224671306292e-11  1.0610196756653769e-10  2.1877235634464434e-10  7.4422233744821538e-11  4.8237699233491019e-10  1.5971884277382295e-10  9.8130998804531498e-11  1.0846800074472288e-10  2.1063118991838305e-10  5.3919275061193645e-10  4.7926034923884098e-10  1.8069069081196811e-10  1.7151654969590688e-10  2.0777239617543008e-10  4.0007346853410262e-10  4.5663497053705590e-11  2.2566373414201150e-10  8.2373815224939690e-11  1.2511007288320194e-09  1.1815193247119889e-10  4.5948063324234735e-11  5.5124408567185403e-10  3.3086981452625859e-10  2.4660340730256128e-10  2.0966452840649527e-10  6.4186431717795697e-11  1.5321560499042195e-10  3.3507203633335324e-11  4.3639248399630203e-10  8.2368588201401620e-11  1.3774361126970964e-10  1.2688842912635009e-10  6.6006940265148821e-11  3.4776558631308409e-10  4.3416007938230501e-11  1.1819957037482786e-10  2.4332893119396616e-10  1.7819844295654932e-10  7.1185345469144184e-10  9.3116315978558487e-11  5.7338871328799265e-10  1.4895105691675649e-10  3.5382610563381823e-10  5.4661620560215551e-10  2.4347776720906176e-10  1.5465446694932501e-10  2.7338528457402526e-10  4.8126012349516003e-10  3.4328108211348858e-10  7.5712814891568609e-11  4.9420652425298838e-11  1.6324148837550952e-10  3.5786499214917068e-10  1.8584717736309812e-10  1.2753774346218526e-10  1.7176822596666756e-10  8.1814001900088831e-11  7.1434357767339802e-11  1.9889082071632332e-10  5.8017538723568600e-11  2.0646621443041377e-10  9.0541040039216618e-11  4.7742845795209926e-10  4.9393936208894485e-10  8.1937656898259617e-11  4.1852375091752616e-11  3.9491696295245914e-10  6.4778130772711908e-10  2.5778834853228245e-10  9.9060394871946929e-10  2.8684622833469559e-10  3.1508503770079315e-10  2.7470298033327875e-10  2.6710221596329890e-10  9.7472219271031488e-11  3.1611503364236106e-11  1.9295995566737990e-10  1.0581847123847006e-10  2.1463516172810494e-10  7.5460558585572183e-11  1.2336436247464058e-10  2.0572483793361552e-09  1.7683252680062746e-10  8.1378897036499458e-11  8.2671862817380887e-11  4.0232317426907528e-10  2.4180067432367494e-10  1.8894737805976122e-10  2.0751374245981605e-10  4.4737786561911274e-11  7.5624368490599179e-10  2.4057044491706351e-10  5.3328038605076547e-10  2.4779510148908439e-10  2.4217788718360376e-10  3.1301512220621089e-10  9.4809630519102505e-11  3.3250909745574408e-11  3.6378462112690465e-11  3.6953416166011063e-10  3.6253799032381374e-11  1.1714292342642252e-10  1.0185147563776437e-09  7.5291909946992958e-11  3.5314871106712131e-10  2.6367268561859156e-10  6.2197857541329598e-11  6.0297659291029437e-11  1.8025254909626267e-10  2.4414787718593129e-10  4.8836077428033629e-11  1.1299071509646432e-10  1.6126013799576236e-10  7.6156110654865180e-11  1.6975340197271922e-10  2.1340996668260673e-09  3.4260163648560581e-10  3.1950752372642238e-10  1.0717189421475421e-10  1.0832631690734051e-10  1.8867464116119169e-10  8.1255937488570299e-11  1.3406496218313319e-10  4.9658050869002886e-10  8.6658773041402261e-11  2.4149274721024716e-10  2.1488092689536471e-10  1.3930975934091032e-10  5.1825203155178695e-11  7.8454614197008313e-11  5.6099890234262151e-11  8.9886842209712527e-10  1.0616387723722017e-10  2.2143581620847233e-11  5.6999809735918961e-10  3.0999450285056367e-11  6.2041301682845185e-10  1.1767035899134675e-11  7.7692965506223225e-10  1.7383679550495983e-10  2.4739089228152594e-10  1.0491319565363224e-10  2.8887396920941137e-11  8.5363318985514012e-11  2.8010826112946104e-11  2.0781984130544548e-10  3.7224701397545748e-10  2.7177858943329830e-10  3.2952284473461892e-10  1.3562840140639994e-10  9.4171845961027026e-11  6.3794633237852734e-11  3.6439084365950259e-10  5.0391017213098032e-10  1.0597947381845532e-10  1.0077371503945706e-10  1.4662047694359785e-10  7.6844892983013811e-11  4.5658826503520511e-11  5.5100637673747606e-11  3.2322242229439623e-11  8.9026832877901737e-12  1.7941397396110904e-11  9.9716006727117789e-11  2.2693283826884558e-12  1.1162881385393090e-11  1.8685145744555692e-10  3.4699577092410306e-09  2.2420388469745143e-10  4.2940674313256048e-11  2.1996844506354305e-10  9.2964382031753982e-11  1.1250300638220347e-10  4.4143647783024155e-11  1.7192429742909863e-11  8.8438037740927496e-11  7.4228618449757659e-10  8.0274327220497912e-11  1.8399966108532993e-10  3.2498116270470498e-10  4.8334028915440382e-10  9.6557702237901880e-11  1.0232342557141033e-10  5.8603014693483505e-11  7.6845988052122197e-11  1.1260800983927373e-10  5.7510608020137194e-11  6.0187215591070796e-10  5.9346101590154398e-11  2.7729977203488930e-10  8.8130724212860030e-11  1.2821601684783208e-10  3.1069358688186297e-10  4.1620465132200520e-11  6.3244227457298630e-11  2.8609551943254089e-10  1.1971075672058607e-11  1.1327815859294504e-10  8.8582109621392050e-11  7.6936080425648629e-11  5.6145203588295846e-10  1.6102427227664325e-09  2.9088451394867426e-10  2.8977931569071965e-10  9.0659218236505427e-11  6.9691518537622593e-11  2.5350393573430452e-10  1.1797415169130274e-10  1.0039525046737172e-10  1.0479913114592916e-10  1.9784154444370446e-10  7.4001873034053777e-11  5.3115607314599002e-11  7.1128905143975941e-11  3.9999675792840278e-11  8.7024703772084045e-11  1.9112889046294873e-10  1.6164769935875144e-10  1.1152721177609156e-10  2.7352052637647250e-10  4.7223687532900933e-11  1.3651631539045108e-10  5.2269094244310568e-10  6.6814191047483265e-11  1.1772871529273661e-10  1.3091749691853741e-09  5.8172181826583152e-11  3.3666075618420511e-10  5.0974311044948120e-10  1.5722635058153804e-10  1.2872416558679959e-10  1.2552029809533373e-10  9.0769993099058254e-11  2.5177415859767225e-10  2.8545206105494341e-10  1.7737327185453706e-10  4.6728369811127587e-10  4.2344811818076836e-10  1.2136295606584100e-10  2.1018706513542041e-10  6.7004803817569409e-11  8.4869998804980428e-11  6.2723977489325741e-11  2.3866677382089723e-10  4.0109100740266462e-10  3.0782624045621649e-10  3.2312171679188549e-10  8.5817753583719111e-11  2.2748578386184099e-10  4.7779156410457771e-10  1.7162495594287001e-10  4.7814735940874657e-10  1.8319663250301057e-10  1.3833668489716408e-10  1.1160521581186946e-10  5.1353494993864676e-11  5.4747024848844156e-11  3.2963909227063709e-10  6.2767341647136380e-11  6.4845308497446781e-11  1.2982583013661249e-10  3.1922760039209488e-10  3.1872543531595366e-10  1.5714944436272801e-10  1.1780787917673267e-10  5.9436318432445547e-10  6.2577942507636511e-10  1.6139183045172625e-09  2.6958321773878432e-10  2.0010406505882803e-10  4.4462594860361521e-10  4.5363507583760048e-10  1.1778361976363903e-09  2.9668110059254152e-10  2.4803136231126359e-10  3.3115763830157934e-11  1.2908519913789229e-10  3.2017323345868813e-10  4.9648482987108632e-10  2.1300828995643470e-10  6.6133480861457003e-10  3.0481003689980542e-10  2.1642931377374473e-11  4.8115556413821482e-10  3.3439282528165168e-10  3.8765743224445821e-11  3.3255453393776712e-10  4.1405526717737968e-10  5.4092428167815959e-10  1.4485748960649474e-10  6.6671270067504607e-10  1.9417138111684922e-10  4.7327928804449055e-11  1.2693263705964281e-10  1.3201199258468649e-10  3.1641867619673614e-10  7.9167890481701876e-11  2.6333285127002642e-10  1.9585904551448041e-10  8.2065186389808121e-12  2.5328091842960959e-10  5.8353793562570003e-11  9.0367424895994330e-11  1.2441514046157633e-10  6.3250938767845360e-10  4.1291727957604609e-10  3.0473083244415097e-10  1.1706131600935773e-10  1.3217918247685143e-10  9.0640890993461911e-10  5.4483781475409920e-10  1.3460776311886024e-10  1.4232812134206520e-10  9.3234827350480366e-11  4.8592457934658196e-10  1.3817721416493298e-10  1.7420332742159978e-10  9.4915378114619149e-11  7.0916986463287360e-11  6.3608939756636364e-11  1.5013849844231708e-10  9.7992113963198975e-11  1.2901297532499659e-10  4.3187389293193991e-10  7.6758412089979378e-11  5.9761263629186961e-10  1.2694951165377519e-10  2.2293850759989108e-10  2.8023887672389874e-10  5.5285624557557555e-10  1.1596746180738413e-10  4.1041334333466906e-11  6.3044925715372356e-11  1.4161362858847401e-10  1.5879878327778370e-10  5.1432123848708499e-10  8.4773328988461384e-11  1.6190423136184917e-10  2.5166833370284964e-10  1.3689362124284513e-10  2.3570202216715874e-10  3.3028413569705873e-10  3.1063132073264558e-10  1.0445462240478928e-10  1.7490443222189121e-10  1.4870182687633920e-10  2.2683126749083522e-10  4.7246465514667618e-10  3.7450067517855098e-10  2.0216148859236840e-10  2.0493415367623646e-10  1.2480872254695307e-10  1.7312441429506051e-10  3.0046273737136158e-10  3.8186703095202569e-10  3.6280148442339925e-10  1.6506635319547944e-10  2.1912080683176027e-10  1.9377567984288916e-10  1.5391059357292919e-10  3.9948749160714102e-10  3.1810210231084391e-11  1.0556661149208431e-10  1.2662147198276941e-10  1.3932159021364043e-08  4.0554430702890905e-10  1.7718286961531536e-10  6.1000975919081642e-11  2.5611065012971723e-10  1.3813849374451955e-10  6.4328546522143170e-11  1.0547823499237870e-10  2.0287806862537206e-10  2.0534029670225116e-10  1.9407657800311645e-10  1.8871419264351330e-10  3.0757406774363331e-10  6.5202271506155142e-11  8.0164648256533270e-11  1.9054334789748610e-10  1.2209333900437331e-10  3.5648373059252012e-11  4.0004316970483192e-10  6.4569230667657433e-11  6.2268369650447817e-11  1.9385889540699016e-10  9.8878637704093520e-11  2.3801379140283723e-10  2.9197265639445918e-10  2.5686328268107839e-10  7.7488875337205242e-11  1.8712160073955966e-10  9.6437884661554134e-11  3.2958078644469803e-11  9.1213946862212737e-11  5.8449925927430836e-11  7.8666339511351408e-11  2.2616499329308049e-10  4.7380005458713104e-11  6.6663740134875333e-11  9.4939485486666521e-11  9.3752433195126221e-11  9.3648272170136956e-11  2.4953265756228129e-10  8.7727500783229852e-11  1.8362418495351208e-10  2.0128864084939685e-10  9.8703414912905836e-11  1.6108396390154109e-10  3.1542228840738486e-10  1.2404897202191995e-10  6.1847281414730217e-10  1.7030932718093434e-10  1.4886296573792476e-10  1.3832039650699018e-10  2.2790804332290593e-10  4.4385367231142028e-11  4.0231986374233210e-11  7.6899408111721878e-11  4.3278988771772384e-10  1.9995518454123103e-10  6.3398347537239629e-10  4.4081551965563575e-10  1.2087142756139326e-10  5.4546685475559970e-10  3.6516770542731830e-10  1.8806252499108077e-10  7.0638087645952451e-11  9.3522076179223349e-11  1.7402293388656866e-10  1.8720952798901766e-10  4.1791823244821154e-11  4.7899626052243361e-10  2.7666285744726477e-10  2.9767632536243117e-10  5.3993130965951104e-11  3.4880824963179773e-10  2.6655665176985908e-10  5.8822647037374702e-10  7.3278069850272298e-11  6.1765947203254720e-11  2.3834743042803406e-10  7.2700098438965051e-11  4.2691032738853360e-11  1.4765394758462687e-10  2.4409009940950193e-11  6