<?xml version="1.0"?>
<VTKFile type="UnstructuredGrid"  version="0.1"  >
<UnstructuredGrid>
<Piece  NumberOfPoints="4852" NumberOfCells="9430">
<Points>
<DataArray  type="Float64"  NumberOfComponents="3"  format="ascii">-1 0 0  -1 -1 0  0 -1 0  0 0 0  1 0 0  1 1 0  -1 1 0  0 1 0  -0.4999999999999999 0.9999999999999999 0  -1 0.5 0  -1 -0.5 0  -0.5 -1 0  0 -0.1608775713298009 0  1 0.5 0  0.5 1 0  0.1967448868031411 0 0  -0.340119503158133 -0.1754882374058583 0  -0.3359498168629655 0.2236453970580967 0  0.1738911381128826 0.3452946343838645 0  -0.1843156662229754 0.554241036601438 0  -0.5031856479959658 -0.5370090926372321 0  0.490383015644595 0.2563301506608515 0  -0.06397884644447961 0.2004477765057947 0  0 -0.5061325913258391 0  -0.25 -1 0  -0.5604385257340765 0.5767226110551883 0  0.6611975665439447 0.6330664070806461 0  -0.1763030668450773 -0.5373818164698041 0  -0.5381670999253745 0.02528395938479677 0  -1 0.25 0  -0.2055433595549909 0.02365451699716168 0  -0.6538368039600722 0.3086865507444509 0  -1 -0.25 0  0.03936243106687377 0.5909260905334037 0  0.1950124717598061 0.1283654679169283 0  -0.1361998666221186 -0.2195832038850083 0  0.3707947351067788 0.6136370694273494 0  1 0.25 0  0.5355652144809806 0 0  -0.75 -1 0  -1 -0.75 0  -0.6445498466695034 -0.3226638007824196 0  0.25 1 0  -1 0.75 0  0.02757118475249542 0 0  -0.25 1 0  -0.75 1 0  1 0.75 0  0.75 1 0  0 -0.02898318711980711 0  0.05428302441456379 0.1417923281117573 0  -0.07746220255941631 -0.02777814208670946 0  -0.7006263365421872 -0.1322575996058133 0  -0.3212222380416602 -0.3468443966764221 0  -0.3392476592826486 0.4365692489059507 0  -0.09956014505970918 0.7637531361052273 0  -0.3823131678541194 0.702093847762476 0  -0.05440572554798285 0.3980868137633828 0  -0.07858744603506367 0.07171949016444383 0  0.3587571897215703 0.36865612229482 0  -0.7154489697997135 -0.729541708254995 0  0.4117521266180284 0.08956369864772393 0  0.689933093494367 0.1911642229015376 0  -0.7469940136762264 -0.5265006991450533 0  -0.3870392953482796 -0.7103517017738874 0  0.7215382796142503 0.4178203464519071 0  -0.7755856226604598 0.0967455271624062 0  0.1965980856832895 0.6979901489330511 0  -0.1979553137549049 0.2877620977397499 0  -0.7984352202649222 0.5768806677911245 0  -0.7161527704037279 0.76592857828604 0  -0.05173658321794408 -0.3732638459143505 0  0.5843466609898815 0.8160528263220861 0  0.8200899701026889 0.8054448687184949 0  -0.1058855174782329 -0.697099769544494 0  -0.5136816358913667 0.1621786991698251 0  -0.2011651393440989 0.1252152554632133 0  -0.3583756998389336 0.07503961903920131 0  -0.3644162535181388 -0.05232656219516363 0  -0.4957306382497347 0.3942834190872705 0  0.375 1 0  1 0.125 0  -0.01174159082061271 0.07100371393061634 0  0.06227646822558043 0.3909990025703169 0  -0.1709929526780934 -0.122204476189933 0  -0.2422505315412386 0.7732590284481967 0  -0.625 1 0  0.5331832585563445 0.453342440632443 0  -0.5754378022146158 -0.8298760624657917 0  -0.2573485803195144 -0.7834952903840442 0  -0.3193618842486116 -0.5080058672795718 0  0.8338942589069139 0.5946624480961658 0  -0.5479448705108263 0.7904266222983065 0  0.125 1 0  -0.06728145571717017 -0.09333086428043208 0  -0.4938996669247079 -0.1430599659450317 0  -0.875 -1 0  0.02956710406284646 0.04147641428975804 0  1 0.375 0  -0.875 0.9999999999999999 0  0.05739173269544213 0.7935024048810168 0  -0.1960085688641959 -0.3731964152057603 0  -0.07235748888126005 0.5703293383164476 0  0.2363188812430404 0.5170706475112835 0  -0.7918598597173147 0.2289664308803498 0  -0.4945875844122046 -0.3886299690894723 0  0.0003661737914296911 0.2704246374483856 0  0.5095538900573988 0.6394066066606573 0  0.3985692979236284 0.8068595669106963 0  -0.8057346727804034 0.4238682217205758 0  -0.06434753774232692 -0.2203351228515464 0  -0.7090876732124307 -0.0142139291715785 0  0.09048146189896088 0.05227543642984626 0  -0.4775761894104933 -0.250931817862114 0  0.7238479800184875 0.0826689314916589 0  -0.8082888571446784 -0.4106880279857469 0  0.3374124547514205 0.1530316853764014 0  -0.7941587030809454 -0.2505552468537354 0  0.2362178913992108 0.2536073425077025 0  -1 -0.875 0  -1 0.8749999999999999 0  0.1842613219066602 0.04767393170693029 0  -0.2471032335365267 -0.2287581179909259 0  -1 0.375 0  -0.170588089243245 -0.04171933403692799 0  -0.6480800225786409 0.4667668839541734 0  0 -0.07736776745332727 0  0.0804967077575668 0.2591977728163679 0  -0.375 1 0  -0.2160694762361081 0.4240198679432555 0  -0.1195611329598347 0.1497091593176234 0  0.1332210194826663 0.5533856457316663 0  0.1319169772857451 0.1931955477350368 0  -0.4738724528973727 0.2688627451915632 0  -0.04601482436708004 0.01386861469341353 0  0.8514750903260929 0.3697052546242385 0  -1 -0.125 0  0.28540169089045 0.8365051798529048 0  -0.1101993887874628 0.3123314139940329 0  -0.125 -1 0  0 -0.7575037395175259 0  0.07821397079968176 0 0  -1 -0.375 0  -0.375 -1 0  -0.625 -1 0  0.7474787146812756 0 0  0.625 1 0  0 -0.2918843213980812 0  -0.9999999999999999 0.625 0  -1 0.125 0  -1 -0.625 0  0.3284075310660084 0 0  0.004929205892015135 0 0  -0.125 0.9999999999999999 0  0 -0.006571003003944568 0  1 0.625 0  1 0.8750000000000001 0  0.8749999999999999 1 0  -0.561963209425498 -0.676007118821657 0  -0.004501985727653922 0.159767319757844 0  0.3622363565173503 0.2623587767141163 0  0.6529163867816181 0.2932632773740851 0  -0.8544024586232124 -0.6461863026267312 0  -0.8631755547895329 0.7868060407281675 0  0.4302336821859716 0.5005506373498151 0  -0.397984887254441 0.8555966352451466 0  -0.778381812089464 -0.8745977323886144 0  -0.8702131855918493 -0.7840474266129708 0  0.1540784514517709 0.8418818463387753 0  -0.6579219952906074 0.1522840390302532 0  -0.5769979247910342 -0.06409780550858875 0  -0.8543114919989667 -0.06254255202153322 0  -0.2950657841959617 0.5615676620210095 0  -0.422771516953637 0.5693254796264124 0  -0.3751550621807156 0.3303778576446743 0  -0.6178208734381608 -0.2161058220720317 0  -0.2722721828014217 -0.08991316306171737 0  -0.6394364501628579 -0.5880681441939395 0  0.8597375529274278 0.2657216266180249 0  -0.03272752580293479 -0.03291730158801372 0  -0.05446789308390432 0.1142417460605975 0  -0.1330963014034951 0.4313193243095781 0  -0.1193908249679044 0.0322719469312945 0  0.5377281428878214 0.06441770602588279 0  0.5791094680745403 0.3585611689013927 0  0.691009023893968 0.7742893066092112 0  -0.7931283965414125 0.8809810514720261 0  -0.6427669580335892 -0.4287502016567036 0  -0.1168716869551921 -0.3966602962405169 0  0.8722402704305042 0.4882150537670176 0  0.07595203084350538 0.09357331574386868 0  -0.6642023156292443 0.8679421774566758 0  0.4544796659122031 0.3498855880641421 0  -0.02617390323468074 0.03572753799552937 0  -0.4086141137258854 -0.4398405074445877 0  -0.3613739379690983 -0.2684365356643145 0  0.3233514965568824 0.4810378720479512 0  -0.1954065474274525 0.2010071349115653 0  0.7055034603942963 0.5301442642693294 0  0.2616800165966707 0.3553657515885642 0  -0.3762497876401685 -0.851761577670235 0  0.1092098069202136 0.6814854435902195 0  -0.284562286928041 -0.6116812119746704 0  -0.4406786917693614 -0.6197440222173711 0  0.2959873120085683 0.6917835237502652 0  -0.8747101831015345 -0.174659330490756 0  -0.1796914422097278 0.8547344122988404 0  0.4546451874440324 0.162922314106897 0  0.2802269097036554 0.04653075246414835 0  -0.1417673827736235 0.6569866545210347 0  -0.01110049868013005 0.7081880358571252 0  -0.05318803381251788 0.8748143131135698 0  0.005684909565207732 0.4691708953591694 0  -0.3869188927543546 0.1530866763564441 0  0.5490975320186752 0.1328737072972967 0  -0.4750728250748192 0.6819929482140945 0  -0.8512431177954537 0.3324259354089257 0  -0.09116831326381557 -0.5360527222417834 0  -0.02753945949510193 -0.5520619223996007 0  -0.2134598114668236 -0.2872820220747104 0  0.8685271900591576 0.1513688232734705 0  -0.1696900702735548 -0.6607981098621103 0  -0.8890689316121554 -0.5281537179433643 0  -0.2809244806501616 0.3377185072252034 0  -0.6756554281936278 0.5736067910234631 0  -0.8972809288383879 0.5311215637842318 0  -0.898190440640288 0.6606595196700141 0  -0.6438347084652324 0.07215043688100366 0  -0.8588900556568122 0.02847278897706399 0  -0.8879461655932419 0.1677279962681773 0  -0.1296238104959456 0.2284579319385651 0  0.1603269487284524 0.445529121716491 0  -0.04347647938052591 -0.1257143358575747 0  -0.7529584214538748 0.6696474963408785 0  -0.6017633978657385 0.6975629949293043 0  -0.2537784322220017 0.07830912883358024 0  -0.2486040711053498 0.6483594385032941 0  -0.02734583877735518 -0.00635956151741344 0  -0.4939172498678733 0.8768712973622752 0  -0.4760585126735084 0.489965242093476 0  -0.2897541169576323 0.1436925137462776 0  0.002305325773047523 0.0235590190581255 0  0.7793187918895973 0.6830734829047611 0  -0.4693863228391728 -0.8246187262162716 0  0.2718297835118609 0.1945008879285834 0  -0.1487935040084752 -0.8632304401833574 0  -0.06563049082642317 -0.8296437044876136 0  0.4430586971969097 0.7054751782310453 0  -0.1174891327625248 -0.2878984250133948 0  -0.2643393879125182 -0.02617521109458831 0  -0.8936611776186216 -0.8963688181619682 0  -0.5722569393490677 0.2366831547285943 0  -0.4754672055547413 0.08731744148152269 0  0.4909110785094028 0.825475542350539 0  -0.02851783036947673 -0.2601552722076457 0  -0.3096468488865339 0.8752382840178531 0  -0.1425735039938456 0.08030635188242514 0  -0.4686892237396569 -0.03491309148325034 0  -0.3873256332909978 0.01203009692257289 0  -0.2911087850631237 0.02745116869019627 0  -0.3843613006546245 -0.1202952257274328 0  0.8880846727474042 0.6976941621239797 0  0.7924512244197017 0.9105498591846987 0  0.5765661186323827 0.2074708392951176 0  -0.5595243968968453 -0.4689475130728842 0  0.5985356037722097 0.7054470637045177 0  0.6779782775161185 0.888108210046315 0  -0.05068238831312848 0.3025644425160758 0  -0.902074924562276 0.9045731217677293 0  -0.1271942373821361 -0.06704226016101794 0  -0.1687806236094165 -0.1823108690192937 0  -0.2519399680645509 -0.1434761820
[...]
<PointData  Scalars="w"> 
<DataArray  type="Float64"  Name="w"  format="ascii">1.7572451824682938e-10  1.0385581641018886e-11  4.4501653569300101e-10  2.5816241940932068e-09  6.2385620227751204e-10  1.5681091561187364e-12  8.6893205391952294e-12  7.5244084401750090e-11  4.0805633289511500e-11  2.1178542341395236e-11  1.0868252737119489e-10  9.6498609939380937e-11  4.0267175385355598e-10  2.7918908428951333e-10  9.1853893406760738e-12  5.2186792829680065e-10  9.0874187626797077e-11  7.2428394160422431e-11  1.3071166014629191e-10  3.5765500320658151e-10  6.7240172728090554e-11  1.0426641857140165e-10  5.7242535195316267e-10  3.4576294301712201e-09  5.7873220727921721e-10  1.0920943659750891e-10  8.9482966840180845e-11  1.7141486934210649e-10  7.6723354626089986e-11  1.8859213916463420e-11  4.6757814367138401e-10  9.8452826887443715e-11  2.4452708047293555e-10  1.8193483435572426e-10  4.5211876383595346e-10  2.2487038852448368e-10  7.8597574042962934e-11  4.7955891864190333e-10  5.8549491681686208e-10  3.1400563773490547e-11  5.3118033836125778e-11  1.0848859180815935e-10  9.3189900989620645e-11  1.9905458323968477e-11  1.0432430452066537e-09  8.8115154486036344e-11  3.2179545523979305e-11  9.7199216301583716e-11  1.2338486865273209e-12  5.8643146826967107e-10  2.1968056841399912e-10  2.1266843156844437e-10  8.2827718937870382e-11  2.5195159363651587e-10  2.6124457450936778e-10  2.0653754449583201e-10  3.5979872927465547e-10  8.9399287098452101e-11  5.7502661125501479e-10  2.5189578974046179e-10  3.1559082300681657e-11  3.1374798263243636e-10  3.7912715774161699e-10  1.4468139393483208e-10  5.4369862985793561e-11  1.7856911812426050e-10  7.1140279065121589e-11  1.7916347838355084e-10  2.3333095078669685e-10  4.6418047097681794e-11  6.5251378151117692e-11  4.2671894016570044e-10  5.7319432528424415e-11  8.8877263703986650e-11  1.7445820444045055e-10  1.7102614040368585e-10  2.5622103472350033e-10  2.9138273871989187e-10  1.8292122308110241e-10  1.9656360049748405e-10  6.5547463941303037e-11  2.5232720138281120e-10  2.6068023126233155e-10  2.0158830514042706e-10  2.3379855527213098e-10  1.2573492587318127e-10  4.7107829012868759e-11  1.1034951842516355e-10  9.5143451532546816e-11  2.5342995559768057e-10  6.9371886437042277e-11  1.0012548651296017e-10  7.8996833270336492e-11  9.5124245798417609e-11  3.8837502608158003e-10  2.1005183006200763e-10  2.5702839053243293e-11  6.4845486622549478e-10  2.5738598357763319e-10  3.1832732195026120e-11  2.7919626162979274e-10  4.1198620258458964e-10  7.1120418436504080e-11  9.7455425826101821e-11  1.5800892141808559e-10  6.3862969777516845e-11  2.7344951018714244e-10  8.3894618998094245e-11  1.4797886546637278e-10  6.6620345337182222e-11  3.1072202375448733e-10  2.4858100535716735e-10  2.3043327497569318e-10  6.4477576206455684e-10  1.2082788213550052e-09  1.5024949079500259e-10  1.6434720647696163e-10  1.0296708654459454e-10  4.5796605542217828e-10  2.6144618444416413e-11  2.5813210067337883e-11  2.7708666493748552e-10  9.1183544049518928e-11  6.1746866626716875e-11  5.0055518185429224e-10  5.7994024540734449e-11  5.9376332338118753e-10  1.1841685600708458e-10  7.7429297293901769e-11  8.2887027904482043e-11  3.4104418447787075e-10  1.7398723014837997e-10  4.6391539156092034e-10  1.3601554975981776e-10  6.1566369983636864e-10  4.4833516579733366e-10  1.0984042530290768e-10  5.2468611260750413e-11  1.2989888576694447e-10  2.5772563125727997e-10  4.1953752285161939e-10  5.9962477336681038e-10  9.3891626724379595e-11  1.1986901712384958e-10  6.9497969840123627e-11  6.5517446718191785e-10  8.7166460150493925e-11  3.3305635251969721e-10  1.4907608787841966e-10  1.2492304397266956e-10  2.0223625018041056e-11  2.8246028862738923e-10  1.5665631965402563e-09  5.7168212009731337e-11  9.5472446052821810e-10  7.9851483576181364e-11  2.4842243772660968e-11  2.4487557502386774e-11  1.2241565972034169e-10  5.5777196113967360e-10  4.4363029867668611e-10  1.6102644964921653e-10  1.1629144784008141e-10  1.6857151810105301e-10  1.8812992129516410e-10  5.9100740887170383e-11  7.8641809201043356e-11  2.0582413753650346e-11  6.0546101746162800e-11  2.9716368725431182e-10  9.2432259337334286e-11  1.0656247616026324e-10  8.3120484133646655e-11  9.7104624443589084e-11  5.3578464600390891e-11  9.6284431660417041e-11  4.5543286308244835e-10  5.7370131348179729e-11  1.6409833003657559e-10  1.7101135647422207e-10  4.6116126077887525e-10  1.9883573970035455e-10  2.8134787638451450e-10  1.4248451867176681e-10  1.4514778355711930e-10  1.5180196506323819e-10  2.1232057217373422e-11  2.8883687076540048e-10  6.5844083811254897e-10  2.5795138974371091e-11  2.5015378308275966e-10  9.0092012879274322e-11  1.5805844427136172e-10  1.0988577087535532e-09  1.3716262394522184e-10  1.6342274157628297e-10  2.3450952648023511e-10  2.8734890881287857e-10  1.0670912543669195e-10  2.0465538900955253e-10  4.2220233089091926e-10  2.1981263634340029e-10  2.4051415898764327e-10  1.1028464882080252e-10  1.1329816330466873e-10  1.1361884244118720e-10  7.1922889690413590e-11  2.0815598288294748e-10  8.8059654839322366e-10  7.8452336779415006e-11  1.0912493939176669e-10  7.7926182134582223e-11  9.7196492260465502e-11  1.6256668898221046e-10  3.7705948139875637e-10  7.9827079963933857e-11  8.6173237879648587e-11  8.1797188426614898e-10  6.3431918998238358e-10  2.9177160394274110e-10  1.9959227281862317e-10  7.7030116945880649e-11  8.1654879819848848e-11  3.3745330177968992e-10  5.9351296858997590e-11  8.4373936380690631e-11  5.0600801861508952e-11  9.3822800100430667e-11  4.1757513078472695e-10  9.1188835251627855e-11  1.9717924824833065e-10  1.6672649768800788e-10  8.9714374580055005e-10  6.2456632311921826e-11  2.0079871050785455e-10  1.1514642896499269e-10  1.1313212204289218e-10  7.4217197027474806e-10  7.6045028617411639e-11  8.5928116294309924e-11  1.1820637401927239e-10  1.1005432739289951e-09  4.1477654621691498e-11  7.8286664241961375e-11  2.7807311939769939e-10  2.5334713892190773e-10  3.4849201248347311e-10  1.8425034119634005e-10  2.0392405526161122e-10  4.0411578545860608e-10  2.9733443927927057e-11  1.0608566368461180e-10  1.2864954890544404e-10  3.7932319425432282e-11  2.7026127083228683e-10  4.4308662742701700e-11  3.3208981496195108e-10  1.3615182689091643e-10  1.1052860458650219e-10  1.9127069636875142e-10  5.0320317474080674e-10  7.3718475049138829e-11  2.7257063600711184e-11  1.4482418879838261e-10  8.2430477687800903e-11  6.0038992922455528e-11  7.7275826356648432e-11  1.7899942468786275e-10  4.9772439775285891e-11  2.6274507967683920e-10  2.5376553354021730e-10  1.2845899174378753e-10  1.2820687916789350e-10  1.3877714055556019e-11  7.1405205982173095e-11  1.4595734027047146e-10  1.7003950680789709e-10  4.9454389676984744e-10  3.7060186772433227e-11  8.2573810056551024e-11  3.3715917732856338e-11  2.3737951720396807e-10  1.2656221980456066e-10  1.8658178341640538e-10  7.5230079211342768e-11  8.8937704252214450e-11  1.2112645957290452e-10  2.0376627301765304e-10  2.2380175825138690e-10  2.6176605898672209e-10  4.3592856365459154e-10  2.1437479134960800e-10  2.0937487639368911e-10  1.4587743398276685e-10  8.0142859693594986e-11  1.7161470947164485e-10  1.6622514473066057e-10  6.2193160409709820e-10  1.3033591165760795e-10  6.2706763889073221e-11  4.0568095720142654e-10  1.8888203871028319e-10  2.1034205955880186e-10  1.2281287162780555e-10  3.3079114254350079e-11  4.5104779437311718e-11  9.9723916332117802e-11  6.7648082377327562e-10  2.9211690738889790e-10  1.8135396638175122e-10  1.3734790731761901e-10  3.3659312903233543e-10  6.7534208529170364e-11  1.0972808811943462e-10  3.5182046768968450e-10  1.4164532753307984e-09  9.9723530000656188e-11  2.8182492233313479e-10  6.1076781987180123e-10  1.2213647328450546e-09  1.9675629842048294e-10  1.5174113686474792e-09  4.1673338868814735e-10  2.2590500457852514e-10  1.1574759611275622e-10  4.2289577569044574e-11  6.6550043310541526e-11  1.2655588539698737e-10  1.5753482609596958e-10  6.4295721429704798e-11  9.8726199032005596e-11  1.0717119864388433e-10  1.2813708775830153e-10  1.9181927729825158e-10  4.9394574596259846e-10  3.1795652687359240e-10  1.6660599358158256e-10  9.6642745685771130e-11  6.2077020686246632e-11  5.9435640571872939e-11  7.1045650900962524e-11  1.8296141113447098e-10  2.2877602817271000e-10  1.0692451735384697e-10  1.0678171277628496e-10  2.4039272804825721e-10  1.3730747551915622e-10  7.0487629253042681e-11  5.9856564501484186e-11  1.0557918085611621e-10  3.4553112207738468e-11  1.8846191421996273e-10  3.3258064099678117e-11  1.6094925923274010e-10  1.7942248645018350e-10  1.5160614830677304e-10  4.0231916051448705e-10  7.9750595671218574e-11  8.3769411624474796e-11  1.4593614886719730e-10  3.0971167534601541e-10  1.4389285941938337e-10  2.6350699145156434e-10  1.1136630628723383e-10  1.3657115466582668e-10  1.5895096021940686e-10  2.8113579764818586e-10  1.2735691324272750e-10  3.4006063224688197e-11  1.1860224645747281e-10  1.1262978187133302e-10  1.4903189232044766e-10  2.5593099758720051e-10  1.7238235981354103e-10  3.5318900634279391e-11  1.3013999759437517e-10  2.3297494672294859e-10  2.9501377021532237e-11  3.3034699645372165e-10  1.6320263023180640e-10  3.8671835586522590e-10  1.1288899022890844e-10  2.3854303685518446e-10  3.2615887345290729e-10  7.6330691049623678e-11  1.0620976964241107e-10  2.1938656831337602e-10  7.4552933877288316e-11  4.8189350457799590e-10  1.5954423779869606e-10  9.9027185682992992e-11  1.0926093339419398e-10  2.1106147764131394e-10  5.3893146253278827e-10  4.7473399407148210e-10  1.8139074636475520e-10  1.7287150695985198e-10  2.0956513683072435e-10  4.0392743884702664e-10  4.5828634865177327e-11  2.2699766449156000e-10  8.2600465870478097e-11  1.2373403548885525e-09  1.1855812914526393e-10  4.6222611041948266e-11  5.4556462198000386e-10  3.3089325640285583e-10  2.4727480569683372e-10  2.1199255382773591e-10  6.4663999779221263e-11  1.5450296748351953e-10  3.3805923004586254e-11  4.3820732611306918e-10  8.2975287375726250e-11  1.3905113141475176e-10  1.2791705021505941e-10  6.6518119082332039e-11  3.4937598823032722e-10  4.3707260156210298e-11  1.1918019772437344e-10  2.4387088618170001e-10  1.7869335932103987e-10  7.0886750130561359e-10  9.3355763980131366e-11  5.7408240222801738e-10  1.4938118349463412e-10  3.5212427808888797e-10  5.4588034167750692e-10  2.4327638171073861e-10  1.5535336706480975e-10  2.7138013214985472e-10  4.7795006157861841e-10  3.4574893697170595e-10  7.6086615963135252e-11  4.9693597933245459e-11  1.6300625646577664e-10  3.5484525154790391e-10  1.8782059595694125e-10  1.2808122740859613e-10  1.7318495804814731e-10  8.2118140116818668e-11  7.2014589109688012e-11  1.9981929859774908e-10  5.8532812633362836e-11  2.0816207726093744e-10  9.0905331707195634e-11  4.7789620801746536e-10  4.9927546572025947e-10  8.2383646543302943e-11  4.2075482831569724e-11  3.9639289578253249e-10  6.4614547296881881e-10  2.5892991577825421e-10  9.7818866979627635e-10  2.8717325774611367e-10  3.1612295443361601e-10  2.7097645975938363e-10  2.6479807186424987e-10  9.8050954987541951e-11  3.1632819850999346e-11  1.9461848239401139e-10  1.0683507420044302e-10  2.1638899029762497e-10  7.5576571096210453e-11  1.2473372973262624e-10  2.0287272055782743e-09  1.7672781991532144e-10  8.1480674018637685e-11  8.3029437056947793e-11  3.9775534384156413e-10  2.4253694730064034e-10  1.8971015290053082e-10  2.0806636322882616e-10  4.5016820673625437e-11  7.5178575459364458e-10  2.4192979274015262e-10  5.3474203163568618e-10  2.4950989860322165e-10  2.4385056535296699e-10  3.1355518656077112e-10  9.4574887637823189e-11  3.3260737288389660e-11  3.6365806799569035e-11  3.6575780251001738e-10  3.6385261392223088e-11  1.1802943755893091e-10  1.0165018879437395e-09  7.5342001927373931e-11  3.5379051864777261e-10  2.6395796701496950e-10  6.2248584464456151e-11  6.0498844233559670e-11  1.7917672563225900e-10  2.4455373200875354e-10  4.9037633934759539e-11  1.1347389530276512e-10  1.6215139516969681e-10  7.6227459270909022e-11  1.7095354779405511e-10  2.1123764062572811e-09  3.5651628680160053e-10  3.1912521045865358e-10  1.0674171020436712e-10  1.0864279695576042e-10  1.8988401464344986e-10  8.1391316413321899e-11  1.3467661211589620e-10  4.9992430856068695e-10  8.7327102938328863e-11  2.4408844058172920e-10  2.1677796557286650e-10  1.3895251489387025e-10  5.1983556616203643e-11  7.8831429260663383e-11  5.6368087841587083e-11  3.8147018211945319e-10  1.0704294253492902e-10  2.2156268948512407e-11  5.6964892780062755e-10  3.1032451642071526e-11  6.2019864435058283e-10  1.1738865050900492e-11  7.0673652493531138e-10  1.7438419914916630e-10  2.4901382743809483e-10  1.0567939166855849e-10  2.8919667842516713e-11  8.6176594900996664e-11  2.8189584865325928e-11  2.0856303288383839e-10  3.7218575299847681e-10  2.7174381989453167e-10  3.2721160929726456e-10  1.3443511587335004e-10  9.4858837141865601e-11  6.4036018673631600e-11  3.5946028520945805e-10  5.0437708068929631e-10  1.0634246883978773e-10  1.0135316849478479e-10  1.4764618817877337e-10  7.7049323630556173e-11  4.5864707833222786e-11  5.5415482214275810e-11  3.2409937571216374e-11  8.9070434289833189e-12  1.7943891573977546e-11  9.9815757579844508e-11  2.2570805003503528e-12  1.1099219670746323e-11  1.8587624833043259e-10  3.4817954946927210e-09  2.2665477392448579e-10  4.3035092889699684e-11  2.2065766603918939e-10  9.3798383270506251e-11  1.1285204968858268e-10  4.4270708487597846e-11  1.7242478248024341e-11  8.8803467756707834e-11  7.2193245414446104e-10  8.0352736884099662e-11  1.8346375585013462e-10  3.2419380261205172e-10  4.8443616925059725e-10  9.6470123108491333e-11  1.0201272704494564e-10  5.8732321906831413e-11  7.7133475315839251e-11  1.1339390842408828e-10  5.8062741195673151e-11  6.1414113494020901e-10  5.9421369241704652e-11  2.7646469439722410e-10  8.8488959339575810e-11  1.2817228868102306e-10  3.1409368894136411e-10  4.1778939945461745e-11  6.3838546498701514e-11  2.8972042833629780e-10  1.2044563867760682e-11  1.1381864744695641e-10  8.8714088168988014e-11  7.7205956005052913e-11  5.6012822365032130e-10  1.6116470694844982e-09  2.9879945742990963e-10  2.8844462023798916e-10  9.0996870522680862e-11  6.9911689319096482e-11  2.5588397047276061e-10  1.1837362331359234e-10  1.0077156790400120e-10  1.0527206816246642e-10  1.9984433969599717e-10  7.4541341147452777e-11  5.3234167712759557e-11  7.1248037747833478e-11  4.0096697795097335e-11  8.7281758764056600e-11  1.9062905284590228e-10  1.6184208454151629e-10  1.1155393106248312e-10  2.7784276926826655e-10  4.7650464242037850e-11  1.3653621490793404e-10  5.1937073816281948e-10  6.7278319179769991e-11  1.1819362412442438e-10  1.3709729657879805e-09  5.8578554334237576e-11  3.3491755888691031e-10  5.0800170217634158e-10  1.5768982096866453e-10  1.2908800989519223e-10  1.2577699648643338e-10  9.0865669425857452e-11  2.4672362066196038e-10  2.8502945071846409e-10  1.7770563534006713e-10  4.6512987713175232e-10  4.2195818256407370e-10  1.2242800066625494e-10  2.1197941766907305e-10  6.7198985275820028e-11  8.5470524006469750e-11  6.2982100529974938e-11  2.4035823131764299e-10  4.0051482935447337e-10  3.0743031029499244e-10  3.2368908573395834e-10  8.6401113226136235e-11  2.2632479322685384e-10  4.7690726269222056e-10  1.7260560056603970e-10  4.8391451320586230e-10  1.8412685107407789e-10  1.3869957652433114e-10  1.1216012046909174e-10  5.1545942371413907e-11  5.4977808756382019e-11  3.3194351966311835e-10  6.3220066595829248e-11  6.5030607360630380e-11  1.3023668987922465e-10  3.2122706997528303e-10  3.1934120193066811e-10  1.5746832493512708e-10  1.1771336134095283e-10  5.8621922901005066e-10  6.2449581471145390e-10  1.5853892189360463e-09  2.6634950267714127e-10  1.9836224471202617e-10  4.4109533897960885e-10  4.5520251140955625e-10  1.1570134070041942e-09  2.9531077670054533e-10  2.4854900319665967e-10  3.3308164660886638e-11  1.3040678412098878e-10  3.3202085303170847e-10  5.0916817831019788e-10  2.1250026184546723e-10  6.6117418949882838e-10  3.0746126936565324e-10  2.1700253557553044e-11  4.8471672807580901e-10  3.3315948373223249e-10  3.8880028093184167e-11  3.3336301642043813e-10  4.1397120324067194e-10  5.4268999435166482e-10  1.4557135213770231e-10  6.7100797287190677e-10  1.9579439483719445e-10  4.7628448009918003e-11  1.2764725877961442e-10  1.3306790844920942e-10  3.1530078347977140e-10  7.9662973268351740e-11  2.6599225650312226e-10  1.9663120485485163e-10  8.2317083269372022e-12  2.4540840403468122e-10  5.8494488088734911e-11  9.0656222285519564e-11  1.2474415422917063e-10  6.2780225850788837e-10  4.1043116412760215e-10  3.0225427703832253e-10  1.1726134082306856e-10  1.3296810717129316e-10  8.9141032411813512e-10  5.3539424618317851e-10  1.3490638197088182e-10  1.4261540920266184e-10  9.3546786863656481e-11  4.8738888696932989e-10  1.3967253956733609e-10  1.7582844830290443e-10  9.5734399194430394e-11  7.0947594523929833e-11  6.3672854092515451e-11  1.5060483630521587e-10  9.8592527060037684e-11  1.2987440464274205e-10  4.3884052836996025e-10  7.7403351993998800e-11  5.9229097939537228e-10  1.2834721151134067e-10  2.2387475881448555e-10  2.8249303663711771e-10  5.4533872509272427e-10  1.1662255987120577e-10  4.1407220120618191e-11  6.3525598682607010e-11  1.4199935649894624e-10  1.5927062687761381e-10  5.1911104045231090e-10  8.4979440230321010e-11  1.6382748353475476e-10  2.5309514373632721e-10  1.3782450162654700e-10  2.3702651485744948e-10  3.3383911491032540e-10  3.1069450698564975e-10  1.0570616492415600e-10  1.7525959415186941e-10  1.4935186159935903e-10  2.2833779147227405e-10  4.6924869890039201e-10  3.7336705356691221e-10  2.0187101537953303e-10  2.0776880319116802e-10  1.2607221796884146e-10  1.7322353915516324e-10  2.9915345067746543e-10  3.8073828366857482e-10  3.6118842544604472e-10  1.6565927044961576e-10  2.1985606373748256e-10  1.9501920772423905e-10  1.5551460427265223e-10  3.9962436204772195e-10  3.1947411637832548e-11  1.0598808149559956e-10  1.2712182035879369e-10  7.3209417745774957e-08  4.0706862235498235e-10  1.7778779305770994e-10  6.1215072652710729e-11  2.5625667209326709e-10  1.3867315662297917e-10  6.4854339248318112e-11  1.0613547286855951e-10  2.0247508182353461e-10  2.0676448701823910e-10  1.9579436932407720e-10  1.9010178634838529e-10  3.1002453938391437e-10  6.5878783907978993e-11  8.0489569922096927e-11  1.9209369061295655e-10  1.2234315823721851e-10  3.5716033535811610e-11  4.0346569010655351e-10  6.5097281745151852e-11  6.2414005460173602e-11  1.9430584098884727e-10  9.9643731424021861e-11  2.3793149366472893e-10  2.9271412062307924e-10  1.1011706342901067e-10  7.9257704872544515e-11  1.8863162238041113e-10  9.6810720011396315e-11  3.3021512024164608e-11  9.1434126217623831e-11  5.8455944704293765e-11  7.8532448013576933e-11  2.2404911991977395e-10  4.7727985863265940e-11  6.6876272706730035e-11  9.5119511860549788e-11  9.4430481029628463e-11  9.4264717158479606e-11  2.5487583766767548e-10  8.7748572773289211e-11  1.8459983397900035e-10  2.0124140837615974e-10  9.8823837798070175e-11  1.6071984826144109e-10  3.1519260825197739e-10  1.2482103566880163e-10  6.1241162350220727e-10  1.7170202345318610e-10  1.4979558834011764e-10  1.3813059925721141e-10  2.3054548963752192e-10  4.4438829026209689e-11  4.0312889254375637e-11  7.7468650790880025e-11  4.3340672991660424e-10  1.9921433005568818e-10  6.4080649126804457e-10  4.4088841588570580e-10  1.2168051592834486e-10  5.4576889193948344e-10  3.6532321639231629e-10  1.8943791325454782e-10  7.1287590692161251e-11  9.4159812031905037e-11  1.7425792967879758e-10  1.8740837363588691e-10  4.1947816227755122e-11  4.8280794969848685e-10  2.7862430069885852e-10  3.0367541056789010e-10  5.4119458610005196e-11  3.5163517175182650e-10  2.6705923140940491e-10  5.7517026765143608e-10  7.3745296283437601e-11  6.2130867763786407e-11  2.3892669739948798e-10  7.3184444179714972e-11  4.2991048749248175e-11  1.4912647016858778e-10  2.4503374732921387e-11  6