<?xml version="1.0"?>
<VTKFile type="UnstructuredGrid"  version="0.1"  >
<UnstructuredGrid>
<Piece  NumberOfPoints="4852" NumberOfCells="9430">
<Points>
<DataArray  type="Float64"  NumberOfComponents="3"  format="ascii">-1 0 0  -1 -1 0  0 -0.9999999999999999 0  0 0 0  0.9999999999999999 0 0  1 1 0  -1 1 0  0 1 0  -0.5 1 0  -0.9999999999999999 0.4999999999999999 0  -1 -0.5 0  -0.5 -1 0  0 -0.1608775713298009 0  1 0.5 0  0.5 1 0  0.1967448868031411 0 0  -0.3403108033697129 -0.1754506051161371 0  -0.3361120236420449 0.2237604027134492 0  0.173909410602518 0.3454305094828538 0  -0.1844833970008753 0.554363648689763 0  -0.5033647809193835 -0.5371530418382486 0  0.4904091196769333 0.2564938774397275 0  -0.06405445002011724 0.2005394934626457 0  0 -0.5061325913258391 0  -0.25 -1 0  -0.5606004201880703 0.5768494669778657 0  0.6612809759141234 0.6332756024022714 0  -0.1761084731080832 -0.537409584184575 0  -0.5383129767912267 0.02537493929462271 0  -1 0.25 0  -0.205642077746327 0.02368660579472311 0  -0.6539634762593828 0.3088330234395454 0  -1 -0.25 0  0.0393218037384342 0.5910531710517221 0  0.1950213507046288 0.128441695525324 0  -0.1362550088040514 -0.2196355399242292 0  0.37089958248937 0.6137833216747925 0  1 0.25 0  0.5355652144809806 0 0  -0.75 -1 0  -1 -0.75 0  -0.6447572086108451 -0.322686359422077 0  0.25 1 0  -1 0.75 0  0.02757118475249542 0 0  -0.25 1 0  -0.7499999999999999 1 0  1 0.75 0  0.75 1 0  0 -0.02898318711980711 0  0.05426844320505507 0.1418635867196953 0  -0.07749682356270653 -0.02777634620073165 0  -0.7007795036206981 -0.1321911230017753 0  -0.3214495240398549 -0.3468683254546286 0  -0.3394353303130183 0.4366977015592073 0  -0.09964905508764685 0.7638038292605559 0  -0.3825018214265934 0.7021599748923428 0  -0.05450163482684162 0.3982159325722341 0  -0.07864397754254562 0.07175820158247555 0  0.3588144730820106 0.3688222357927102 0  -0.7155816267553945 -0.7296683399408481 0  0.4117663459290589 0.08963139749802654 0  0.6899341432532851 0.1912919250794611 0  -0.7471928480899499 -0.526616943078755 0  -0.3867520136226783 -0.710531890943723 0  0.7215443752830468 0.4180530504109553 0  -0.7756717571166566 0.09684280388635536 0  0.196653506676419 0.6980986994521303 0  -0.1981050083565971 0.2878779565918792 0  -0.7985202153840221 0.5769712381101803 0  -0.7162434810805689 0.7659978414751745 0  -0.0519364634693136 -0.3733307940531793 0  0.5844347807277644 0.8161517088144965 0  0.8201416645475376 0.8055340088218242 0  -0.1053497786938078 -0.6972817342762058 0  -0.5138313519514895 0.1623019773643479 0  -0.2012807457622935 0.1252804727463084 0  -0.3585207104449839 0.07511638032713597 0  -0.3645677346697819 -0.05227697547103288 0  -0.4959103054701403 0.3944307463779557 0  0.375 1 0  1 0.125 0  -0.01176683093035937 0.07104172056106817 0  0.06224918808499178 0.391135573308664 0  -0.1710869534458864 -0.1222057347017381 0  -0.2423958802165078 0.773309105618935 0  -0.625 0.9999999999999999 0  0.5332476446416289 0.4535637991997896 0  -0.5754331108507162 -0.8299553182464949 0  -0.2565875769526307 -0.7836790091076763 0  -0.3193729347182615 -0.5081458423277148 0  0.8339096471599008 0.5948321408710251 0  -0.5480749047845593 0.7904796754930254 0  0.125 1 0  -0.06731129069818532 -0.09334483713471939 0  -0.49409159694116 -0.143008072615679 0  -0.875 -1 0  0.02956168696718699 0.04149926158100926 0  0.9999999999999999 0.375 0  -0.875 1 0  0.05738554297434824 0.7935717369450456 0  -0.1961007502987723 -0.3732456852689619 0  -0.0724759684467558 0.5704600585095525 0  0.2363778689131885 0.517219939548456 0  -0.791930190199285 0.2290652609417879 0  -0.4948512835397542 -0.3886875717945784 0  0.0003130119276335867 0.2705380611196481 0  0.5096709920175407 0.6395791635608731 0  0.3986562429095405 0.8069459598696392 0  -0.8058110070911424 0.4239678451666487 0  -0.06431665742792535 -0.2203858121220257 0  -0.7092087427820674 -0.01412487694529079 0  0.09048316460211801 0.05230907945661649 0  -0.4778203772725644 -0.2509107219805754 0  0.7238449214001855 0.08272272676158268 0  -0.8084337323116191 -0.410744977599168 0  0.337430225161958 0.1531305479019192 0  -0.7943042169899083 -0.2505418203623625 0  0.2362386203425586 0.2537324791268185 0  -1 -0.8750000000000001 0  -1 0.875 0  0.1842653712549526 0.04771118902102459 0  -0.2472789851864436 -0.2287555529302492 0  -1 0.375 0  -0.170667572679084 -0.04170784177617139 0  -0.6482051860336601 0.466902280043011 0  0 -0.07736776745332727 0  0.08048056058340139 0.2593111053618799 0  -0.375 1 0  -0.2162432946065656 0.4241511379016031 0  -0.1196529236004996 0.1497803954434427 0  0.1332425216894187 0.5535183723212233 0  0.1319169181983312 0.1932912994185372 0  -0.4740304768953951 0.2690017880797251 0  -0.04604217004141378 0.01388044011374487 0  0.8514494894524059 0.3698624893919215 0  -1 -0.125 0  0.2854612421983807 0.8365675004441779 0  -0.1103160266465109 0.312453622098507 0  -0.125 -1 0  0 -0.7575037395175259 0  0.07821397079968176 0 0  -0.9999999999999999 -0.375 0  -0.375 -1 0  -0.625 -1 0  0.7474787146812756 0 0  0.625 1 0  0 -0.2918843213980812 0  -1 0.625 0  -1 0.125 0  -1 -0.625 0  0.3284075310660084 0 0  0.004929205892015135 0 0  -0.125 1 0  0 -0.006571003003944568 0  1 0.625 0  0.9999999999999999 0.875 0  0.8749999999999999 1 0  -0.5620648087459194 -0.6761449953129892 0  -0.004542200336847018 0.1598451468569863 0  0.3622643403048203 0.2625050622319313 0  0.6529240732430269 0.2934567268482742 0  -0.8544975548559162 -0.6462848425158287 0  -0.8632236867735783 0.7868410725452396 0  0.4303267054424071 0.5007345040571383 0  -0.3980962654738129 0.8556602404432225 0  -0.7784446212246142 -0.8746708702820767 0  -0.8702813335259362 -0.7841297480182279 0  0.1541038592242215 0.8419408011013744 0  -0.6580412121030077 0.1524166738340626 0  -0.5771410168269546 -0.06401738381977577 0  -0.8543743077597403 -0.06248972265830516 0  -0.295252061592244 0.5616848541902708 0  -0.4229751605662665 0.5694562271431091 0  -0.3753333293996848 0.3305078765997487 0  -0.6179878196544294 -0.2160721065126532 0  -0.272405990942401 -0.08988324061260806 0  -0.6396229551702379 -0.5882238099910048 0  0.8597219281599627 0.2658281578638818 0  -0.03274056127002164 -0.03291735019254597 0  -0.0545229827405219 0.1142990942221182 0  -0.1332406815118175 0.4314487289811245 0  -0.1194569987391198 0.03229401119559819 0  0.5377324519167774 0.0644664704225239 0  0.5791409274494731 0.3587785063149335 0  0.6910980122619631 0.7744217458278431 0  -0.7931584684851329 0.8810258119115447 0  -0.6429921211027917 -0.4288316034040665 0  -0.116917808402349 -0.3967150099352114 0  0.8722174666844416 0.4883664162796242 0  0.07594684125695535 0.09362504586728108 0  -0.6642760092667209 0.8679995490513182 0  0.4545288112771572 0.3500737511903131 0  -0.02619775370324659 0.03574833323047385 0  -0.4088362153978892 -0.4399343585006074 0  -0.3616112008846339 -0.2684213820145262 0  0.3234269512788501 0.4812015422632851 0  -0.1955363369695998 0.2011006402365407 0  0.7055404717114878 0.5303806168069231 0  0.2617211683549271 0.3555116819832072 0  -0.3758614769918324 -0.8519055786569747 0  0.1092140722385167 0.6815923335860296 0  -0.2841953098910295 -0.6118734540120855 0  -0.4406795189593807 -0.6199131993613357 0  0.2960795507199667 0.691898747176375 0  -0.8747712047456095 -0.1746264623933506 0  -0.1797827014520031 0.8548041956097526 0  0.4546628032414072 0.1630390994965657 0  0.2802334324149547 0.04656329321168995 0  -0.1419028136944302 0.657063757517426 0  -0.01116132549785412 0.7082640676772113 0  -0.0532225511312568 0.8748769921697426 0  0.00562499705332821 0.4693035629784985 0  -0.3870739927355255 0.1531911755425605 0  0.5491066639948317 0.1329715239425161 0  -0.4752539837638008 0.6820724761281453 0  -0.8513055503704576 0.3325089068939465 0  -0.09137823337826331 -0.5359454455336966 0  -0.0284924567160869 -0.5519112090184131 0  -0.2136041389567412 -0.2873107549546361 0  0.8685118959637504 0.1514279054109149 0  -0.1689816392941401 -0.660933250273359 0  -0.8891260030845327 -0.5282226144431051 0  -0.2811026454411513 0.3378465453168952 0  -0.6757665326683806 0.5737194268082271 0  -0.8973435059781938 0.5311796864643378 0  -0.8982467704461625 0.6607063405601334 0  -0.6439536603370406 0.07226238786299188 0  -0.858940688133098 0.02853516663831841 0  -0.8879878331318539 0.1677859944307248 0  -0.1297357961718595 0.2285570147731453 0  0.160348699086219 0.4456769743890319 0  -0.04349336116609091 -0.12573315425598 0  -0.7530501134497506 0.6697359846005034 0  -0.6018916179080506 0.6976428586935725 0  -0.2538989587144334 0.07836535211210312 0  -0.2487737574251166 0.648434873852085 0  -0.02735817329255354 -0.006355717697656082 0  -0.4940077790188296 0.8769337645709862 0  -0.4762560968048594 0.490111776685587 0  -0.2898966199672717 0.1437773811450664 0  0.002296829624723563 0.02357199479849372 0  0.7793747709109866 0.6832458124443437 0  -0.4692156851496813 -0.8247152708136904 0  0.2718488364771437 0.1946097289103111 0  -0.1481939182756859 -0.8633947111000593 0  -0.06531196366882179 -0.8298408164542747 0  0.443174719523018 0.7056078578989656 0  -0.1174517682800497 -0.2879929479167991 0  -0.2644577146799599 -0.02614229647824626 0  -0.8936880121186865 -0.8964116560805502 0  -0.5724045256560321 0.236828042504028 0  -0.4756203218633238 0.0874171725826241 0  0.4909961831555634 0.8255625088278111 0  -0.02842805731919361 -0.2601225891220653 0  -0.3097426229538098 0.8752995152276892 0  -0.1426597003263672 0.08034947532583998 0  -0.4688526105335364 -0.03484320837036833 0  -0.3874739195682739 0.01209599043350652 0  -0.2912336550285982 0.02749952731675247 0  -0.3845380660908896 -0.1202475899152744 0  0.8881094323632815 0.6977962383513236 0  0.7924817853073823 0.9105894829018332 0  0.576576092658545 0.2076167195962169 0  -0.5597485433327941 -0.469055668286022 0  0.5986449804011281 0.705609836520938 0  0.6780352898416051 0.8881712283202715 0  -0.05076837786616658 0.3026842900688116 0  -0.902088018316354 0.9045850472190272 0  -0.1272525836110264 -0.06704378928423037 0  -0.1688837226005321 -0.1823310088
[...]
<PointData  Scalars="w"> 
<DataArray  type="Float64"  Name="w"  format="ascii">1.7553741718454495e-10  1.0384849676229881e-11  4.4389908828271470e-10  2.5924951191362676e-09  6.2393447549909608e-10  1.5689111862467011e-12  8.6890423684947787e-12  7.5102644885823148e-11  4.0659902339935236e-11  2.1130698887952972e-11  1.0842646002838079e-10  9.6485299148471244e-11  4.0260797736322512e-10  2.7848746312772199e-10  9.1737677525998072e-12  5.2258819503517056e-10  9.0942557502699146e-11  7.2401839963914303e-11  1.3077353193426267e-10  3.5716280648966069e-10  6.7261723719718363e-11  1.0439058417326739e-10  5.7296234928462037e-10  2.0350499731159320e-08  5.7972450499474632e-10  1.0882033245960612e-10  8.9247153501238319e-11  1.7174640493785435e-10  7.6617381574276056e-11  1.8851147690699813e-11  4.6794120822707355e-10  9.8191466892638573e-11  2.4407433180574290e-10  1.8183146237972464e-10  4.5268741988483309e-10  2.2540166189347869e-10  7.8474294431905893e-11  4.7891875099184089e-10  5.8587629283703756e-10  3.1321977203256163e-11  5.2953469578788331e-11  1.0849488700167842e-10  9.3044046254317318e-11  1.9863223874950105e-11  1.0443745486269662e-09  8.7845116856520797e-11  3.2112151465481066e-11  9.6945506568904144e-11  1.2355362417095107e-12  5.8694737930199867e-10  2.1995327755357685e-10  2.1293255362311260e-10  8.2833684748872607e-11  2.5242876779715716e-10  2.6091547737035017e-10  2.0665481542867989e-10  3.5890721842255373e-10  8.9399479226488319e-11  5.7595677985801297e-10  2.5202832729541828e-10  3.1533401986597560e-11  3.1402256176497755e-10  3.7912932849063808e-10  1.4414001414377071e-10  5.4584815584487968e-11  1.7841371165604732e-10  7.0964300135698637e-11  1.7914027078518419e-10  2.3334033801229089e-10  4.6372921230779336e-11  6.5171963575063518e-11  4.2862370455381591e-10  5.7151681248047754e-11  8.8640209933532363e-11  1.7268898753755626e-10  1.7083175287276876e-10  2.5647866537786451e-10  2.9132861464596928e-10  1.8292141760275140e-10  1.9636516690559923e-10  6.5443341116541042e-11  2.5234511212749250e-10  2.6112079376519972e-10  2.0150797396657360e-10  2.3417739984535860e-10  1.2579166690799265e-10  4.6951680991923529e-11  1.1023614353267087e-10  9.5209951254120448e-11  2.5476637357228954e-10  6.9479451246988623e-11  9.9840294806142440e-11  7.8886200331375354e-11  9.4947488666732715e-11  3.8902996239232511e-10  2.0982866278479622e-10  2.5645640049192625e-11  6.4945573964756677e-10  2.5721440110341617e-10  3.1791554113095106e-11  2.7878658438520268e-10  4.1252287564518410e-10  7.1100895325915557e-11  9.7447099861829886e-11  1.5761793975574643e-10  6.3783523790366264e-11  2.7362023718165789e-10  8.3749146258314656e-11  1.4762493752808989e-10  6.6525991194325762e-11  3.1098868952549294e-10  2.4840101882523565e-10  2.3074292703156478e-10  6.4414245699631716e-10  1.2088640862187069e-09  1.4938473109156176e-10  1.6465251248310201e-10  1.0265811983303174e-10  4.5831058309426666e-10  2.6099963534413393e-11  2.5789264588801284e-11  2.7731850130222487e-10  9.1350816197487438e-11  6.1553868652068642e-11  5.0116382644516490e-10  5.7818261568634182e-11  5.9475470425983425e-10  1.1850152766553296e-10  7.7206789757457738e-11  8.2886492077307513e-11  3.4144367404319351e-10  1.7370320651430700e-10  4.6428372488534472e-10  1.3586511445061716e-10  6.1682226570813630e-10  4.4693439118858165e-10  1.0978073803865553e-10  5.2391800850463173e-11  1.2999681010461198e-10  2.5646426915358667e-10  4.2334510168082214e-10  6.0048994315428328e-10  9.3746258727002266e-11  1.2080452770356870e-10  6.9493673393489111e-11  6.5549500683640904e-10  8.6888221092604211e-11  3.3092800490635206e-10  1.4853152254159153e-10  1.2483372889365176e-10  2.0181947214085045e-11  2.8263201441177622e-10  1.5693153950124890e-09  5.7007252324132050e-11  9.5601878787919489e-10  7.9646599705083053e-11  2.4794630336731918e-11  2.4467200688848462e-11  1.2241628213904238e-10  5.5836176126814605e-10  4.4411341365817252e-10  1.6108683938694927e-10  1.1577756741796083e-10  1.6814348289246763e-10  1.8790460967190044e-10  5.9052527073676961e-11  7.8444889664256005e-11  2.0532798985082547e-11  6.0473911878441475e-11  2.9668760392155192e-10  9.2332403974518285e-11  1.0628486760843024e-10  8.3069565527797936e-11  9.6887180558563042e-11  5.3510916208392390e-11  9.6292803733620547e-11  4.5568391481064594e-10  5.7404709423657457e-11  1.6413110149539825e-10  1.7119433627684843e-10  4.6178135445352930e-10  1.9880420030565215e-10  2.8165710957818487e-10  1.4262674135765966e-10  1.4515873056087475e-10  1.5125698254529719e-10  2.1193870644141264e-11  2.8877683507021623e-10  6.5280544947243552e-10  2.5739090564464846e-11  2.5043568236881325e-10  8.9867665187850867e-11  1.5805411076557695e-10  1.1010662755025543e-09  1.3739127538425302e-10  1.6362056183729802e-10  2.3446247560625008e-10  2.8755989093391334e-10  1.0645306491125245e-10  2.0477050714002999e-10  4.2373942907119184e-10  2.1970087031535920e-10  2.4145437858260441e-10  1.1033449437506446e-10  1.1320434165308224e-10  1.1319899880264740e-10  7.1966703171440124e-11  2.0828979199925938e-10  8.8147919701129170e-10  7.8228357776861509e-11  1.0895228428305262e-10  7.8005390989479276e-11  9.7194840812390214e-11  1.6254495837271993e-10  3.7720459268674511e-10  7.9611288166859329e-11  8.6025039546982238e-11  8.0634398733691158e-10  9.0464757180651138e-10  2.9241894985998607e-10  1.9970646095186175e-10  7.7300869008052705e-11  8.1389291876447490e-11  3.3729145907226330e-10  5.9220491243467672e-11  8.4126391342480796e-11  5.0521064959520189e-11  9.3775542686437004e-11  4.1622826546934429e-10  9.1046343282064208e-11  1.9730854445930054e-10  1.6674930168642241e-10  8.9862960819910595e-10  6.2358084710857677e-11  2.0014754502220466e-10  1.1520524870831732e-10  1.1280562453162237e-10  7.4337188590078626e-10  7.5973227906771562e-11  8.5809343827786084e-11  1.1819350037164704e-10  1.1032362418655903e-09  4.1348804925526041e-11  7.8548317359212610e-11  2.7846246115908274e-10  2.5233573332349510e-10  3.4470983758212553e-10  1.8385828612161972e-10  2.0443251097026096e-10  4.0437179101757715e-10  2.9655139709455534e-11  1.0597190251365886e-10  1.2852743177600113e-10  3.7868656643186622e-11  2.6939017585183638e-10  4.4255238244404860e-11  3.3251392358473516e-10  1.3607947011747146e-10  1.1054684929955822e-10  1.9131548635279479e-10  5.0335733049074631e-10  7.3550568122860941e-11  2.7190218352707921e-11  1.4488008315603568e-10  8.2372046171000929e-11  5.9876709350595899e-11  7.6981937969780555e-11  1.7916747223500302e-10  4.9707387262663261e-11  2.6299159100985961e-10  2.5424987888772912e-10  1.2860717404522653e-10  1.2836522662512693e-10  1.3851282122726354e-11  7.1455190115535903e-11  1.4611465289339559e-10  1.6964023409555504e-10  4.9528659322843574e-10  3.6939068723578143e-11  8.2468261782978341e-11  3.3738369528234444e-11  2.3766945319818031e-10  1.2645412453111136e-10  1.8628110064734166e-10  7.5264355643840832e-11  8.8844098485809766e-11  1.2197210672504297e-10  2.0365406156574682e-10  2.2396564818182924e-10  2.6185362534601497e-10  4.3653661575874257e-10  2.1441758438949182e-10  2.0954101210051671e-10  1.4572087616632111e-10  8.0649572166125176e-11  1.7325328072539340e-10  1.6691555740527899e-10  6.2272811485813703e-10  1.3035933624759086e-10  6.2669249922795183e-11  4.0599516422195982e-10  1.8911173542608265e-10  2.0993330523424983e-10  1.2269939456838656e-10  3.2994434920275804e-11  4.5075260739339962e-11  9.9448738396977545e-11  6.7798443363622813e-10  2.9248884263504670e-10  1.8131637132026661e-10  1.3713006194276243e-10  3.3825102584561874e-10  6.7779120588065193e-11  1.1025959789514806e-10  3.5178979693601808e-10  1.4833294470450823e-09  9.9426100931862164e-11  2.8211404395414096e-10  6.1135245171327594e-10  1.2227432200465822e-09  1.9698979190085211e-10  1.5191660169045188e-09  4.1710873874273607e-10  2.2594439437315210e-10  1.1621245710378648e-10  4.2246606542430945e-11  6.6324805337874340e-11  1.2655892914151217e-10  1.5735012305156836e-10  6.4158707767143493e-11  9.8805020168069194e-11  1.0735014126614236e-10  1.2779553228279312e-10  1.9205497070014530e-10  4.9457359590629203e-10  3.1824215588725209e-10  1.6663809533165458e-10  9.6487582552083871e-11  6.2046058469236782e-11  5.9422737732555425e-11  7.1003850931439853e-11  1.8302700332787420e-10  2.2832656022385610e-10  1.0676119596013029e-10  1.0667267079723357e-10  2.4007334308145031e-10  1.3711860335678418e-10  7.0290878794491727e-11  5.9732411114988948e-11  1.0558790539039988e-10  3.4508079032918675e-11  1.8837766560900326e-10  3.3178864090596762e-11  1.6102803028543302e-10  1.7948148567933501e-10  1.5184010595342954e-10  4.0337174731999247e-10  7.9693835998538284e-11  8.3565000722876340e-11  1.4567171106965661e-10  3.0955129775762020e-10  1.4531087626465835e-10  2.6353599721291591e-10  1.1119462081082194e-10  1.3656918867470162e-10  1.5902239469137142e-10  2.8163381513065568e-10  1.2749970642372753e-10  3.3963342775336947e-11  1.1839956546416847e-10  1.1265284458282256e-10  1.4857957736332639e-10  2.5528781029546511e-10  1.7199412812139273e-10  3.5274013779574508e-11  1.2993724874933351e-10  2.3316052143623245e-10  2.9411466674052936e-11  3.3044309718559438e-10  1.6337863055489670e-10  3.8729795180922088e-10  1.1326325464636942e-10  2.3842063850650028e-10  3.2607655668058340e-10  7.6144429604103106e-11  1.0601914676695860e-10  2.1906033759190540e-10  7.4321666980537236e-11  4.8268882674974079e-10  1.5975216662952566e-10  9.8821755539083466e-11  1.0909874562109459e-10  2.1075926834346666e-10  5.3964803237846149e-10  4.7530676866927150e-10  1.8265311896330951e-10  1.7271928984464247e-10  2.0894997640852768e-10  4.0313518032431208e-10  4.5712523285608863e-11  2.2633501791287252e-10  8.2081534652859507e-11  1.2381325337544051e-09  1.1837196304516288e-10  4.6180153461354423e-11  5.4643234478115804e-10  3.3146251184748363e-10  2.4752159983380870e-10  2.1197623155005216e-10  6.4611437337567283e-11  1.5432907812576627e-10  3.3691775826585106e-11  4.3852713870198044e-10  8.2797025808112170e-11  1.3858985479721663e-10  1.2784453246326602e-10  6.6314999781276016e-11  3.4919969720864697e-10  4.3661264756161632e-11  1.1893282319358183e-10  2.4428471365817679e-10  1.7893596247587296e-10  7.0976686536103592e-10  9.3131174454536508e-11  5.7458581839346043e-10  1.4887104575206499e-10  3.5261365078703869e-10  5.4689539099848101e-10  2.4365053028706364e-10  1.5533332186292264e-10  2.7160001554774756e-10  4.7837016654951389e-10  3.4464908980171268e-10  7.5968857430380551e-11  4.9718892315373243e-11  1.6317486888146675e-10  3.5530484860045042e-10  1.8771367327181371e-10  1.2836055598196410e-10  1.7272251267014218e-10  8.1933974592931595e-11  7.1874965312600507e-11  1.9979733423041845e-10  5.8392940063672960e-11  2.0808811062918155e-10  9.0849326562964869e-11  4.7845096186649642e-10  4.9876617173960625e-10  8.2337274751842851e-11  4.2041096788220248e-11  3.9668858000039196e-10  6.4666998258387371e-10  2.5899369970736340e-10  9.7960967608647650e-10  2.8744252889130216e-10  3.1639286905962918e-10  2.7135538579569228e-10  2.6511651115906587e-10  9.7973398090911087e-11  3.1654233101544378e-11  1.9467182498006593e-10  1.0626476100332487e-10  2.1614005271823849e-10  7.5662288822206791e-11  1.2442449284923408e-10  2.0327222397216699e-09  1.7686370523223515e-10  8.1371002360661936e-11  8.2875064302445792e-11  3.9819245414680929e-10  2.4277329280953235e-10  1.8979682774088033e-10  2.0815319405092607e-10  4.4933287629076883e-11  7.5266432661516517e-10  2.4198436240830359e-10  5.3235851947238598e-10  2.4810269440684188e-10  2.4337357747588771e-10  3.1328190468363742e-10  9.4584578762825435e-11  3.3217440006355744e-11  3.6333221982333184e-11  3.6625735921212769e-10  3.6282008372028454e-11  1.1760441474777447e-10  1.0182742993328782e-09  7.5334042901869484e-11  3.5283700164357424e-10  2.6366939102116713e-10  6.2189941931866838e-11  6.0243041715714814e-11  1.7951334878050884e-10  2.4470914695826991e-10  4.8862034827666618e-11  1.1343204818631107e-10  1.6183635620552339e-10  7.6584060675248756e-11  1.7080380122665083e-10  2.1158676744262722e-09  3.4530509254267267e-10  3.1927723314427866e-10  1.0681487111010821e-10  1.0834432161829453e-10  1.8944766415846102e-10  8.1144800915196115e-11  1.3467995512657544e-10  4.9970373217089138e-10  8.7266810778008467e-11  2.4371942132375452e-10  2.1662661965011774e-10  1.3901288411953768e-10  5.2086136161514560e-11  7.8605530333611640e-11  5.6168411197358682e-11  3.7535993578469740e-10  1.0679624831401171e-10  2.2152261627670212e-11  5.6995347874858996e-10  3.0958153491511575e-11  6.2047277118708913e-10  1.1727713354779777e-11  7.1904910779251797e-10  1.7432437780526106e-10  2.4997140467797204e-10  1.0541146040728794e-10  2.8901704480179648e-11  8.5961739302241128e-11  2.8108008802024716e-11  2.0798257207445243e-10  3.7230168654483135e-10  2.7175800162007240e-10  3.2765364059607796e-10  1.3462065161653960e-10  9.4534687782168565e-11  6.3876291120376972e-11  3.5980951468930143e-10  5.0390632867368326e-10  1.0611069937071520e-10  1.0120919617670626e-10  1.4754311833485377e-10  7.6833035255868479e-11  4.5705070827789961e-11  5.5241817551161580e-11  3.2352970691926558e-11  8.8959369411873745e-12  1.7918188343500206e-11  9.9588586438203311e-11  2.2597488826706301e-12  1.1108603818027795e-11  1.8592202953370682e-10  3.4826301219119677e-09  2.2563521015651247e-10  4.2984363846230228e-11  2.2072940226970692e-10  9.3520008976515660e-11  1.1282754551346832e-10  4.4132565572752123e-11  1.7215470448638322e-11  8.8606698771043107e-11  7.2357071485985140e-10  8.0126163538104370e-11  1.8356345300027215e-10  3.2418208034137358e-10  4.8488580514799956e-10  9.6505316466663813e-11  1.0202746899247116e-10  5.8673982246753212e-11  7.7100358632297866e-11  1.1306136576630396e-10  5.7924101650139218e-11  6.0748670848039111e-10  5.9711651478530740e-11  2.7677970009443203e-10  8.8316319891589819e-11  1.2817243484888832e-10  3.1386597611097572e-10  4.1782743081097915e-11  6.3685026685794236e-11  2.8840576871546985e-10  1.2027699989240794e-11  1.1356797505304106e-10  8.8604038695684345e-11  7.7128127063942464e-11  5.6060089748496167e-10  1.6118632923642061e-09  2.9377081945018963e-10  2.8870735972246261e-10  9.1014088789722810e-11  6.9712202771751888e-11  2.5542094732608627e-10  1.1828346557985765e-10  1.0042366730697503e-10  1.0487705227766673e-10  1.9962592772151120e-10  7.4351150542671232e-11  5.3046598910977189e-11  7.1111485886832960e-11  3.9995029217380897e-11  8.7108894410035244e-11  1.9079592871546530e-10  1.6184641335743268e-10  1.1160006194759844e-10  2.7750556410475736e-10  4.7577438693059415e-11  1.3650785808651564e-10  5.1994150443655688e-10  6.7169510845720561e-11  1.1794989935576621e-10  1.3410330213097308e-09  5.8534634801114823e-11  3.3552118681821692e-10  5.0873307274777900e-10  1.5783539190719760e-10  1.2890315617571524e-10  1.2589417220883332e-10  9.0613185177860512e-11  2.4712207773578894e-10  2.8528838123989853e-10  1.7779594817978591e-10  4.6579588794362763e-10  4.2228303005001927e-10  1.2217350017390959e-10  2.1147387484361162e-10  6.7007479717695357e-11  8.5291655856321555e-11  6.2899102802827261e-11  2.3993637700975171e-10  4.0065901609708861e-10  3.0757502804778766e-10  3.2426649018213864e-10  8.6290720463948799e-11  2.2661453737149502e-10  4.7744421986654737e-10  1.7259596463273826e-10  4.8270816206573795e-10  1.8380716066995302e-10  1.3960704246163322e-10  1.1258402009114823e-10  5.1513427845188909e-11  5.4808537446602779e-11  3.3199894037478077e-10  6.3134276171702435e-11  6.5055603028697940e-11  1.3031437362052375e-10  3.2147012015800716e-10  3.1942435333368879e-10  1.5730489976193706e-10  1.1773813821590070e-10  5.8720443217298019e-10  6.2538527807575840e-10  1.5878753626560659e-09  2.6673502596724299e-10  1.9855738418520096e-10  4.4168717668507887e-10  4.5571522679916693e-10  1.1593454555041565e-09  2.9577843657822023e-10  2.4794403546043143e-10  3.3303162914967075e-11  1.2999763210409628e-10  3.2798002279224486e-10  5.0484480432498556e-10  2.1228028140369231e-10  6.6248071017291170e-10  3.0696756758635651e-10  2.1668640765341635e-11  4.8854021802163357e-10  3.3333910905655959e-10  3.8859123526704793e-11  3.3355754686826833e-10  4.1405167274798439e-10  5.4313457272156365e-10  1.4564546931031867e-10  6.7146395720744522e-10  1.9588842049463421e-10  4.7563597330265130e-11  1.2759954845434118e-10  1.3301035185523735e-10  3.1508220445597216e-10  7.9513634106344404e-11  2.6581350604297677e-10  1.9567482888870535e-10  8.2215889525820375e-12  2.4540414076000650e-10  5.8346417740818475e-11  9.0599589116452520e-11  1.2458204058393105e-10  6.2866795705714664e-10  4.1099147413600018e-10  3.0262749109290272e-10  1.1732717204882012e-10  1.3258839730123607e-10  8.9283874690408879e-10  5.3628354023762405e-10  1.3490621522315063e-10  1.4291081198765208e-10  9.3878033230798576e-11  4.8817979252166130e-10  1.3920197478520095e-10  1.7535624403033029e-10  9.5613041424172309e-11  7.0864423203249872e-11  6.3590257272963369e-11  1.5027764214202463e-10  9.8451184465384122e-11  1.3013674788563730e-10  4.3913218676897043e-10  7.7121951457612596e-11  5.9344637313510759e-10  1.2817290434283023e-10  2.2400293705697911e-10  2.8151096493590844e-10  5.4616869702440674e-10  1.1653168496249671e-10  4.1334437223167936e-11  6.3349796746880715e-11  1.4205089028324921e-10  1.5924193786502240e-10  5.1897495086850743e-10  8.4804178448152783e-11  1.6307059823654034e-10  2.5203526615217883e-10  1.3787239384450042e-10  2.3754262945820101e-10  3.3407832915353083e-10  3.1098732006002150e-10  1.0537470309934946e-10  1.7515856749998756e-10  1.4959568521494603e-10  2.2840447018057235e-10  4.7457065319680744e-10  3.7366445575753094e-10  2.0197698449402532e-10  2.0747142571913728e-10  1.2574244705158215e-10  1.7302999981819022e-10  2.9936336443258722e-10  3.8085560795872215e-10  3.6133565273072253e-10  1.6573903936766158e-10  2.1998257154476607e-10  1.9564333324590243e-10  1.5524700951042527e-10  3.9943195960033779e-10  3.1877211249612629e-11  1.0598094825044290e-10  1.2824925523460684e-10  1.0170630688004266e-07  4.0723546257514577e-10  1.7728888339548441e-10  6.1226830821773847e-11  2.5645727032751648e-10  1.3858270734042256e-10  6.4715287844340084e-11  1.0590544498292344e-10  2.0260721715722351e-10  2.0652544184951693e-10  1.9523693832408659e-10  1.8998533094134667e-10  3.0989696293721924e-10  6.5731029138831223e-11  8.0465075662998769e-11  1.9180146331873900e-10  1.2254691749587749e-10  3.5611480768726765e-11  4.0336365892972425e-10  6.5057942237762321e-11  6.2245530862196017e-11  1.9490177166662660e-10  9.9433290719079815e-11  2.3768699519548438e-10  2.9281210443580328e-10  1.5494009835936929e-10  7.9041493719269985e-11  1.8808279034402341e-10  9.6637539566454547e-11  3.2951853246439028e-11  9.1143275022131636e-11  5.8455853075792519e-11  7.8630705566627538e-11  2.2434622088539846e-10  4.7643242453016526e-11  6.6661479518192736e-11  9.4824803948204454e-11  9.4199397418270445e-11  9.4198540332651930e-11  2.5244119093979426e-10  8.7794427425095604e-11  1.8514678441984654e-10  2.0221203065522100e-10  9.9256528406851228e-11  1.6078878207241145e-10  3.1528379432472410e-10  1.2464355696707211e-10  6.1296568101681920e-10  1.7156077071915635e-10  1.4957372090760134e-10  1.3811172954876298e-10  2.3009439939045974e-10  4.4365242398532289e-11  4.0212652736825388e-11  7.7354235453312907e-11  4.3388226763906382e-10  1.9942000154805279e-10  6.4248036827901603e-10  4.4143186347005297e-10  1.2170641519472017e-10  5.4629143459530981e-10  3.6512980488598320e-10  1.8917185011714459e-10  7.1152026976045891e-11  9.4158464305222156e-11  1.7452770242732602e-10  1.8745994658749288e-10  4.1875373383317240e-11  4.8040824344849304e-10  2.7844386291642543e-10  3.0110437539201663e-10  5.3979303414238934e-11  3.5184840465821699e-10  2.6655072295144782e-10  5.7632967268955687e-10  7.3693985248951585e-11  6.1944550920181767e-11  2.3906199217573939e-10  7.3080344139793277e-11  4.2870780827945083e-11  1.4889828041070982e-10  2.4454234657852717e-11  6