<?xml version="1.0"?>
<VTKFile type="UnstructuredGrid"  version="0.1"  >
<UnstructuredGrid>
<Piece  NumberOfPoints="4852" NumberOfCells="9430">
<Points>
<DataArray  type="Float64"  NumberOfComponents="3"  format="ascii">-1 0 0  -1 -1 0  0 -0.9999999999999999 0  0 0 0  1 0 0  1 1 0  -1 1 0  0 1 0  -0.5 1 0  -1 0.5 0  -1 -0.5 0  -0.4999999999999999 -0.9999999999999999 0  0 -0.1608775713298009 0  1 0.5 0  0.5 1 0  0.1967448868031411 0 0  -0.3437834297389458 -0.1767278467238543 0  -0.3408230670026667 0.2271616713093615 0  0.1746280008253285 0.3496240825380978 0  -0.1875050100415088 0.5583291086355385 0  -0.5056602452409267 -0.539661589041447 0  0.4918721303419314 0.2598206747426967 0  -0.06656084343322308 0.2037948606440029 0  0 -0.5061325913258391 0  -0.25 -1 0  -0.5639834474039347 0.579854651841422 0  0.6627868512510234 0.6360675278586397 0  -0.1776123796339119 -0.5395219396934725 0  -0.5426165878150339 0.02643128976492724 0  -1 0.25 0  -0.2089964800905191 0.02489752606381647 0  -0.6573011452638491 0.3118152757730309 0  -1 -0.25 0  0.03873192653274003 0.5949709525755026 0  0.1954301261670391 0.1310184254478857 0  -0.1379138962280622 -0.2207846150546731 0  0.3726126136667525 0.6171498110681524 0  1 0.25 0  0.5355652144809806 0 0  -0.75 -0.9999999999999999 0  -1 -0.75 0  -0.6472169861612883 -0.3247834419333994 0  0.25 1 0  -1 0.75 0  0.02757118475249542 0 0  -0.25 1 0  -0.75 1 0  1 0.75 0  0.75 1 0  0 -0.02898318711980711 0  0.05310666228923066 0.1442701528190715 0  -0.07830479184120445 -0.02654786653904861 0  -0.7035127841936565 -0.132820004881458 0  -0.3238701953188979 -0.3493218204914376 0  -0.3436856480737073 0.4407069207019767 0  -0.1010574297185436 0.7662526786718891 0  -0.3856245215194959 0.7047474188916883 0  -0.0566462366450008 0.4027309102832112 0  -0.08015455779763447 0.07290905198814285 0  0.3605708509590503 0.3727894666354876 0  -0.7169676367234993 -0.7312575388256873 0  0.4127217081282818 0.09117910293594671 0  0.6906829119347433 0.1932050977588443 0  -0.7486032215120174 -0.5287471346612681 0  -0.3887242968213048 -0.7121558224901338 0  0.722463902430632 0.4211540505039867 0  -0.7780391812109267 0.09800173346907201 0  0.1976453401377619 0.7010333085024346 0  -0.2020602429141856 0.2919307395202161 0  -0.8002634985892968 0.5791123437315968 0  -0.718148927765288 0.7675790497005974 0  -0.05350765045388706 -0.3745072228157461 0  0.5857597723178285 0.817799689269024 0  0.8209931268735322 0.8067545726090325 0  -0.1067386424002986 -0.6982965580367144 0  -0.5183670036415016 0.1650081776153599 0  -0.2050739265733916 0.1276764584113365 0  -0.3632175125037088 0.07696459321868815 0  -0.3688531326761315 -0.05202521972106638 0  -0.5000707971276167 0.3980653046452765 0  0.375 1 0  1 0.125 0  -0.01329371005704562 0.07130080628114593 0  0.06172816269395519 0.3955796320609571 0  -0.1734749929218457 -0.1224838193217885 0  -0.2446677184886677 0.7754511522795375 0  -0.625 1 0  0.5349820832260151 0.4573534182131115 0  -0.5768334993632852 -0.8309680351776139 0  -0.2580154248015453 -0.7846984961598245 0  -0.3214674594904758 -0.5105829869153102 0  0.8345615486411659 0.5967689468160733 0  -0.550510491933347 0.7921469023647811 0  0.125 1 0  -0.06863767692272303 -0.09275324100118501 0  -0.497870229669327 -0.1437896554747304 0  -0.8750000000000001 -1 0  0.02774567425171393 0.04201157720493173 0  1 0.375 0  -0.875 1 0  0.05728027405924205 0.7958277697346617 0  -0.1975686661628579 -0.3755764393552048 0  -0.07442670870691465 0.5744793903489362 0  0.2376547207924707 0.5211639178141515 0  -0.7941211838346799 0.2309750993760818 0  -0.4974875551822499 -0.3912568835859503 0  -0.001307283828724806 0.2745396480356674 0  0.5115087326570371 0.6426324503071744 0  0.3999528155541429 0.8088410824281608 0  -0.8076455562615542 0.4262202836140552 0  -0.06533635314242849 -0.2209634692034992 0  -0.7121305365431085 -0.01368746729563308 0  0.08978753833494652 0.05383396779710085 0  -0.4810490093565574 -0.2528191656046807 0  0.7241099377216815 0.08346847198361967 0  -0.8096607717007345 -0.4124700882146349 0  0.3386312146142879 0.1557641922554434 0  -0.7959755912827432 -0.2518146332132682 0  0.2373261801753102 0.2574001780133732 0  -1 -0.875 0  -1 0.875 0  0.1843443607735767 0.04914331166020849 0  -0.2498362037304317 -0.2304326531984144 0  -1 0.375 0  -0.1731980644996755 -0.04112431004608313 0  -0.6513299658331975 0.4699564734741561 0  0 -0.07736776745332727 0  0.08000119190333005 0.2631680528007279 0  -0.375 1 0  -0.2200458637861572 0.428450868690843 0  -0.122638984727593 0.1523362474366368 0  0.1337376527305702 0.557506797068298 0  0.1319019572902936 0.196578719514488 0  -0.4785793987730304 0.2724129654377382 0  -0.04568832651359445 0.01463506887354015 0  0.8517361803207087 0.3717460831175619 0  -1 -0.125 0  0.2863910216922368 0.838211825929425 0  -0.1133796587683571 0.3167362844603546 0  -0.125 -1 0  0 -0.7575037395175259 0  0.07821397079968176 0 0  -0.9999999999999999 -0.375 0  -0.375 -0.9999999999999999 0  -0.625 -1 0  0.7474787146812756 0 0  0.625 1 0  0 -0.2918843213980812 0  -1 0.625 0  -0.9999999999999999 0.125 0  -1 -0.625 0  0.3284075310660084 0 0  0.004929205892015135 0 0  -0.125 0.9999999999999999 0  0 -0.006571003003944568 0  1 0.625 0  1 0.8749999999999999 0  0.875 0.9999999999999999 0  -0.5640542547825934 -0.6780990247749397 0  -0.00631311462534107 0.1623887504613247 0  0.3638179958544341 0.2660543310008368 0  0.6540137190178489 0.2964113725299939 0  -0.8552557103214262 -0.6476979286441121 0  -0.8641400156597762 0.7878368999944763 0  0.4322017397700912 0.5045400778210711 0  -0.3999347749766156 0.856970086214174 0  -0.7792424928939796 -0.8753774136954507 0  -0.8708953123779914 -0.7850567616854184 0  0.1546127282262525 0.8436243171054505 0  -0.6615040063309267 0.1545766961755647 0  -0.5809218727632052 -0.06402899173644376 0  -0.8558792026507387 -0.06251850267027705 0  -0.2989510421844718 0.5653695154215169 0  -0.4267507132608296 0.5728365634118577 0  -0.3798894431307681 0.3344082737336881 0  -0.6209771386649123 -0.2175073761830883 0  -0.2759878382445499 -0.09010176637893456 0  -0.6415101559103443 -0.5905150599143519 0  0.8600412693847788 0.2669664697909083 0  -0.03324933919426287 -0.03179292840414192 0  -0.05650762544785227 0.115987149748031 0  -0.1362967871174084 0.4359050784898877 0  -0.1212507552521294 0.03340014156919938 0  0.5382245833943581 0.06538578952936869 0  0.5805910586069035 0.3624346251197951 0  0.6924372329100924 0.7762113293690388 0  -0.7941879485848139 0.8817148895980038 0  -0.6451340275770066 -0.4312441231262863 0  -0.1179481453150909 -0.3987933378066491 0  0.8724551787204669 0.4901519474726653 0  0.07488118549924387 0.09550551042174099 0  -0.6657490899149113 0.868970941270148 0  0.4562712264714895 0.3539121040481317 0  -0.02636873617921832 0.03543351701884809 0  -0.4112623739254351 -0.4425629586861502 0  -0.3645890178135682 -0.2705260883703196 0  0.3251052717254878 0.4851517278394616 0  -0.1994890965541184 0.2044216612654749 0  0.7067480245190442 0.533404717858361 0  0.2630987002295 0.3595878942806479 0  -0.3772477395820504 -0.8526410345845972 0  0.1094357169153616 0.684759599034358 0  -0.2861165351155706 -0.6138927802786025 0  -0.4428755383064834 -0.6220831872690686 0  0.2974937619839307 0.6947550793793221 0  -0.8759378060419157 -0.1752214824954508 0  -0.1811061926848225 0.8562923363711371 0  0.4559041577598456 0.1656317244634112 0  0.2806638561773006 0.04756616358264021 0  -0.1441821128603231 0.6603987245280005 0  -0.0121008739686104 0.7112573443421984 0  -0.05374023661183943 0.8762626302189765 0  0.004427875537867179 0.4737568042522703 0  -0.3918775597549172 0.1559519028514652 0  0.5500028678230851 0.1348485656151154 0  -0.478451929431188 0.6847000531776469 0  -0.8528078009257629 0.3343308364721408 0  -0.09306831201341581 -0.5376765422183268 0  -0.03013067096251699 -0.5529612220322604 0  -0.2155265494143572 -0.2893428807967598 0  0.8686028431420421 0.1520682958502226 0  -0.1705522113407239 -0.6624537939676965 0  -0.8897356724245425 -0.5295364306340006 0  -0.2854604031317127 0.3419431220660589 0  -0.6784767090280577 0.5764193283073495 0  -0.8982503809306626 0.5325746686048226 0  -0.899057020676321 0.6619020042790795 0  -0.6475611073409737 0.07368369852791007 0  -0.860469768592003 0.02900618963655294 0  -0.8892983882438082 0.1686334832974722 0  -0.133057112536055 0.2321592336410458 0  0.1610447040174235 0.4499350603765886 0  -0.04449124839835997 -0.1255969694479403 0  -0.7550192525792404 0.6717547106199973 0  -0.6046669368782649 0.6999456234953689 0  -0.2580181205092251 0.0802491689586235 0  -0.2518142390095111 0.6516167845058811 0  -0.02688131905357056 -0.005134814021100601 0  -0.4957936948430518 0.8779434903314948 0  -0.4802068056488673 0.493671473751668 0  -0.2944589528523431 0.1464845999464329 0  0.0008755565831696852 0.02256437050453468 0  0.7804221013946849 0.6852742627484528 0  -0.4707171371529766 -0.8256970018406377 0  0.2729888326579272 0.1977381804577065 0  -0.1487972244337692 -0.8638255451954779 0  -0.06583726656886416 -0.8301941995090906 0  0.4448447012668791 0.7082731597610374 0  -0.1186685127260552 -0.289487934457385 0  -0.2682673311971567 -0.02556272863548814 0  -0.8940720474699742 -0.8968263327073165 0  -0.5764807690378411 0.2398463467497444 0  -0.4802882477664502 0.08934728824154829 0  0.4923018931062323 0.8272394273214599 0  -0.0290345054386328 -0.2603600167072057 0  -0.3113395943843527 0.8764482279580477 0  -0.1453986298625611 0.08202202578900472 0  -0.4731692937635834 -0.03438963608988849 0  -0.3920538344847105 0.01311365187006982 0  -0.2954644448303034 0.02873481361981798 0  -0.3884962501347732 -0.1208329188247189 0  0.8886134020499755 0.6990178639432111 0  0.7931858048661151 0.9111905979286035 0  0.5776839317968415 0.2102380896747394 0  -0.5620788273155816 -0.4716428325984236 0  0.6003013504528524 0.7080992863093502 0  0.6789663622309764 0.8890856428879792 0  -0.05309388454273161 0.3069238918444683 0  -0.9025404702208299 0.9049874246986919 0  -0.1291047204082417 -0.06645590914930449 0  -0.171025491
[...]
<PointData  Scalars="w"> 
<DataArray  type="Float64"  Name="w"  format="ascii">1.6712015231847689e-10  1.0290787839614961e-11  4.4309097742718048e-10  1.3716265168983254e-09  6.2428781400758697e-10  1.5627559634557688e-12  8.6375879559310019e-12  7.2529744159026392e-11  3.8785579351317897e-11  2.0635466659486183e-11  1.0389078152171483e-10  9.3165738458537991e-11  4.0895431414775603e-10  2.6597193697715812e-10  8.9394836862361923e-12  5.5212571652996202e-10  9.1372334840833158e-11  7.1411754748713180e-11  1.3158153088148486e-10  3.4141141141822550e-10  6.5640601864180424e-11  1.0449613756427494e-10  5.9298062868980492e-10  2.1979325476300423e-05  5.6595011190533089e-10  1.0340485280842745e-10  8.6148179637870387e-11  1.6839787801714586e-10  7.5058637694151312e-11  1.8518881697136493e-11  4.8504123779350373e-10  9.3726291912645101e-11  2.3394039709587976e-10  1.7486821195225903e-10  4.7300938993098768e-10  2.3335286879182655e-10  7.5430611417179238e-11  4.6757458971640851e-10  5.9294672555040742e-10  3.0563905040063408e-11  5.0935346028862951e-11  1.0542420817541119e-10  8.9276621888443452e-11  1.8893774238293577e-11  1.0533596088471417e-09  8.5574047877734878e-11  3.1306981558038803e-11  9.3332247848953441e-11  1.2670684079973991e-12  5.9466698168379796e-10  2.3174499936558321e-10  2.3249106256861920e-10  8.0659778830197622e-11  2.5244189862501158e-10  2.5130539183036129e-10  1.9515547624570439e-10  3.4008695333728776e-10  8.7959643145621121e-11  6.4297749315055660e-10  2.4915127648511822e-10  3.0528476667027456e-11  3.1926530876765094e-10  3.7408615761980558e-10  1.3885007135072327e-10  5.2845853773838153e-11  1.7424113564788870e-10  6.7393339513777008e-11  1.7312622630388409e-10  2.3230963206226979e-10  4.4304204234461167e-11  6.2593846288238384e-11  4.4661094920024297e-10  5.4405116697697508e-11  8.5770928429653815e-11  1.6898123777223980e-10  1.6543541528294920e-10  2.6455099773910744e-10  2.8492765391303578e-10  1.8240936605247650e-10  1.8723572362299926e-10  6.3026001523066264e-11  2.5116000823923733e-10  2.9784987615512776e-10  1.9646894345574401e-10  2.4249432119614062e-10  1.2033396631374016e-10  4.4235738961931006e-11  1.0715809237574260e-10  9.2125351169676451e-11  2.4812542274949347e-10  6.8170215623853631e-11  9.5743808843922617e-11  7.5030527861480909e-11  9.0611446590870872e-11  4.1144878016942665e-10  2.0531540754517955e-10  2.5026375925996404e-11  7.4365886690135695e-10  2.5105199056065361e-10  3.0751788611407340e-11  2.6538533920551729e-10  4.1538906396436509e-10  7.0921400140835389e-11  9.5422358218687861e-11  1.5018003162323563e-10  6.2751344635394655e-11  2.7802753408388305e-10  8.0168566915029008e-11  1.4078101749182114e-10  6.3337390049277259e-11  3.2475217792640310e-10  2.3695089108786392e-10  2.5063878340206215e-10  6.3142746203228290e-10  1.2159109825889897e-09  1.4330405096460875e-10  1.7023534488397548e-10  9.9236269826891587e-11  4.6613614692320774e-10  2.5520212290612142e-11  2.5228012603815561e-11  2.9155939828182953e-10  9.3537007571720658e-11  5.8411867431437769e-11  5.2431243425357477e-10  5.4738239878900598e-11  6.2533716219629656e-10  1.2047968940876878e-10  7.4291327366839370e-11  8.1411736263766805e-11  3.5631458986340674e-10  1.6631452013859855e-10  4.7577841392040187e-10  1.3049088868925626e-10  7.1132178512360877e-10  4.2446382018427863e-10  1.0522632852898403e-10  5.0322037483403853e-11  1.3135245634195656e-10  2.5395532445509123e-10  4.5488413995580852e-10  6.3789334957843483e-10  8.8885291562189987e-11  1.1664851009277488e-10  6.6676545511759454e-11  6.5920568339726555e-10  8.2637248459180430e-11  3.4351143845413731e-10  1.4111876776450084e-10  1.1940096721193064e-10  1.9538991310452083e-11  2.8734904546345154e-10  1.3581741895867043e-09  5.5065410074306698e-11  8.6053181261049963e-10  7.6268989455196796e-11  2.3718645390941923e-11  2.3811210903111518e-11  1.1861915899640873e-10  5.9736240570964658e-10  4.5071544702884672e-10  1.6029360233768252e-10  1.1064893886265308e-10  1.6089832902821360e-10  1.8357365266690119e-10  5.6463533248778410e-11  7.5678411553432722e-11  1.9962655139530117e-11  5.7734125485349272e-11  2.8079005163596947e-10  9.0896370414426213e-11  1.0204956455195031e-10  8.1235962167232465e-11  9.2125990033363769e-11  5.2252294973482652e-11  9.3563631914346108e-11  4.6245710605538847e-10  5.5665977989729103e-11  1.6292250196219800e-10  1.8488939255160754e-10  4.9327129286117230e-10  1.9409454607761495e-10  3.0089084211100194e-10  1.4459623906633736e-10  1.4274607332910425e-10  1.4437325775396008e-10  2.0613913076911083e-11  2.7760003112710501e-10  6.5440601342399175e-10  2.4669272090190443e-11  2.6896968730079879e-10  8.5773281283076074e-11  1.5569171813018500e-10  1.3056475530908244e-09  1.3563373505846796e-10  1.6544568264602179e-10  2.2970596376924990e-10  2.8994305365211400e-10  1.0262206492044022e-10  2.0437392655159233e-10  4.0745709004034731e-10  2.1327541937766956e-10  2.3502060958275186e-10  1.0739314237355808e-10  1.0987949901947081e-10  1.0825175256610046e-10  6.8776402281262267e-11  2.0916796189528681e-10  9.1076834638112570e-10  7.5204187397015109e-11  1.0458328466402770e-10  7.7107432851314741e-11  9.5489324931053180e-11  1.6112917131271461e-10  3.7657893255879838e-10  7.7016112556740465e-11  8.0168520195923536e-11  7.3846093808611231e-10  8.4818978708821685e-10  2.9619351168589134e-10  2.0017135351164480e-10  7.7803643993414119e-11  7.7969645989430602e-11  3.2860638892738623e-10  5.6200147546948582e-11  7.9608394344420146e-11  4.8854262657006732e-11  9.0737605423129594e-11  3.9185034224706355e-10  8.6901165649256543e-11  2.0022422588396125e-10  1.6336406986689739e-10  9.5149328529589723e-10  5.9682062646238068e-11  1.8967514454188103e-10  1.1760116400228127e-10  1.0721999343296194e-10  8.2381213505825644e-10  7.1874625607481358e-11  8.2202580681498391e-11  1.1811515584485118e-10  1.3728527172149966e-09  3.9606282994234544e-11  7.6239818048344931e-11  2.8650839940009479e-10  2.4764393362251219e-10  3.4005683790676393e-10  1.7561469639853288e-10  2.0767349000456981e-10  4.1126291962908432e-10  2.8882668475507981e-11  1.0250601816773411e-10  1.2529596795343637e-10  3.6505026520442619e-11  2.7266350807272898e-10  4.2331838495048654e-11  3.5531557241023482e-10  1.3490415986418691e-10  1.1013866579872969e-10  1.9495634448451624e-10  5.0162278222038039e-10  7.1304119702395475e-11  2.6287303280064900e-11  1.4409214403559649e-10  8.0274622707699844e-11  5.7440759148870463e-11  7.3001621400588325e-11  1.8101642291688729e-10  4.7856699946185011e-11  2.7696493706929141e-10  2.6195539180646654e-10  1.3264910699306619e-10  1.3536644530222988e-10  1.3407535497860395e-11  7.1750550581856607e-11  1.5242479150852594e-10  1.6080004948295036e-10  5.5158988994821889e-10  3.5917917318236205e-11  8.0132436076954366e-11  3.2938639872974625e-11  2.5626163254355378e-10  1.2227018199307277e-10  1.7790224762887992e-10  7.5004328037454780e-11  8.3497242757344552e-11  1.1956757029543563e-10  1.9708277084618950e-10  2.2722683205410493e-10  2.6096096504479716e-10  4.6443007302413615e-10  2.1320705023521152e-10  2.1438830228361088e-10  1.4024767222618352e-10  7.8921609869360454e-11  1.6763772144511819e-10  1.6271332472870841e-10  6.4969449964283028e-10  1.2632675097583501e-10  6.0906828219348553e-11  4.1477707239071815e-10  1.9980265666490681e-10  1.9794930387220999e-10  1.1808611265087718e-10  3.1862227133643759e-11  4.4013467066384136e-11  9.4701355349369639e-11  7.2197661855504519e-10  3.1008062396091631e-10  1.7859059443610205e-10  1.3090016335928678e-10  3.3071120325604036e-10  6.6532806023096530e-11  1.0949186366601535e-10  3.6365609698698026e-10  1.0709543083798092e-07  9.5874869648903145e-11  2.9262756930204364e-10  6.4651810281614960e-10  1.3014916759977371e-09  2.1574384620526831e-10  1.6330128944031943e-09  4.4394073574624594e-10  2.2548411544151304e-10  1.2048030820030207e-10  4.0024265095996211e-11  6.3252644703081590e-11  1.2638677834615472e-10  1.5251763615340438e-10  6.1194124897957003e-11  1.0123398400941833e-10  1.0701148471703144e-10  1.2415555650504312e-10  2.0722536101516658e-10  5.4374540662430356e-10  3.2363345356312191e-10  1.6413796132095566e-10  9.3431287790209601e-11  6.0573640602095435e-11  5.8502025104080379e-11  6.9135634545252121e-11  1.7776534475559924e-10  2.1860397006750862e-10  1.0152342349919684e-10  1.0069535453258575e-10  2.3103525153505440e-10  1.3305058779018887e-10  6.7325438733978792e-11  5.7482347722458302e-11  1.0576878563741104e-10  3.3115682245258444e-11  1.7797561784894749e-10  3.1965344025733338e-11  1.6175535431656560e-10  1.8019253615353665e-10  1.5255154777374836e-10  3.8817070755944809e-10  7.8306029711405377e-11  8.0079433316696281e-11  1.3926241490553328e-10  2.9735542071846402e-10  1.4364337336384980e-10  2.6146743806105452e-10  1.0785227771772244e-10  1.3128794717672419e-10  1.4938271300845962e-10  2.7941854497067922e-10  1.2973109161618950e-10  3.2716963250001959e-11  1.1311585753095810e-10  1.1064290397764872e-10  1.4188705068164910e-10  2.4124594333270312e-10  1.6505694646606567e-10  3.3879883086117160e-11  1.2614939052988200e-10  2.2923941181437516e-10  2.8357167319085651e-11  3.2967196921438123e-10  1.7119075036166020e-10  4.3685611997274813e-10  1.1141010660035988e-10  2.2861350091823286e-10  3.1970180971726433e-10  7.2777750725325741e-11  1.0283910339965475e-10  2.1215483774448939e-10  7.0893909115184501e-11  4.9721574269247839e-10  1.6618314289472943e-10  9.4292104201021450e-11  1.0559600960293768e-10  2.0331702963411677e-10  5.7217345015560566e-10  5.0380866013599983e-10  1.7505682288981447e-10  1.6640676175533755e-10  1.9826951271976395e-10  3.8472802716939486e-10  4.4309880334882813e-11  2.1707443054398555e-10  7.8744577808127518e-11  1.2826844023833970e-09  1.1570529013387007e-10  4.5075507836831256e-11  6.1336064824288396e-10  3.4013339195029843e-10  2.4546463256403092e-10  2.0284239508215851e-10  6.1996532231503911e-11  1.4856982970885238e-10  3.2132253147577259e-11  4.3493466626904526e-10  7.8790755089947552e-11  1.3054656691726216e-10  1.2466484577238895e-10  6.3458690887466311e-11  3.4378610297278466e-10  4.1752188030593340e-11  1.1262340189208507e-10  2.4702748947620397e-10  1.8056275182667669e-10  7.5858001917412134e-10  8.9608136648343270e-11  5.8955354772842058e-10  1.4231903931532590e-10  3.8339366358507830e-10  5.0887844949079995e-10  2.5212300676256276e-10  1.5374769203985183e-10  2.7901042556558105e-10  5.1784701588165249e-10  3.3792554568732520e-10  7.2650948210392711e-11  4.8412355696040742e-11  1.7061900701558217e-10  3.7593351000796853e-10  1.7864288619260783e-10  1.2283364499889776e-10  1.6277314164974341e-10  7.8781430489526259e-11  6.8648438181519480e-11  1.9691259469192979e-10  5.5998795163675013e-11  2.0171063929229128e-10  8.9339746060037047e-11  5.0178054607881531e-10  4.7412547249655266e-10  8.0078140446822270e-11  4.0886341617230672e-11  3.9680626952158161e-10  6.6289128153336537e-10  2.5969236175373522e-10  1.0769675669388587e-09  2.9794822995503184e-10  3.2492040776494539e-10  2.9536510524734070e-10  2.7668656728518255e-10  9.4905680583342682e-11  3.0676320324001896e-11  1.9054727625689948e-10  1.0005031092146239e-10  2.0741071311189371e-10  7.5155291461825306e-11  1.1808310738892351e-10  2.0427289292914714e-09  1.7667044721564596e-10  7.9222131548799189e-11  7.9920502093249737e-11  4.2558718761748949e-10  2.4691346098669349e-10  1.9086759126304524e-10  2.0910053272909101e-10  4.3401432761002602e-11  8.2901791923696408e-10  2.4229572870057420e-10  5.3011704324451687e-10  2.4598719612165289e-10  2.3219745691911100e-10  3.0358081239372745e-10  9.3816038633354429e-11  3.2739272239640790e-11  3.5723349817435948e-11  3.8583230449371333e-10  3.4636204005466787e-11  1.1128222170569359e-10  1.0644037493424075e-09  7.3987129418237237e-11  3.3704158277858381e-10  2.5650167305940565e-10  6.1046848873479386e-11  5.8072277671444988e-11  1.8551630017468434e-10  2.5155204729681807e-10  4.6745254591068622e-11  1.1216942968106997e-10  1.5524501446290483e-10  7.5148876557600891e-11  1.6491930413577913e-10  2.2018686475160092e-09  3.4748162065547684e-10  3.2053359420014408e-10  1.0848624732790449e-10  1.0444530258064499e-10  1.7939971504539081e-10  7.7086957549712114e-11  1.3192508803537416e-10  4.8839569179031489e-10  8.4959060675238737e-11  2.3112095504027376e-10  2.0752699853888309e-10  1.4092085786720857e-10  4.9580133190195755e-11  7.4115821742594205e-11  5.2500072380952980e-11  1.4780675520571429e-09  1.0229408556303717e-10  2.2018211493012369e-11  5.7627939970424820e-10  2.9790253366391424e-11  6.2262389893500731e-10  1.1630213238891324e-11  1.8663794064534230e-09  1.7346653919668307e-10  2.4459899538574331e-10  9.9757639142980728e-11  2.8307442938513960e-11  8.1361251657642290e-11  2.7021195234982475e-11  1.9946958603364150e-10  3.7253665736897918e-10  2.6954907413801569e-10  2.3194096638459466e-10  1.3784890565151209e-10  9.0306954215292892e-11  6.1418174792945079e-11  3.5531919197816767e-10  4.9323515516212334e-10  1.0241449701676535e-10  9.7054740528150750e-11  1.4166756482502684e-10  7.4808972385435068e-11  4.4013709168353007e-11  5.2291485592332074e-11  3.0994768895788782e-11  8.7702697071722244e-12  1.7516750102191973e-11  9.6013377605585522e-11  2.2198195029078446e-12  1.0884474655661599e-11  1.9296697227954097e-10  3.5251653660597065e-09  2.1184012529374357e-10  4.0962693420458778e-11  2.1655206591970362e-10  8.9693707295755627e-11  1.0968263368360056e-10  4.2872387579769823e-11  1.6595832351198287e-11  8.4882482996792233e-11  8.7266349926816048e-10  7.8060240264143374e-11  1.8376044709505357e-10  3.2076140265126003e-10  4.8450738816956156e-10  9.6069728530671759e-11  1.0068683974993626e-10  5.7100664283172181e-11  7.6333371755534632e-11  1.0730817370207344e-10  5.5001069830359888e-11  5.8501767698759279e-10  5.8431598926125880e-11  2.9457549287772925e-10  8.5597736425474286e-11  1.2625499938583421e-10  2.9852138119659411e-10  4.0789235077821882e-11  6.0038455479567266e-11  2.6770215316784406e-10  1.1507973302290780e-11  1.0990327192685780e-10  8.6861821268838141e-11  7.5417241400801021e-11  5.6662892829360697e-10  1.6512708670819394e-09  2.8265872593235109e-10  2.9627738318957080e-10  8.9530141809163285e-11  6.6894689521224986e-11  2.4514847338880918e-10  1.1433988698285012e-10  9.5433741622637454e-11  1.0061319898204711e-10  1.8997669025627409e-10  7.1368124210765850e-11  5.1292049367231956e-11  6.8929237481470900e-11  3.8880914969243219e-11  8.4533439209419066e-11  1.9892982038431393e-10  1.6395446186656133e-10  1.1351298810114963e-10  2.6896093235079056e-10  4.5346529293372125e-11  1.3367077612747078e-10  5.3938945910914179e-10  6.4201544818894623e-11  1.1508272004679779e-10  1.2620888273297494e-09  5.6739308500184417e-11  3.5119388252379559e-10  5.4922488473544493e-10  1.6112127021513371e-10  1.2515380772294521e-10  1.2541464291763153e-10  8.7945018817601160e-11  2.6716846594656542e-10  2.9660498233781181e-10  1.7688446870439915e-10  4.8460513317039207e-10  4.2949744110301069e-10  1.1618057789049344e-10  2.0103186562031609e-10  6.4505072891127559e-11  8.1942689155098690e-11  6.1480270094713955e-11  2.3263503525031881e-10  4.0029045490711365e-10  3.0844028229305863e-10  3.2692601319450772e-10  8.3327545650440740e-11  2.4716891720512544e-10  5.1216700521083210e-10  1.6619674904079154e-10  4.5681265682813645e-10  1.7774975955677204e-10  1.3623742089008426e-10  1.0917186406274951e-10  5.0226506008720387e-11  5.2371330746442086e-11  3.2580078103918061e-10  6.0416670071717309e-11  6.3486161712723572e-11  1.2655450469262762e-10  3.2001037670754742e-10  3.1492693741986794e-10  1.5644581868716938e-10  1.1678077529508102e-10  6.6441792618504937e-10  6.6723533033967897e-10  1.8495099539560080e-09  2.9182775343592233e-10  2.1417165813156422e-10  4.7487089927264480e-10  4.4909462361111466e-10  1.3310632101860786e-09  3.1306134348496396e-10  2.3717368368085640e-10  3.2123599053833604e-11  1.2318312768189746e-10  3.3032859661242243e-10  6.0555022950562024e-10  2.1988570664293021e-10  6.7173305060039380e-10  2.9210319474408699e-10  2.0947257352380491e-11  4.7134981603391076e-10  3.4501103049298938e-10  3.7969024548486912e-11  3.3967360186303494e-10  4.1221906661698364e-10  5.5446880600101386e-10  1.4629503961682898e-10  6.7320878412266004e-10  1.9244876507009913e-10  4.6107539483725281e-11  1.2608692713270230e-10  1.3002761849819594e-10  3.2325429307119741e-10  7.5613770907481577e-11  2.5394172404520888e-10  1.8760697794748200e-10  7.8995056122751636e-12  2.3418118743026545e-10  5.6496041169039497e-11  8.8236063518230715e-11  1.2124286250405315e-10  6.7580018059239042e-10  4.3296927661195119e-10  3.1745608593594829e-10  1.1571396032703160e-10  1.2720741311224561e-10  1.0710272133685544e-09  6.4159249602460691e-10  1.3195754017556852e-10  1.4061067939327682e-10  9.2848422985251624e-11  4.8512886341937921e-10  1.3192905396048588e-10  1.6676066122229909e-10  9.1039977755621304e-11  6.8974734755720170e-11  6.2158407454068919e-11  1.4404396212666550e-10  9.5723425266446585e-11  1.2598779022602731e-10  4.0874654740225360e-10  7.3494178670506728e-11  6.2069940432999826e-10  1.2122405582081824e-10  2.2706291489917886e-10  2.6680045102087481e-10  6.0435531402591685e-10  1.1381902265835171e-10  3.9479031441590737e-11  6.0567051853405871e-11  1.4192475229546301e-10  1.5742049779015035e-10  5.0024740167918140e-10  8.1788539307562178e-11  1.5277737374053196e-10  2.4113668210866288e-10  1.3520679990350256e-10  2.3101820823687430e-10  3.2754619039867051e-10  3.2324339838843980e-10  9.9685378365682436e-11  1.7143556650772456e-10  1.4619018406387465e-10  2.2657037554952908e-10  3.7619001723396589e-10  3.7867248531667628e-10  2.0272247233262225e-10  1.9295171394690073e-10  1.1967028300837531e-10  1.6800837819712327e-10  3.1195537349333973e-10  3.8086568156858884e-10  3.6334641470299847e-10  1.6841411680884575e-10  2.2196248846440920e-10  1.9093092368970953e-10  1.4644108534413806e-10  3.9211999494059371e-10  3.0664193973236880e-11  1.0229231646829406e-10  1.2574205639194694e-10  4.4609434819835505e-05  4.0149813960114064e-10  1.7014683676178104e-10  6.0411813844648555e-11  2.6381272177963712e-10  1.3442290542437157e-10  6.1831141342911007e-11  1.0188240394219213e-10  2.0403307445969215e-10  2.0135367274316200e-10  1.8804215932670180e-10  1.8305125701690550e-10  3.0190716458397621e-10  6.2156451696730050e-11  7.8201911235521478e-11  1.8557045480482774e-10  1.2225535178119204e-10  3.4566052203232782e-11  3.9258912162137455e-10  6.2530730710939698e-11  5.9727722527183013e-11  1.9089877313074817e-10  9.5138676964215416e-11  2.3185517499768131e-10  2.9134452729945353e-10  1.2563473433787698e-09  7.8679064011069999e-11  1.7882168687910025e-10  9.3363429212962466e-11  3.1918799727892911e-11  8.8008551034443761e-11  5.7312100840266536e-11  8.0110657809562059e-11  2.5592737908130641e-10  4.5498897249101578e-11  6.4047618519863766e-11  9.1994416780201717e-11  9.0332946931812427e-11  9.2046268131890884e-11  2.6164713680953646e-10  8.6707175070338225e-11  1.8046224452415852e-10  2.0660872854414866e-10  1.0147474517743345e-10  1.6056027234717010e-10  3.1378356884216304e-10  1.1969243300169777e-10  6.5975336931744958e-10  1.6535582772758195e-10  1.4551171264621126e-10  1.4217255186005206e-10  2.1573249573844744e-10  4.3208161544260315e-11  3.8857015929222063e-11  7.4438294954635485e-11  4.3449855291702586e-10  2.0909886632744783e-10  6.3164805135952850e-10  4.6207350664839223e-10  1.1872446612365873e-10  5.7916482851902090e-10  3.6107394608797078e-10  1.8342995499253298e-10  6.8318434481612512e-11  9.0600404220990312e-11  1.7748511393840439e-10  1.9169342667827098e-10  4.0412251613239401e-11  4.7382938635021142e-10  2.7244815783308292e-10  2.9638151340352140e-10  5.2088492101309747e-11  3.4898252881905173e-10  2.6137272018668744e-10  6.0718198553440233e-10  7.1573975516256970e-11  5.9424551221943632e-11  2.4336490664708659e-10  7.0190045162882757e-11  4.1031394687904390e-11  1.4078109815810320e-10  2.3722509714130928e-11  6