<?xml version="1.0"?>
<VTKFile type="UnstructuredGrid"  version="0.1"  >
<UnstructuredGrid>
<Piece  NumberOfPoints="4852" NumberOfCells="9430">
<Points>
<DataArray  type="Float64"  NumberOfComponents="3"  format="ascii">-1 0 0  -1 -1 0  0 -1 0  0 0 0  1 0 0  1 1 0  -0.9999999999999999 0.9999999999999999 0  0 1 0  -0.5 1 0  -1 0.5 0  -1 -0.5 0  -0.5 -1 0  0 -0.1608775713298009 0  1 0.5 0  0.5 1 0  0.1967448868031411 0 0  -0.3418397864694032 -0.1759550566738685 0  -0.3384385878780019 0.2255524942286617 0  0.1745554830844203 0.3474676267160222 0  -0.1868337171401437 0.5561568060820875 0  -0.5063917621033418 -0.5390027785414608 0  0.4907423821131787 0.2594485885520298 0  -0.06488346795362225 0.2019335337367641 0  0 -0.5061325913258391 0  -0.25 -1 0  -0.5635162208814296 0.5789222670797891 0  0.6626078799246619 0.6369362595155481 0  -0.1750397159693726 -0.5388852539599008 0  -0.5400539120421726 0.02602877011231455 0  -1 0.25 0  -0.2070045220602636 0.02390370969702593 0  -0.6557257770670804 0.3117186799512781 0  -0.9999999999999999 -0.25 0  0.0393043778192989 0.5928430340852329 0  0.1954195817633259 0.1300694756204823 0  -0.13592638649846 -0.2208596744232682 0  0.3724937257544392 0.6159871667186338 0  1 0.25 0  0.5355652144809806 0 0  -0.7499999999999999 -1 0  -1 -0.75 0  -0.6461887736787507 -0.3242629324444232 0  0.25 1 0  -1 0.75 0  0.02757118475249542 0 0  -0.25 1 0  -0.75 1 0  1 0.75 0  0.75 1 0  0 -0.02898318711980711 0  0.05446942514775898 0.1429698556573233 0  -0.07800831892574522 -0.02803069722283645 0  -0.7023046133897892 -0.1324954269287895 0  -0.3227226024876421 -0.3480993601883638 0  -0.3422346619167897 0.4385741880138725 0  -0.1008463233083554 0.7644740071835074 0  -0.3858992682875692 0.7030545795281035 0  -0.05533565423845736 0.4000443434981809 0  -0.07957929127060585 0.07221425910102997 0  0.359490488730563 0.3717112763211008 0  -0.7186550996130454 -0.7319393021670684 0  0.4119742745933787 0.09154952206312121 0  0.6900064490491579 0.194055027445376 0  -0.7496779931292809 -0.5292966733414678 0  -0.390300310196868 -0.7110100743009437 0  0.7214340921160691 0.4223963415642245 0  -0.7768724397302615 0.09836549660199405 0  0.1980424609264186 0.6998095485124993 0  -0.2001636871464419 0.2895755478406407 0  -0.7998110111620839 0.5789597456370682 0  -0.7182248842370225 0.7672511880711443 0  -0.04948738126456453 -0.3750404150290295 0  0.5863841887167843 0.8179132365125347 0  0.8212472057874647 0.8077672737989616 0  -0.1038839063859594 -0.6963185833765779 0  -0.5157949628532734 0.1642881367538676 0  -0.2029014971495124 0.1261747742391804 0  -0.3605024569370591 0.0760023074081269 0  -0.3663114006860374 -0.05223086452916686 0  -0.4986553344604754 0.3969171153257287 0  0.375 1 0  1 0.125 0  -0.0117284107484642 0.07167158107019699 0  0.06239965953549002 0.3931916624067143 0  -0.1720668926140504 -0.1225526897904825 0  -0.2451427893775747 0.7739015575891784 0  -0.625 1 0  0.5340789100085327 0.4572267416867999 0  -0.5789482782266868 -0.8305440821694842 0  -0.2575080017750062 -0.7829618808147111 0  -0.3210604200462384 -0.5093817120129099 0  0.8339670376368301 0.5983336293398224 0  -0.5507481967623704 0.7913742315212767 0  0.125 1 0  -0.06769750344345608 -0.09351958602404217 0  -0.4960622754796068 -0.1433687430471569 0  -0.8749999999999999 -1 0  0.0297620297224942 0.04179605741516089 0  1 0.3750000000000001 0  -0.8750000000000001 1 0  0.05783136825134481 0.7948626427240227 0  -0.1950073801843932 -0.3752779035959888 0  -0.07384812010731542 0.5724078349374776 0  0.2374064697873062 0.5195257085075013 0  -0.7926921051456831 0.2310617864424751 0  -0.4971296144280026 -0.3902245715302284 0  7.787278567287844e-05 0.2721983157360065 0  0.5115670715996106 0.6423102723833357 0  0.4004782972396012 0.8083037116355091 0  -0.8066775683804077 0.4262446895945332 0  -0.0632075763451287 -0.2216811588538914 0  -0.7105838713273266 -0.01357858159530809 0  0.09068221150157235 0.05297568308276766 0  -0.4798366662330232 -0.2518088503628683 0  0.7239213877920148 0.08404145366616877 0  -0.8097782091273112 -0.4128813570272366 0  0.3377137676200711 0.1553298055068432 0  -0.7956967131374396 -0.2518353929780202 0  0.2367541118302847 0.2557561923258048 0  -1 -0.875 0  -1 0.875 0  0.1844568742720644 0.04890915779008282 0  -0.2482021098111112 -0.2295694071155317 0  -1 0.375 0  -0.1717320577234852 -0.0419051292430487 0  -0.650149219045393 0.4694740755714096 0  0 -0.07736776745332727 0  0.08080741825920379 0.2610510119284206 0  -0.375 0.9999999999999999 0  -0.218805870653435 0.4260471369065578 0  -0.1209703801867897 0.1508313570408094 0  0.1340691417765185 0.5553648529783859 0  0.1323902746888029 0.1949012553877474 0  -0.4761729874201455 0.2713276631446657 0  -0.04661582798266002 0.01384349772209842 0  0.8506815967112827 0.373212489883196 0  -1 -0.125 0  0.2868126872418691 0.8376863785654315 0  -0.1117110678880279 0.3142526520473537 0  -0.125 -1 0  0 -0.7575037395175259 0  0.07821397079968176 0 0  -1 -0.375 0  -0.3750000000000001 -1 0  -0.625 -1 0  0.7474787146812756 0 0  0.625 1 0  0 -0.2918843213980812 0  -1 0.625 0  -1 0.125 0  -1 -0.625 0  0.3284075310660084 0 0  0.004929205892015135 0 0  -0.125 1 0  0 -0.006571003003944568 0  0.9999999999999999 0.625 0  1 0.8750000000000001 0  0.8749999999999999 1 0  -0.5657594805001273 -0.6779405539762143 0  -0.004673215177667199 0.1610613571074225 0  0.3625857293473187 0.26488908952366 0  0.6529927099632726 0.2969903762195014 0  -0.8556448697806144 -0.648355115894547 0  -0.8644233710087564 0.787818378371948 0  0.4315617023766799 0.5036128226374214 0  -0.4003140147689186 0.8565833850241453 0  -0.7804165840061293 -0.8758565158681745 0  -0.8715589359581635 -0.7857344727555069 0  0.1551405065788881 0.8430013938937642 0  -0.6595508599165056 0.1546338451386536 0  -0.5785180543684816 -0.06399553335979676 0  -0.8551002715517706 -0.06236215656773898 0  -0.2983596425241391 0.563430210741064 0  -0.4263254459965335 0.5714874132667365 0  -0.3779432408159658 0.3325775869893988 0  -0.6189842460268805 -0.2169647303442927 0  -0.273804597261384 -0.09011411545647481 0  -0.6425160966529055 -0.5910445401555833 0  0.8592562454382672 0.2682416128203128 0  -0.03284251316934888 -0.03312622696266622 0  -0.05514584176457285 0.1151562838230054 0  -0.1352000825638454 0.4333836237629321 0  -0.1204803349822587 0.03245985754455149 0  0.5379632257307942 0.06589230235308638 0  0.579553763463636 0.3625495233911815 0  0.692961554584664 0.7769428872428316 0  -0.7942395128695139 0.882002667037813 0  -0.6450259368437024 -0.4309621853411055 0  -0.1137564301048343 -0.3994152005850448 0  0.8714764867893843 0.4916887118477059 0  0.07623150064869763 0.09448583566663399 0  -0.6658970717826272 0.8691945580107655 0  0.4551350409582092 0.3533331513693383 0  -0.02657264495009576 0.03600307000793319 0  -0.4111518603998855 -0.4413760719292799 0  -0.3631828775055872 -0.2692982106539279 0  0.3245023366337377 0.4838240924506345 0  -0.1972908166245441 0.2023876666802818 0  0.7059425171837173 0.5345837265354775 0  0.262421126803342 0.3578655941741666 0  -0.3787842210781226 -0.8512986236945937 0  0.1097922299688962 0.6830260745737053 0  -0.285452216494899 -0.6127448475770504 0  -0.4443445146933349 -0.6211875585763205 0  0.2978950727877841 0.6937421909536335 0  -0.8750966226328559 -0.1751394318570587 0  -0.181391427013395 0.8560909182640545 0  0.4549120020531768 0.1656570373969216 0  0.2803963149308989 0.04746894389737451 0  -0.1438251665913887 0.6580189765021859 0  -0.01171775138877925 0.7092063298701161 0  -0.0535363334019747 0.8761340672545811 0  0.005402343109807669 0.4712791287160107 0  -0.3892169505352598 0.1547581204248862 0  0.5494170868224995 0.135330209548158 0  -0.4785530412624694 0.6832915844986523 0  -0.8519291103133986 0.3343622384282205 0  -0.08924991439823941 -0.5371572931744673 0  -0.02956558223607981 -0.5526655710859566 0  -0.2135599836905558 -0.2887333730043629 0  0.8682140157750161 0.1529730032351006 0  -0.1678369236002273 -0.6610451036305385 0  -0.8891447440626873 -0.5299596651774914 0  -0.2836804260978902 0.3398344293689596 0  -0.67782547304112 0.5759460369921746 0  -0.8980681224603734 0.5325339651216067 0  -0.8991732975015734 0.6618720386666548 0  -0.6453099067556253 0.07365036648822403 0  -0.859571296674569 0.02923588733755644 0  -0.8883485853155823 0.1688071649688397 0  -0.1311972268084408 0.2299685925272806 0  0.1610570287426923 0.4480549736039539 0  -0.04366585920081959 -0.1259767644531871 0  -0.7548279278540962 0.6713600541611394 0  -0.6045694487689858 0.6990151624735979 0  -0.255492181261292 0.07906176704394803 0  -0.2517239440476834 0.649439308181741 0  -0.02754099789624077 -0.006618549060492571 0  -0.4960604970828079 0.8778486151790021 0  -0.479548189213631 0.4925619998475938 0  -0.2917879822812911 0.1449608916384653 0  0.002491399725211191 0.02380814771741989 0  0.7802786720835703 0.686753476977163 0  -0.4728950972265353 -0.8246487740658505 0  0.2722784817348336 0.1967697315525792 0  -0.1477885135213376 -0.8623455090878283 0  -0.06531555589391976 -0.829189473957884 0  0.445158505466559 0.7077749156312171 0  -0.1152626802062824 -0.2901604628249546 0  -0.2659144125301729 -0.02611731564926278 0  -0.8944558915643337 -0.8971901663387518 0  -0.5743540996683049 0.2393991834634191 0  -0.477539054689205 0.08861018594413171 0  0.4928615117326104 0.8269894187297343 0  -0.0269454353282119 -0.2607904804493187 0  -0.3117851417464106 0.8763004795311433 0  -0.1438906012187607 0.08086419711617408 0  -0.4707278454783261 -0.03464911445468176 0  -0.389390053846474 0.01255338119374455 0  -0.2928694247336709 0.02787972555296355 0  -0.3862480476091231 -0.1205244462100501 0  0.8884105728812345 0.700213198383476 0  0.7934285766922834 0.9115707606060292 0  0.5767658530591151 0.2106300613299868 0  -0.5618570342585708 -0.4711089553429917 0  0.600641634658397 0.708341391174569 0  0.6794459557543867 0.889281706202118 0  -0.05161577912864901 0.3044898591207401 0  -0.902614561385938 0.9050303641049274 0  -0.12801505558021 -0.06730200623252428 0  -0.1694781686075054 -0.18305
[...]
<PointData  Scalars="w"> 
<DataArray  type="Float64"  Name="w"  format="ascii">1.7306281821456851e-10  1.0279349410364510e-11  4.4699509367318661e-10  2.5679930627923507e-09  6.2628278993118080e-10  1.5664712815826644e-12  8.6392682548882493e-12  7.2296082568624657e-11  3.8121688274496363e-11  2.0729876613817680e-11  1.0855137147977326e-10  9.4880899770771310e-11  4.0520656415066609e-10  2.6537354145455118e-10  8.8995794262624909e-12  5.5335978786264143e-10  9.1906374261026326e-11  7.1803889333446576e-11  1.3069117185717643e-10  3.4965244164888114e-10  6.6412846090053972e-11  1.0335704708141654e-10  5.8215599004509748e-10  9.7324963479172948e-08  6.0205010838388438e-10  1.0378792144267074e-10  8.5495311332735459e-11  1.6961413431679365e-10  7.6095146264817818e-11  1.9081716247528879e-11  4.7262653252382679e-10  9.4880127234075016e-11  2.4416820692353537e-10  1.7913211058461561e-10  4.5767374448559749e-10  2.3346483432102060e-10  7.6939420386792132e-11  4.6493179995789756e-10  5.9956452422293344e-10  3.0157421228461042e-11  5.0083418723444156e-11  1.1046509416674068e-10  9.0321478622431818e-11  1.8740228506321590e-11  1.0699474676870915e-09  8.3145557839646502e-11  3.0522215599232461e-11  9.1380304203157310e-11  1.2825945491919462e-12  5.9399479648342589e-10  2.2276548539530185e-10  2.1473283616068164e-10  8.5090117462290083e-11  2.6045049259941846e-10  2.5251325078703582e-10  2.1489579705085150e-10  3.4842887709517597e-10  9.0665704820409012e-11  5.8573650206652672e-10  2.5179104936989309e-10  3.0052087493010655e-11  3.2028335039069352e-10  3.7696817378955676e-10  1.3470518322057692e-10  5.3636715888997331e-11  1.7491480782565719e-10  6.8518009927061011e-11  1.8397603198175380e-10  2.3636840316881916e-10  4.4718007772298143e-11  6.3876621176764204e-11  4.1564829766849196e-10  5.4367621189809799e-11  8.3967181083649741e-11  1.6857955214073602e-10  1.6979878283958515e-10  2.5777811645632947e-10  2.8857592825121736e-10  1.8470800276725112e-10  1.9615432405143040e-10  6.3373357431471033e-11  2.5167213446322060e-10  2.7007664864014126e-10  2.0045377017845177e-10  2.3505525369544500e-10  1.2828493442364527e-10  4.3503636749982060e-11  1.0798248428449372e-10  9.1905711405038275e-11  2.6441418382782862e-10  7.0723314711865667e-11  9.5421292405095201e-11  7.6811502988698941e-11  9.1614527727816088e-11  3.9256370398215896e-10  2.0943703164153430e-10  2.4396924989547474e-11  6.5748954136217652e-10  2.5562259677691824e-10  3.0533389646090247e-11  2.7640660768993630e-10  4.2527049601333006e-10  7.0864063045868924e-11  9.5736057927125449e-11  1.5010772484667505e-10  6.1543606551225227e-11  2.7710345690910343e-10  8.2076390264460821e-11  1.4278587732279371e-10  6.4854251607006271e-11  3.1755772553356250e-10  2.5273305019921441e-10  2.3498776421014809e-10  6.5320985157272265e-10  1.2220010673010963e-09  1.3439349525104732e-10  1.6862736205646431e-10  9.6941756252473588e-11  4.5551513938490561e-10  2.5171539294376211e-11  2.5064515979001346e-11  2.8116415171932181e-10  9.4149136098569528e-11  5.8994577578963557e-11  5.0519363227039057e-10  5.5048634032641316e-11  6.0739311725442041e-10  1.1827024839367049e-10  7.3593546798559833e-11  8.2831452292504000e-11  3.4877468776585391e-10  1.6568115397590293e-10  4.6682153761621611e-10  1.3318065616697229e-10  6.3156203667646898e-10  4.2306675280722530e-10  1.0887828530240888e-10  5.0577398716942697e-11  1.3238518810852944e-10  2.6083710403529614e-10  4.3277778267486048e-10  6.3394559524156754e-10  9.3499835347111754e-11  1.2076130253928164e-10  6.4992160615865841e-11  6.6361174839808098e-10  8.2384810430171712e-11  3.0916473097938047e-10  1.4075475840355311e-10  1.2461267677991188e-10  1.9710414477545597e-11  2.8832094652408319e-10  1.6218491748523357e-09  5.3641823638136963e-11  9.8009289413634387e-10  7.5655627425737870e-11  2.3135361617521289e-11  2.3459520444524725e-11  1.1990653174475961e-10  5.7004733792621710e-10  4.3414380848831531e-10  1.6148247379440577e-10  1.0722309548772570e-10  1.5991973324549963e-10  1.8331517194454659e-10  5.8333339043697472e-11  7.3221675148015554e-11  1.9344665074453977e-11  5.8477181118764675e-11  2.9633611596955938e-10  9.1242823251820100e-11  1.0334120013349168e-10  8.1447522241048255e-11  9.2623737199192605e-11  5.2127874253876929e-11  9.7138905510679682e-11  4.5787244250499944e-10  5.6471049699010351e-11  1.6365162768004693e-10  1.6923467401666210e-10  4.7546190352797734e-10  2.0177950916016038e-10  2.8325669555969860e-10  1.4692165872390593e-10  1.4597441472611314e-10  1.4371141537299917e-10  2.0636252535573236e-11  3.0025541064008500e-10  6.4926480849914324e-10  2.4685971690437645e-11  2.5533422249133779e-10  8.6168591323013040e-11  1.5779034481494992e-10  1.1477763966322299e-09  1.4207962919185004e-10  1.6638551945761134e-10  2.3405426317415664e-10  2.9191830131774658e-10  1.0251587159554980e-10  2.0442519541590151e-10  4.1453136734129434e-10  2.2295543418236113e-10  2.4021043087451002e-10  1.1114111150590774e-10  1.1178228879773671e-10  1.0791096779732954e-10  7.3583974001521288e-11  2.1050305634999731e-10  8.9996259889760974e-10  7.4705879985687752e-11  1.0696488248195952e-10  8.0035981379358176e-11  9.8193836626650878e-11  1.6240910885102674e-10  3.8090916221999065e-10  7.6847273374776195e-11  8.4056739504366506e-11  7.4650761070890262e-10  8.5259542626821690e-10  3.0270680565999931e-10  2.0101645083386113e-10  7.9046499153959796e-11  7.8189206204402052e-11  3.3813010050790501e-10  5.6429647738866787e-11  8.0430245309316235e-11  4.8777343481116830e-11  9.5262152376032575e-11  3.9976901410855724e-10  8.9240025606910159e-11  1.9907154656613124e-10  1.6840773176735967e-10  9.2704896090957570e-10  5.9901890731367145e-11  1.9172878379793530e-10  1.1608368544799407e-10  1.0772596115937363e-10  7.6246361906309746e-10  7.5265182481973715e-11  8.4153879671245679e-11  1.1873580150385215e-10  1.1478221685088471e-09  3.9055686415394248e-11  7.6788553875229866e-11  2.8053896068632325e-10  2.5770341085979727e-10  3.4733132005901630e-10  1.7906676966255161e-10  2.0734875726750867e-10  4.0726662159627714e-10  2.7937822044254023e-11  1.0478749174199170e-10  1.2822518054753565e-10  3.6750716994990513e-11  2.7305328705132112e-10  4.3067633029393181e-11  3.4097854114369445e-10  1.3536143697319243e-10  1.1141374870993767e-10  1.9291146463087434e-10  5.0704705138858242e-10  7.0985442488199346e-11  2.5625033056471971e-11  1.4442909681646266e-10  8.1074982123174526e-11  5.7762369680010906e-11  7.1265002563041357e-11  1.8116335505442252e-10  4.7628358221992145e-11  2.6420723277483467e-10  2.5773368832503215e-10  1.3003878339282368e-10  1.3029098742827365e-10  1.3044667844788325e-11  7.2508109102099321e-11  1.4706556591281969e-10  1.6538062581392744e-10  5.0302938023304780e-10  3.4947410011648128e-11  8.0886680088893288e-11  3.2068846719070076e-11  2.4136084585855322e-10  1.2497982867754198e-10  1.8316160174531117e-10  7.5157774576465629e-11  8.8372535134934623e-11  1.1918979955079160e-10  2.0023540017215242e-10  2.2551611843416553e-10  2.6150307706522532e-10  4.4379337394127366e-10  2.1703277137119901e-10  2.1099172962932332e-10  1.4426458903249593e-10  8.2741766666272724e-11  1.7661799021436742e-10  1.7332889991249977e-10  6.3320749565688133e-10  1.2453237408606044e-10  6.1489441962701522e-11  4.1626115580210488e-10  1.8940522899769881e-10  2.0512759882561025e-10  1.1535384705585677e-10  3.1173869557069758e-11  4.4326396763601847e-11  9.5316447703678965e-11  7.1083197668978298e-10  2.9598956849135923e-10  1.8016311998910600e-10  1.3490075693626559e-10  3.3962594872032631e-10  6.9085346054543946e-11  1.1344926764186929e-10  3.5552341415897579e-10  2.0938628781363278e-09  9.4406316242694656e-11  2.8180072794498247e-10  6.2363720289831841e-10  1.2436494968634515e-09  1.9799337679869829e-10  1.5539433955868657e-09  4.2082072725538060e-10  2.2644903627161795e-10  1.1986362208406272e-10  4.1194764811992787e-11  6.2355264505294378e-11  1.2867138113191979e-10  1.5472781259705012e-10  6.1665851306753127e-11  9.8200344332180146e-11  1.0947389035876066e-10  1.2204014435440063e-10  1.9161361039266401e-10  5.0489102032048130e-10  3.2645970299588743e-10  1.6647968771240900e-10  9.2588322311096490e-11  6.0830261590177651e-11  5.8468344972154736e-11  7.2774326519783366e-11  1.8356114424120584e-10  2.3256757218595772e-10  1.0347376510449390e-10  1.0537576049258263e-10  2.3852127262066797e-10  1.3402486574089306e-10  6.7410588172874589e-11  5.7662942019862425e-11  1.0605027348654156e-10  3.3783566550182540e-11  1.8969444940321523e-10  3.2074369520658659e-11  1.6067150628347382e-10  1.7883439540159275e-10  1.5803268095110971e-10  3.8106868109274857e-10  7.8954924468172590e-11  7.9807613877744475e-11  1.4266240934975646e-10  3.1928175231507654e-10  1.5288259930787357e-10  2.6244929563117874e-10  1.0960507936185589e-10  1.3653125639960363e-10  1.6264310149416888e-10  2.9155827668502682e-10  1.2820810926688538e-10  3.3023014689259336e-11  1.1489392623658850e-10  1.1469505706768622e-10  1.4117109385136698e-10  2.4554645137134091e-10  1.6629916104332727e-10  3.4345815013032713e-11  1.2630422927305131e-10  2.3117307518755714e-10  2.6950084511894781e-11  3.3256400058348599e-10  1.6519528213015476e-10  3.8970325535310539e-10  1.1793274786636329e-10  2.4720943322773895e-10  3.2457434067754503e-10  7.3001879439488051e-11  1.0353078253467528e-10  2.1556370839641188e-10  6.9479989558079542e-11  4.9761002484977584e-10  1.6027837277206139e-10  9.5219569611488704e-11  1.0660656016141787e-10  2.0563891698055646e-10  5.5368832886224676e-10  4.8141638313673607e-10  1.7542180709031340e-10  1.7522364526819180e-10  2.0579311820695009e-10  3.9136399685432562e-10  4.3585127146505176e-11  2.2285525587858275e-10  7.3811102616367848e-11  1.2552291951408443e-09  1.1436554850411036e-10  4.5912529759365947e-11  5.6603013306269300e-10  3.4391693733502616e-10  2.5275402487263809e-10  2.1656989061199178e-10  6.3891514948295125e-11  1.5236159292111896e-10  3.2333944109287951e-11  4.4544387932196132e-10  7.9309425401538898e-11  1.3034862818785564e-10  1.2854111306881648e-10  6.4046617127878329e-11  3.4404059972928505e-10  4.2282906665453883e-11  1.1459146387961873e-10  2.5343408798639304e-10  1.8167386755092213e-10  7.2816961603388997e-10  9.0075612351714522e-11  5.8247545459103566e-10  1.4029764719303946e-10  3.5926163608248722e-10  5.7891285386379052e-10  2.4611556469846094e-10  1.5437308826745384e-10  2.7737396282419666e-10  4.8188704291818704e-10  3.4620050365841637e-10  7.4671277655558982e-11  5.2216640511768665e-11  1.6520260243223899e-10  3.5952311975535834e-10  1.8881712476386275e-10  1.2221947200218383e-10  1.6410651155055453e-10  7.7226285044252388e-11  6.9770525644164363e-11  2.0353972585173962e-10  5.6273529622694720e-11  2.0747193467408447e-10  9.0999124789444847e-11  4.9194666626547454e-10  5.0570395752445324e-10  8.1960945148508947e-11  4.1450289106889004e-11  4.1518898071830875e-10  6.6633892293444374e-10  2.6024936511443095e-10  1.0068350769687865e-09  2.9183252245547538e-10  3.2092164897543566e-10  2.7478121663826077e-10  2.6990622976577126e-10  9.8468295394854331e-11  2.9730661432497442e-11  1.9702741926594038e-10  9.6033642128459571e-11  2.0864786833625764e-10  7.6267539513661395e-11  1.2073507114116312e-10  2.1143129356659675e-09  1.7864024379775809e-10  7.9577072459505177e-11  8.0193691937426858e-11  4.0382295326580053e-10  2.4707325664110279e-10  1.9284485813283681e-10  2.0822639076479802e-10  4.3504986706946906e-11  7.6792325805224062e-10  2.4570400940558281e-10  5.3683538586478155e-10  2.5072759621721500e-10  2.3352588955677146e-10  3.1004761362108362e-10  9.4147457909197565e-11  3.2251958794575813e-11  3.5460652653120235e-11  3.7632285444829897e-10  3.3917878095431220e-11  1.0954624936300137e-10  1.0385911748904579e-09  7.5509515565008836e-11  3.3485961152137895e-10  2.5859268996956789e-10  6.1525530741093016e-11  5.5691946037056447e-11  1.7974866726918268e-10  2.4885443629341169e-10  4.5478910923887582e-11  1.1317406113975587e-10  1.5666275364574905e-10  7.2674394638017560e-11  1.6990453571325180e-10  2.1548958683813305e-09  3.3165954591894654e-10  3.2193534723097567e-10  1.0484425605057819e-10  1.0327114431730797e-10  1.8185557893693611e-10  7.6278972977279781e-11  1.3756264438130425e-10  4.9485362204914372e-10  8.6346881449929870e-11  2.4018636551472649e-10  2.1858067276200742e-10  1.3811275065458307e-10  4.8228986209383622e-11  7.3524997790465197e-11  5.2108445635314236e-11  3.7007232313044191e-10  1.0483130720336416e-10  2.2019664420957983e-11  5.7914193393833381e-10  2.9601842423486602e-11  6.2710503925572682e-10  1.1552348291249755e-11  6.6451736452375226e-10  1.8151488606133662e-10  2.6045188151650637e-10  1.0239861348770355e-10  2.8197274214932368e-11  8.2629152665843459e-11  2.7059213855124641e-11  2.0785633082690721e-10  3.7493736009030721e-10  2.7093259062222725e-10  3.1909378730724949e-10  1.3207817844432670e-10  8.8308453169655747e-11  6.0056619526693184e-11  3.6762683645958745e-10  4.9465291553708031e-10  1.0853194274406682e-10  1.0056906189305613e-10  1.4596846344284550e-10  7.3050051830622000e-11  4.3232476656987591e-11  5.1771320978969714e-11  3.0636640534957060e-11  8.7190004089395038e-12  1.7520087645371555e-11  9.3905111744057689e-11  2.2225204806116910e-12  1.0870022020870706e-11  1.8600637166196038e-10  3.5206327183506447e-09  2.0794599192533356e-10  3.9305950638023651e-11  2.1996733683582067e-10  9.0117590993804708e-11  1.1074900217241045e-10  4.1924590601749684e-11  1.6480075255994110e-11  8.3864822199759581e-11  7.6077242667932936e-10  7.7290074812105210e-11  1.8621975868378966e-10  3.2335647602068744e-10  5.0586356613350473e-10  9.6672381064095911e-11  1.0150099876915219e-10  5.7543033666775547e-11  7.6896367733376202e-11  1.0701744613163959e-10  5.5869479677157508e-11  5.9236855279462851e-10  5.7580669443636467e-11  2.8315909184975293e-10  8.6583126269825458e-11  1.2765282185464406e-10  3.1713273211381744e-10  4.1569361993194674e-11  6.0757201674136908e-11  2.6766510555408495e-10  1.1703104237041729e-11  1.1306504140153006e-10  8.4667748445923034e-11  7.5346789179591695e-11  5.7590624389219366e-10  1.6172414569859296e-09  2.7974155946123491e-10  2.8732847576677472e-10  8.9837682444542141e-11  6.7117677285232432e-11  2.4952787744500668e-10  1.1308631386761716e-10  9.4726694565623515e-11  9.9235194949228232e-11  2.0154456940300111e-10  7.1862967247259185e-11  4.9654075882008074e-11  6.6989327126849748e-11  3.7932468746100118e-11  8.2375281218422754e-11  1.9171795280245853e-10  1.6370093139951078e-10  1.1236515041195242e-10  2.7278115015090134e-10  4.6246785063704501e-11  1.3524662713871526e-10  5.3520329783466479e-10  6.5334739703421776e-11  1.1286049820960348e-10  1.2641404546571429e-09  5.8922941747493948e-11  3.4723050538928435e-10  5.2114670853925945e-10  1.6097733203547119e-10  1.2615087453157413e-10  1.2672198475156515e-10  8.4353507757853119e-11  2.4729873243099799e-10  2.8837745265692037e-10  1.7922729458257748e-10  4.8192492506158881e-10  4.2702732813921670e-10  1.2091376230419509e-10  2.0907714595473035e-10  6.4036624016495438e-11  8.2911168758022152e-11  6.1418603961080714e-11  2.3479484013503095e-10  4.0507040383734375e-10  3.0987244335328246e-10  3.3590566217546757e-10  8.5169567368487408e-11  2.2848442729875670e-10  4.7948460018019230e-10  1.7818638279960730e-10  4.7030483161755782e-10  1.7787337544796839e-10  1.3693576291438067e-10  1.1194454235762831e-10  5.1076147740265752e-11  5.1634601316059315e-11  3.3525473478331260e-10  6.2125101283213218e-11  6.4131422068609161e-11  1.2532019831676867e-10  3.3037920517047926e-10  3.2167375874986802e-10  1.5608152106241190e-10  1.1713483258930910e-10  6.0778170150332680e-10  6.4591914301696807e-10  1.6385656245249389e-09  2.7132621162870240e-10  1.9672984574579347e-10  4.4391025250022686e-10  4.6877965021369219e-10  1.2094475112548345e-09  3.0173583123968511e-10  2.3757955294444977e-10  3.3213242979359238e-11  1.2460575474120983e-10  3.1422630835816432e-10  4.5277971963968752e-10  2.1166954737984375e-10  6.9377401367568133e-10  2.9739946816366048e-10  2.0814780161516489e-11  4.9626031744720946e-10  3.3203159457652454e-10  3.8701479405816579e-11  3.3437354367791632e-10  4.1557332625228565e-10  5.4550634959174737e-10  1.4745692572217942e-10  6.8479930958411218e-10  1.9848377565494329e-10  4.6548020955456891e-11  1.2646868783414131e-10  1.3132530790100660e-10  3.1496344028245456e-10  7.6745259126541938e-11  2.7007829054790975e-10  1.8142943732422959e-10  7.9155408438310725e-12  2.1780392411749928e-10  5.5692471618942057e-11  8.8864631870384755e-11  1.2154496094242165e-10  6.4251909881039567e-10  4.1750179424609279e-10  3.1333034613904355e-10  1.1628886477381914e-10  1.2912859317109660e-10  9.1933510648369997e-10  5.5097841876389126e-10  1.3562336019991381e-10  1.4024770357282157e-10  9.6658161381763986e-11  5.0515410669678333e-10  1.3376638239053605e-10  1.7074818944345984e-10  9.3975999678887129e-11  6.8893714990508891e-11  6.2121435945366908e-11  1.4667162632386997e-10  9.4196631914059569e-11  1.3705576708899324e-10  4.5608285162114048e-10  7.2199769152266744e-11  6.0742908297193005e-10  1.2582615666456874e-10  2.2523441180841194e-10  2.7563124484906893e-10  5.6199140554796310e-10  1.1583531256875105e-10  3.9935622583260604e-11  6.0273412543726348e-11  1.4305646980388810e-10  1.5799907487102035e-10  5.1624679838888250e-10  8.1945445258638749e-11  1.4933387185479206e-10  2.3714263426244164e-10  1.4347435284363437e-10  2.3916179783589817e-10  3.3874432185199719e-10  3.1441941602744007e-10  1.0197063976662755e-10  1.7374395788775811e-10  1.5246998325131873e-10  2.2923554118655607e-10  4.2965960778592139e-10  3.7371025756635214e-10  2.0133577511857841e-10  2.0346192418631415e-10  1.1964702174887990e-10  1.6907405302095318e-10  3.0043956403308720e-10  3.8383136498399549e-10  3.6631448609726358e-10  1.6574950685500292e-10  2.2372148986452958e-10  2.0225780956534704e-10  1.5049534187869490e-10  3.9355985795429852e-10  3.0367360241189764e-11  1.0327023112106343e-10  1.2981819026560596e-10  2.9059886192681447e-07  4.1592857787624155e-10  1.7096324810046399e-10  6.1551012174874834e-11  2.5940070854469081e-10  1.3800369421005935e-10  6.3499766725682599e-11  1.0224133867055577e-10  2.0377350515981144e-10  2.0243142896185843e-10  1.8774592848577766e-10  1.9059158366420155e-10  3.0768788337525012e-10  6.2904334976045999e-11  7.9635701289521553e-11  1.8982127096153573e-10  1.2542887778683926e-10  3.3983563709610896e-11  4.0282784215781440e-10  6.4527860437104015e-11  5.9529451229382380e-11  1.9044026960461090e-10  9.6685830056318645e-11  2.3441028313119246e-10  2.9615646206500794e-10  1.3177369568259753e-10  8.0375610384323244e-11  1.8190136772829498e-10  9.5260830385153843e-11  3.1136408473582759e-11  8.6706108677354803e-11  5.8222246463408213e-11  7.8231818158028669e-11  2.2317197002238188e-10  4.5780437979882997e-11  6.4557701083096747e-11  9.1382412431943604e-11  8.9871337332463132e-11  9.3898439096278877e-11  2.4749854418744948e-10  8.9038910321737393e-11  1.9084712380888365e-10  2.1511692744128537e-10  1.0666521648637096e-10  1.6167963871098809e-10  3.1741471948580326e-10  1.2276988130696392e-10  6.2043600411792300e-10  1.7237905661489179e-10  1.4730481012554290e-10  1.3887508778103156e-10  2.2202197277890599e-10  4.2968317867907566e-11  3.8284079385847811e-11  7.5437127824530458e-11  4.5351387145529286e-10  2.0030885525213597e-10  6.5046166176735182e-10  4.5243833238170155e-10  1.2261723699376997e-10  5.5093717178195701e-10  3.5931934714747743e-10  1.8671470098220180e-10  6.9717019316461890e-11  9.4304855911011120e-11  1.7618759454947505e-10  1.8865109583188813e-10  4.0295856712503373e-11  4.9465830811913826e-10  2.9114820664016566e-10  3.0552282643961311e-10  5.0712303390486069e-11  3.6212697479125625e-10  2.5353418564022087e-10  5.9229109585542898e-10  7.3141054703769834e-11  5.8651389921817538e-11  2.4190628854534588e-10  7.1129559378701794e-11  4.0820679460920610e-11  1.4262452810406141e-10  2.3551255805438790e-11  6