<?xml version="1.0"?>
<VTKFile type="UnstructuredGrid"  version="0.1"  >
<UnstructuredGrid>
<Piece  NumberOfPoints="4852" NumberOfCells="9430">
<Points>
<DataArray  type="Float64"  NumberOfComponents="3"  format="ascii">-1 0 0  -1 -1 0  0 -1 0  0 0 0  1 0 0  1 1 0  -1 1 0  0 1 0  -0.5 1 0  -1 0.5 0  -1 -0.5 0  -0.5 -1 0  0 -0.1608775713298009 0  1 0.5 0  0.4999999999999999 0.9999999999999999 0  0.1967448868031411 0 0  -0.3405884387581357 -0.175549377420164 0  -0.3365713007364035 0.2239959159527662 0  0.1738159861923104 0.3458284178335826 0  -0.1848676969309648 0.5546943899422472 0  -0.5037788923462745 -0.5372264780863453 0  0.490426961333952 0.2566765921287043 0  -0.06436014452429888 0.2009089871893674 0  0 -0.5061325913258391 0  -0.25 -1 0  -0.5609890086351623 0.5771031527539863 0  0.661412196090896 0.6335335928729749 0  -0.1765023303828975 -0.5375266754803919 0  -0.5386531626642242 0.02535444905835326 0  -1 0.25 0  -0.206015952732709 0.02376306838560432 0  -0.6542652847338484 0.3090929605023552 0  -1 -0.25 0  0.03915375917153384 0.5914104814351918 0  0.1950223511577218 0.1286936937810043 0  -0.1365232041742507 -0.2196695119381033 0  0.3709603806654875 0.6140477408762185 0  1 0.25 0  0.5355652144809806 0 0  -0.75 -1 0  -1 -0.7500000000000001 0  -0.6449284438564964 -0.3228669643108424 0  0.25 1 0  -1 0.7500000000000001 0  0.02757118475249542 0 0  -0.25 0.9999999999999999 0  -0.75 1 0  1 0.75 0  0.75 1 0  0 -0.02898318711980711 0  0.05415813784712236 0.1421914479583098 0  -0.07768252450404979 -0.02775220658293969 0  -0.7009717505398929 -0.1323301889465504 0  -0.3217080167217523 -0.3469642144699436 0  -0.3399011745483508 0.4370038764043435 0  -0.09986532267863389 0.764004392638463 0  -0.3829471041235526 0.7023328213500879 0  -0.05479873327566136 0.3986340592504358 0  -0.07891487614558756 0.07195873081798747 0  0.3587904464557621 0.3691296393106606 0  -0.7159320334969392 -0.7298476221337599 0  0.4117871455727306 0.08974070237088071 0  0.6899587133678696 0.1913522751559834 0  -0.7473950677918594 -0.5268510652387155 0  -0.3875417440193178 -0.7103920615376903 0  0.7215779697534943 0.4182327961733324 0  -0.7758629565310687 0.09690138962390328 0  0.196662844946553 0.6983711675057389 0  -0.1985319182616654 0.2882163864482414 0  -0.7986934735968226 0.5771772649300596 0  -0.7164829854935201 0.7661459519211623 0  -0.05337307273815581 -0.373179819214366 0  0.5846390016762851 0.8162740093156399 0  0.820266145836352 0.8057437364331782 0  -0.1060424913187182 -0.6970755561809658 0  -0.5142241309947404 0.1624537354901124 0  -0.2016919637441091 0.125491397213852 0  -0.3589456751648117 0.07519732120040551 0  -0.3649205482771887 -0.05232330158823876 0  -0.4963348701764757 0.3947123583142546 0  0.375 1 0  1 0.125 0  -0.01191293100816479 0.07125888691622609 0  0.06206502987014133 0.3915680944121709 0  -0.1713388895575678 -0.1222515838494348 0  -0.2427368365895286 0.7734665254294357 0  -0.625 1 0  0.5332920472339653 0.4538059145522619 0  -0.5759711621388074 -0.8299423362894767 0  -0.2573843787168631 -0.783363857063594 0  -0.3197730769508557 -0.5081497218168466 0  0.8339225101641841 0.5950789103041231 0  -0.5484074493348305 0.7905916083791406 0  0.125 1 0  -0.06744145552675385 -0.09337102520952684 0  -0.4943684565759377 -0.143130032902941 0  -0.8750000000000001 -1 0  0.02952180819841375 0.04163568522505383 0  1 0.375 0  -0.875 1 0  0.05733235526841066 0.7937842124087411 0  -0.1963459060363155 -0.3733899540998819 0  -0.07276497640828281 0.5708229201749876 0  0.2363312196071448 0.5175757374856018 0  -0.7921005078160097 0.2292266236650271 0  -0.4951100172250809 -0.3888006792858164 0  7.390764537211465e-05 0.2709577701493928 0  0.5098109839087086 0.639802560131823 0  0.3987991034350711 0.807089995238478 0  -0.8059642319263267 0.424199048377874 0  -0.06458456118063814 -0.2203652921911068 0  -0.709426379650693 -0.01418396334181652 0  0.09048428233824009 0.05246629136778998 0  -0.4780620910046263 -0.2510451635101589 0  0.7238565959816761 0.08274279186176808 0  -0.8085336324508881 -0.410953817002512 0  0.3374400834265782 0.1533376133495306 0  -0.7944208983548918 -0.250719581416419 0  0.2362035299382516 0.2540692945088552 0  -1 -0.8750000000000001 0  -1 0.875 0  0.1842740196037332 0.04784190570165189 0  -0.2475392894386508 -0.228833875907929 0  -1 0.375 0  -0.1709680148910619 -0.04170618048258263 0  -0.6485037181393336 0.4671822076793027 0  0 -0.07736776745332727 0  0.08033592215988423 0.2597247557327381 0  -0.375 1 0  -0.2166761340531918 0.424504938694334 0  -0.1200124168196208 0.150070910679953 0  0.1331518858246344 0.5538777035840734 0  0.1318518246730194 0.1936449136464145 0  -0.4744513192244449 0.2692400892356634 0  -0.04619733721343498 0.01396683549117942 0  0.8514472377425559 0.3699702717649394 0  -1 -0.125 0  0.2855448205103586 0.8367120200684722 0  -0.1106786148798024 0.3128493461940125 0  -0.125 -1 0  0 -0.7575037395175259 0  0.07821397079968176 0 0  -1 -0.375 0  -0.375 -1 0  -0.625 -1 0  0.7474787146812756 0 0  0.625 1 0  0 -0.2918843213980812 0  -1 0.625 0  -1 0.125 0  -1 -0.625 0  0.3284075310660084 0 0  0.004929205892015135 0 0  -0.125 1 0  0 -0.006571003003944568 0  1 0.625 0  1 0.8749999999999999 0  0.875 1 0  -0.5625892449577965 -0.6762307291271843 0  -0.004747472854703758 0.1602006472459208 0  0.3622584642974631 0.2627639667778395 0  0.6529573345840974 0.2935716758407211 0  -0.8546166941568545 -0.6464764828393751 0  -0.8633676525754717 0.7869439588351353 0  0.4303659514318431 0.5010166094098816 0  -0.3983894521924207 0.8557517716202653 0  -0.7786743978250664 -0.8747752785091162 0  -0.8704250330432824 -0.7842804812563925 0  0.1541324777378877 0.8421010156678651 0  -0.6583301493297593 0.1525500575843139 0  -0.5774111755806217 -0.06411646975432571 0  -0.8544819464938842 -0.06255669634456293 0  -0.2957076196866135 0.5619719253337405 0  -0.4234333437944994 0.5697243715021705 0  -0.3758012781920179 0.3307926424486421 0  -0.6181697215191692 -0.2162346812551445 0  -0.2727263646834904 -0.08993665897861901 0  -0.6399669166398561 -0.5884152897210241 0  0.8597276854063951 0.2658796145660647 0  -0.03282080087353919 -0.03290500283270592 0  -0.05478270612356788 0.1145827799558074 0  -0.1336166212522711 0.4318389298946603 0  -0.1197592418687894 0.03240954934012485 0  0.537746770419781 0.06451457297218344 0  0.5791725865338568 0.3589593958934086 0  0.6913115783606723 0.7746033681297154 0  -0.7932739198330837 0.8811379992088869 0  -0.6432024078148894 -0.4290186573885433 0  -0.1173507658051395 -0.3968430992367482 0  0.8721928677496851 0.4885394735693873 0  0.07590288089658163 0.09387213402955157 0  -0.6644786066761826 0.8681316796761602 0  0.4545382459459653 0.3503160508970586 0  -0.0263366996669132 0.03588216077203441 0  -0.409166001237352 -0.4399905369257262 0  -0.3618627749291864 -0.2685281651863409 0  0.3234064588748053 0.4815329620784364 0  -0.1959575202191074 0.2013864828907981 0  0.7055980517480129 0.5306240335814465 0  0.261666490575827 0.3558693345033844 0  -0.3766035259726865 -0.851678770783405 0  0.1091385463887529 0.6818838580697006 0  -0.2847677243912904 -0.6117899791318638 0  -0.4412900410933122 -0.6198898074369485 0  0.2961482278771493 0.6921456999768896 0  -0.8748330067877401 -0.174738202577326 0  -0.1799928213573584 0.8549477664824845 0  0.4546794608222975 0.1631920449296837 0  0.2802467179765942 0.04664661378911924 0  -0.1422168718700739 0.6573312593624543 0  -0.01133232122131148 0.7085198274927424 0  -0.05331311556788647 0.8750220769146353 0  0.005398513444313541 0.4697134705236252 0  -0.3875154467205432 0.1533525339864799 0  0.549128176311654 0.1330584224200557 0  -0.4756838376455936 0.682255324118286 0  -0.8514256547263227 0.3326900069165824 0  -0.09235682327397526 -0.5360405297742581 0  -0.03056983424985053 -0.5519269874618075 0  -0.2138739849098768 -0.2873949302307311 0  0.868518479910923 0.1514469826687191 0  -0.1696225635417621 -0.6608291422085266 0  -0.8891559857492141 -0.5283975455394168 0  -0.2815631171019407 0.3381671008394748 0  -0.6760471359516582 0.5739672217592535 0  -0.897439871692122 0.5313202090864966 0  -0.8983668743206836 0.6608269055548404 0  -0.6442341633875667 0.0722952046327435 0  -0.859057639107582 0.02853052171568712 0  -0.8880812264368446 0.1678524399900966 0  -0.1301145011483122 0.2289043051077131 0  0.1602431017269314 0.4460817215364849 0  -0.04357357203664702 -0.1257611551681208 0  -0.7532704694833317 0.6699162309624036 0  -0.6022266717406947 0.6978129307007802 0  -0.2543133602860431 0.07849372888283619 0  -0.2491811404884841 0.6486675837456567 0  -0.02743683751711391 -0.006320706784129011 0  -0.4942703247199592 0.8770130368817304 0  -0.4767035420981623 0.4904039744229188 0  -0.2903381879495835 0.1439622255529332 0  0.002237405051610594 0.02365913109803329 0  0.7794635895451443 0.6835320733658298 0  -0.4699073269121862 -0.8245986103029055 0  0.2718438954239908 0.1948880894788249 0  -0.1487590950727094 -0.8630660266436874 0  -0.06580897224047079 -0.8296503238341579 0  0.4433150715699067 0.7058122235569384 0  -0.1178656824610997 -0.2880081071930875 0  -0.2648209790078089 -0.02614349459140395 0  -0.8937719956478908 -0.8964864001124949 0  -0.5727688612232655 0.2370422124611581 0  -0.4760122916349906 0.08748268073003604 0  0.4911699377690912 0.8256820555317188 0  -0.02871787320511176 -0.2599864204402256 0  -0.3099962654530675 0.8753880178154365 0  -0.1430157789351632 0.08053641056207413 0  -0.4691915579571578 -0.03490154097048175 0  -0.3878633607302597 0.01209702336186993 0  -0.2916316593126936 0.02754723506942301 0  -0.3848433516369832 -0.1203383221422819 0  0.8881270321495981 0.6980213611357593 0  0.7925902658949757 0.9106906846467309 0  0.5765984222663703 0.2077280844998265 0  -0.5600313038142696 -0.4691877092567086 0  0.5988398096333816 0.7058038608850665 0  0.6782029683918783 0.888251713016913 0  -0.05107318765813337 0.3031017066211841 0  -0.902144779800104 0.9046259611996914 0  -0.1274876092950349 -0.06706145600914377 0  -0.1691307605001918 -0.1823831424464715 0  -0.2523685205575739 -0.143523162
[...]
<PointData  Scalars="w"> 
<DataArray  type="Float64"  Name="w"  format="ascii">1.7488194743750812e-10  1.0378750321180694e-11  4.4530743894254115e-10  2.6829611035729437e-09  6.2392986220616424e-10  1.5696392421011840e-12  8.6848517631196244e-12  7.4830367546550245e-11  4.0440431748797373e-11  2.1073972180776349e-11  1.0816504248063337e-10  9.6252687947183075e-11  4.0317996022440637e-10  2.7774981223393750e-10  9.1485665701916759e-12  5.2503028867950474e-10  9.0763134670131641e-11  7.2297603762192228e-11  1.3071052161546592e-10  3.5548914300456992e-10  6.7157412092099630e-11  1.0431102506656828e-10  5.7234454859188642e-10  2.3368961707248581e-06  5.8259956242606691e-10  1.0818525283479569e-10  8.9043265667167798e-11  1.7032552750798845e-10  7.6460992343791944e-11  1.8837532559080555e-11  4.6726278704511431e-10  9.7815430251131429e-11  2.4360298150111610e-10  1.8117756028400422e-10  4.5343148450811881e-10  2.2534869401675399e-10  7.8247863205505671e-11  4.7839769567223489e-10  5.8628142241353579e-10  3.1251191381609421e-11  5.2627771863729797e-11  1.0834001179427115e-10  9.2708211110189198e-11  1.9735337453300256e-11  1.0510546065606513e-09  8.7658528873968288e-11  3.1937884068105484e-11  9.6471576858097789e-11  1.2389863642346746e-12  5.8959557729763492e-10  2.2063487343592135e-10  2.1373073439800304e-10  8.2729786271110140e-11  2.5204067995197826e-10  2.5983270484659581e-10  2.0598943050454282e-10  3.5733256010208332e-10  8.9174762760820238e-11  5.7794587465581964e-10  2.5184336044175359e-10  3.1285653233333505e-11  3.1407438183167572e-10  3.7903888118098540e-10  1.4335269225969972e-10  5.4359464709681327e-11  1.7841922815093550e-10  7.0684381227438464e-11  1.7895142222668618e-10  2.3305710342750789e-10  4.6184123168928154e-11  6.5013402625592849e-11  4.3751249685272634e-10  5.6971699712577915e-11  8.8142061590429320e-11  1.7103973335578931e-10  1.7034576781897380e-10  2.5612770201862522e-10  2.9025255214352150e-10  1.8262050914438899e-10  1.9571643041694025e-10  6.5226980716938742e-11  2.5228952472833602e-10  2.6268544633963454e-10  2.0068358744718925e-10  2.3398053917018314e-10  1.2551112593217551e-10  4.6567104726552543e-11  1.1027479947275172e-10  9.4667962613072298e-11  2.5515752243648375e-10  6.9378513316116065e-11  9.9723750312779503e-11  7.8537307971547550e-11  9.4522747125706356e-11  3.8973582428187152e-10  2.0929034272606327e-10  2.5522624849870625e-11  6.5424331168373241e-10  2.5711939506110666e-10  3.1660924980880426e-11  2.7743787200536617e-10  4.1094520127498345e-10  7.1035758878592138e-11  9.7212588097644019e-11  1.5682139337316496e-10  6.3562725158428534e-11  2.7328663106251254e-10  8.3621272567986335e-11  1.4712668733250215e-10  6.6265252053805637e-11  3.1271820954570416e-10  2.4776377891627725e-10  2.3197673390710348e-10  6.4258671637432098e-10  1.2088455038590226e-09  1.4845181586773837e-10  1.6507528449052493e-10  1.0219744323545720e-10  4.5784487860618574e-10  2.5989979108193266e-11  2.5696811000724371e-11  2.7805244854243589e-10  9.1252428993640630e-11  6.1241396355929140e-11  5.0119586866332017e-10  5.7487499845465754e-11  5.9813946083445281e-10  1.1839523792670885e-10  7.6931019540059746e-11  8.2743562850195470e-11  3.4131833162174402e-10  1.7283479499460750e-10  4.6377801435264124e-10  1.3533075745720405e-10  6.2148657434362933e-10  4.4617662838721932e-10  1.0941626348509458e-10  5.2242921780581191e-11  1.2992066469227952e-10  2.5763220299705480e-10  3.9487744195419239e-10  6.0443293468683841e-10  9.3452995411186792e-11  1.2008608974207917e-10  6.8876631589680514e-11  6.5559082391741369e-10  8.6490164637429045e-11  3.4244983727446222e-10  1.4751085896197048e-10  1.2443733790581064e-10  2.0117139714340030e-11  2.8296310672023272e-10  1.5881956178414332e-09  5.6800182765161288e-11  9.6505355565205273e-10  7.9382766039096571e-11  2.4636083739592159e-11  2.4343228762584359e-11  1.2202324562817658e-10  5.5858290462870402e-10  4.4386413464188598e-10  1.6121399449271900e-10  1.1497604803568382e-10  1.6708838284179141e-10  1.8800765829349954e-10  5.8849958002692160e-11  7.7814190448069795e-11  2.0416461284658166e-11  6.0230999874470577e-11  2.9560311861678479e-10  9.2147925160683244e-11  1.0593726808779820e-10  8.2860306895404525e-11  9.6357144930452041e-11  5.3384054890351622e-11  9.6111365503962539e-11  4.5495381901953550e-10  5.7136990412081739e-11  1.6410416672558096e-10  1.7194288632817791e-10  4.6242514525971942e-10  1.9829924950616950e-10  2.8177518280732927e-10  1.4277085083861114e-10  1.4538842389958883e-10  1.5070404237429556e-10  2.1112595976321384e-11  2.8848248228396851e-10  6.4774481901241774e-10  2.5706340509441315e-11  2.5101017729944945e-10  8.9381793111922901e-11  1.5816695191022889e-10  1.1118354987377110e-09  1.3730355195101249e-10  1.6330127977166836e-10  2.3431872628556692e-10  2.8706751964791971e-10  1.0625661808724138e-10  2.0456362079534947e-10  4.2170705876863766e-10  2.1934505373133052e-10  2.4048328817197355e-10  1.1034294484013625e-10  1.1298782052662814e-10  1.1275408443255374e-10  7.1770634443815039e-11  2.0828539257882875e-10  8.8285299085647138e-10  7.7886898676690721e-11  1.0848096427486866e-10  7.8030756184968750e-11  9.6949021300678869e-11  1.6237496113056851e-10  3.7734131888143488e-10  7.9229613665047652e-11  8.5614336934141061e-11  7.7252840863117797e-10  5.9866751622975407e-10  2.9197993815245814e-10  1.9972505252251415e-10  7.6906761864239991e-11  8.1037585017792248e-11  3.3674437852601206e-10  5.8852558680803609e-11  8.3675492118759714e-11  5.0328211635085496e-11  9.3646819137796283e-11  4.1432169223701696e-10  9.0763653501625937e-11  1.9712616618640520e-10  1.6642423207355465e-10  9.0035426185234282e-10  6.2089118189958819e-11  1.9885684341092843e-10  1.1515212479536981e-10  1.1226823694641319e-10  7.5018857241328228e-10  7.5691421374332753e-11  8.5490422464601169e-11  1.1805005562177523e-10  1.1192196649726061e-09  4.1170061729495411e-11  7.8198376752261641e-11  2.7877755065543252e-10  2.5273730373624942e-10  3.4709886568814270e-10  1.8328530722048081e-10  2.0478847126794179e-10  4.0360357860757788e-10  2.9477691983875778e-11  1.0573218080315593e-10  1.2815904610616277e-10  3.7788819133162149e-11  2.6535907838415917e-10  4.4079946273446277e-11  3.3270990863912390e-10  1.3584414887150349e-10  1.1038202541530695e-10  1.9128202453870157e-10  5.0217718319991074e-10  7.3350460285979297e-11  2.7042468538723350e-11  1.4492745778320537e-10  8.2112586824099114e-11  5.9754721125885999e-11  7.6562392564661445e-11  1.7898375870739007e-10  4.9479850058690459e-11  2.6315710710354493e-10  2.5411527983884993e-10  1.2847617991056797e-10  1.2865306510775836e-10  1.3755735204849899e-11  7.1466539390275457e-11  1.4641875020178183e-10  1.6884863875453197e-10  4.9728553284681579e-10  3.6806037326592348e-11  8.2515717404761102e-11  3.3504207462854417e-11  2.3812462542322782e-10  1.2605630858342855e-10  1.8557365395502253e-10  7.5255322665034479e-11  8.8454885826731154e-11  1.2107488198717145e-10  2.0287814989339765e-10  2.2405156068104012e-10  2.6138186106357125e-10  4.3688621594128725e-10  2.1393944457486085e-10  2.0970575343849130e-10  1.4564396783277183e-10  8.0630153373504463e-11  1.7255050885401510e-10  1.6724813373784665e-10  6.2630943224649239e-10  1.2936215825895827e-10  6.2709905589139642e-11  4.0640011621742014e-10  1.8985755480211689e-10  2.0908099885814528e-10  1.2324012805083051e-10  3.2795934722788188e-11  4.4969468391103787e-11  9.8975054488217034e-11  6.7836792464574301e-10  2.9353955422254844e-10  1.8093943365746210e-10  1.3663463206104718e-10  3.3616907878295745e-10  6.7658722633048794e-11  1.1002121970786010e-10  3.5234996242502333e-10  1.0170225143089069e-08  9.8932446321969886e-11  2.8224396472482610e-10  6.1435332466042714e-10  1.2285321252174918e-09  1.9848703635151379e-10  1.5260925116613723e-09  4.1735721048907516e-10  2.2597522913300354e-10  1.1632219889961582e-10  4.2038319639151205e-11  6.5916782341633691e-11  1.2635295366850853e-10  1.5690917757034492e-10  6.3874921670052148e-11  9.8814676903077281e-11  1.0712365056365175e-10  1.2733346916239625e-10  1.9265765125856110e-10  4.9646070160038146e-10  3.1851735960032425e-10  1.6639324312549224e-10  9.6111040200797975e-11  6.1921606474483880e-11  5.9479188397285343e-11  7.0922403713775453e-11  1.8245987805157350e-10  2.2794973722625191e-10  1.0626815303236730e-10  1.0609656558162097e-10  2.3920461705791302e-10  1.3707331857929913e-10  7.0059551158452321e-11  5.9512460107603100e-11  1.0552010862256795e-10  3.4398641718170967e-11  1.8763822561802348e-10  3.3106305605606936e-11  1.6078390449079841e-10  1.7953506409298255e-10  1.5146532348525797e-10  3.9919663109421386e-10  7.9572557985646122e-11  8.3217109296750996e-11  1.4511222512941777e-10  3.0920627008816064e-10  1.4525943064890532e-10  2.6346486879309269e-10  1.1100703130548810e-10  1.3608211331289971e-10  1.5834439509466664e-10  2.8133839026896982e-10  1.2764663609870148e-10  3.3836855329882817e-11  1.1788768770686076e-10  1.1243443051054312e-10  1.4777415247061347e-10  2.5426473607308219e-10  1.7151161823817079e-10  3.5161831504461242e-11  1.2944354636163275e-10  2.3086637596694615e-10  2.9177801576908724e-11  3.2963145804438024e-10  1.6334522132506969e-10  3.8985646156600581e-10  1.1346177637257106e-10  2.3805003362147598e-10  3.2515031029840369e-10  7.5793611836611869e-11  1.0600001533496789e-10  2.1886765489588814e-10  7.3945094909145189e-11  4.8291222060713041e-10  1.5972436722008599e-10  9.8402020328301478e-11  1.0872007707307898e-10  2.1062520431576053e-10  5.3992095537375158e-10  4.7679145862297512e-10  1.8054851620469162e-10  1.7242320704074206e-10  2.0825871854684823e-10  4.0122271309999243e-10  4.5564923622860888e-11  2.2564593159071586e-10  8.1543271702084749e-11  1.2402969281957128e-09  1.1798779257129872e-10  4.6036859614151768e-11  5.4825282772194753e-10  3.3181967636855274e-10  2.4706507100881527e-10  2.1149480417503518e-10  6.4403614374520483e-11  1.5382312696606574e-10  3.3497754118008168e-11  4.3754725327463636e-10  8.2353172386696313e-11  1.3772494251628347e-10  1.2756690998918352e-10  6.6061183035679383e-11  3.4819855274692800e-10  4.3471842763148920e-11  1.1833933660116484e-10  2.4376841072596966e-10  1.7856887004396198e-10  7.1051946108244950e-10  9.2972290370360290e-11  5.7432501263105238e-10  1.4828474847464464e-10  3.5394005318997869e-10  5.5234055503452152e-10  2.4351509772462858e-10  1.5509024611875235e-10  2.7213003674173003e-10  4.8000977336634891e-10  3.4468055486643813e-10  7.5768104840789328e-11  4.9692680650331253e-11  1.6327953128096208e-10  3.5646871937328433e-10  1.8702105140080415e-10  1.2727125089192492e-10  1.7176638446238915e-10  8.1371897634559964e-11  7.1571236011651725e-11  1.9945380474938342e-10  5.8120302360525670e-11  2.0744957467180204e-10  9.0775537715184569e-11  4.7864053230074311e-10  4.9718939992579997e-10  8.2209527141598998e-11  4.1935758302573440e-11  3.9572022353847052e-10  6.4755549292570511e-10  2.5848982931992536e-10  9.8546342681423547e-10  2.8729635303751738e-10  3.1624690753784920e-10  2.7315897653784916e-10  2.6574799088264326e-10  9.7884104254656902e-11  3.1375959897556770e-11  1.9438019978086385e-10  1.0546657977925794e-10  2.1516740428535719e-10  7.5448402560411844e-11  1.2394716246519268e-10  2.0589181811407163e-09  1.7686020433042969e-10  8.1299640963833479e-11  8.2524394533271353e-11  3.9907043359587489e-10  2.4250113355660605e-10  1.8967105351050634e-10  2.0786246396471622e-10  4.4763920716884657e-11  7.5343791517690059e-10  2.4167135422964669e-10  5.3467081928859170e-10  2.4912728537487789e-10  2.4227512881614214e-10  3.1328403448946998e-10  9.4673622519941879e-11  3.3124801957121481e-11  3.6245641769866316e-11  3.6835173880166972e-10  3.6009609171721701e-11  1.1677180932956179e-10  1.0201672030717842e-09  7.5328504652160235e-11  3.5201658522261144e-10  2.6345445072904719e-10  6.2168706101619506e-11  5.9884216893196005e-11  1.7985157789898460e-10  2.4484159410475455e-10  4.8592448843958364e-11  1.1323833715656870e-10  1.6134895450206882e-10  7.5897587681937559e-11  1.7042507260121296e-10  2.1266720115964484e-09  3.2374438942966933e-10  3.1931382245181469e-10  1.0689911714886430e-10  1.0787766701859233e-10  1.8852646463587694e-10  8.0842295459532269e-11  1.3452846440175583e-10  4.9807070782935759e-10  8.7067859190097906e-11  2.4243987518315971e-10  2.1609416219100716e-10  1.3889588469555685e-10  5.1433226664028844e-11  7.8107061489603660e-11  5.5770357736045023e-11  7.4455578807092581e-10  1.0642264959159172e-10  2.2143778639682433e-11  5.7017936616969124e-10  3.0839589532701447e-11  6.2046056871343409e-10  1.1708682093270698e-11  1.3292559778257029e-09  1.7346577509698710e-10  2.5050608128052368e-10  1.0499574783063804e-10  2.8824227898865475e-11  8.5579866420552754e-11  2.7976095715211035e-11  2.0744388641047837e-10  3.7227017069986318e-10  2.7167655606450793e-10  3.3147454734006358e-10  1.3603695233920824e-10  9.4001513268971489e-11  6.3445738322070714e-11  3.6208851968269420e-10  5.0350167434712628e-10  1.0613014500479475e-10  1.0096545600823926e-10  1.4703778882517067e-10  7.6432379306543750e-11  4.5560433930570312e-11  5.4814879699682465e-11  3.2155636146383978e-11  8.8718809566941684e-12  1.7876058886132224e-11  9.9037779670687946e-11  2.2593621755916359e-12  1.1093089662242400e-11  1.8623229656698391e-10  3.4858074685686980e-09  2.2397536736100623e-10  4.2514642075981394e-11  2.2037987175225576e-10  9.2985536914553660e-11  1.1231909252844723e-10  4.3917396288212962e-11  1.7129693980393342e-11  8.8031165407620116e-11  7.3271346060378638e-10  7.9840791431668109e-11  1.8390951467967332e-10  3.2446328120588837e-10  4.8519606437967905e-10  9.6508974856851762e-11  1.0220949093765520e-10  5.8599926669505233e-11  7.6996020327205207e-11  1.1226984160696711e-10  5.7643494950726404e-11  5.9422783512240939e-10  5.9185961342722272e-11  2.7696103276526410e-10  8.8052018917175987e-11  1.2818028836357320e-10  3.1272290589203720e-10  4.1711706602450406e-11  6.3320999432165858e-11  2.8616878968106055e-10  1.1988947871591764e-11  1.1342171391851788e-10  8.8345129688796679e-11  7.6998772625871729e-11  5.6093653614494225e-10  1.6126762248824670e-09  2.9199571607058757e-10  2.8879721983317566e-10  9.0873815099795597e-11  6.9563437399171983e-11  2.5440995812101310e-10  1.1747829355126137e-10  9.9932894453718713e-11  1.0443459832352486e-10  1.9910248486967663e-10  7.4110980436734639e-11  5.2683332849200513e-11  7.0640747595418085e-11  3.9786211503207535e-11  8.6547206677579303e-11  1.9083364246226670e-10  1.6168488382241058e-10  1.1146177537170748e-10  2.7468556374063582e-10  4.7425862885254082e-11  1.3664252793383410e-10  5.2114338882111359e-10  6.6921962091930367e-11  1.1751103878105861e-10  1.2761075799355143e-09  5.8385260497696320e-11  3.3576583374374480e-10  5.0949985134785276e-10  1.5771305210511278e-10  1.2842594156831182e-10  1.2576803727387908e-10  8.9933252430853084e-11  2.4961161868030970e-10  2.8518206492808702e-10  1.7772148340113376e-10  4.6671552748101383e-10  4.2248539608067297e-10  1.2184057063904414e-10  2.1086464295440902e-10  6.6777132616302315e-11  8.4979589423334910e-11  6.2754087989563977e-11  2.3912113622561572e-10  4.0070237680753481e-10  3.0759505453259746e-10  3.2383008866015957e-10  8.6041190703855243e-11  2.2722041355152504e-10  4.7827069899599212e-10  1.7236754790276440e-10  4.8005604027744675e-10  1.8313020590819703e-10  1.3859892192941777e-10  1.1230349791670548e-10  5.1436413264302361e-11  5.4603238020669847e-11  3.3174967502253945e-10  6.2963209012989300e-11  6.4762941905411635e-11  1.2947086878433222e-10  3.2098496716705351e-10  3.1959944685614555e-10  1.5706059355865897e-10  1.1773532278522893e-10  5.8996385297130461e-10  6.2554900516427041e-10  1.6016896583647405e-09  2.6843501830379429e-10  1.9943766016294923e-10  4.4347371735354109e-10  4.5526292189693920e-10  1.1705623629136152e-09  2.9602021703977187e-10  2.4748728621980607e-10  3.3219244533483763e-11  1.2924423728943375e-10  3.2394435790568168e-10  5.3123412816584179e-10  2.1277896781042195e-10  6.6136935042757458e-10  3.0556199844637898e-10  2.1573779075061148e-11  4.8699466028039827e-10  3.3528282762175006e-10  3.8783307721529786e-11  3.3289520572284667e-10  4.1402763713801794e-10  5.4216643363932123e-10  1.4547933277278894e-10  6.7014833363465871e-10  1.9545318915757846e-10  4.7418513570197663e-11  1.2730702145707773e-10  1.3263357742123141e-10  3.1650958945630148e-10  7.9172469310832069e-11  2.6510038291209357e-10  1.9461197097717203e-10  8.1872646705476243e-12  2.3671231426308700e-10  5.8113159450899727e-11  9.0418438881487979e-11  1.2440689886637077e-10  6.3023813775295588e-10  4.1227344028725882e-10  3.0367455098109747e-10  1.1730097746259413e-10  1.3217858690515591e-10  8.9752379251283506e-10  5.4002318612529566e-10  1.3487208974279170e-10  1.4220939656813389e-10  9.3783102519910976e-11  4.8771293898780993e-10  1.3846899172778559e-10  1.7458342914270351e-10  9.5310796990885923e-11  7.0868085086070220e-11  6.3591975161254097e-11  1.5028632882845060e-10  9.8002686070651122e-11  1.3013009279327295e-10  4.3719322916015249e-10  7.6672737159276420e-11  5.9670655266147341e-10  1.2773258844551204e-10  2.2369423247928118e-10  2.8065495553803317e-10  5.4952281252307105e-10  1.1628076859553824e-10  4.1155866200773473e-11  6.2956899271321181e-11  1.4182055119220441e-10  1.5884517091187395e-10  5.1719758767444462e-10  8.4573072168600671e-11  1.6172021365090599e-10  2.5093336623964924e-10  1.3818777688106760e-10  2.3737084583257711e-10  3.3325733197049238e-10  3.1085130997275439e-10  1.0484663635291587e-10  1.7526236998982788e-10  1.4953359737597631e-10  2.2784536571650522e-10  4.6671992985927995e-10  3.7353427184888624e-10  2.0193681692982142e-10  2.0619871670764855e-10  1.2501857408150533e-10  1.7288788035042933e-10  2.9939352062705228e-10  3.8108557944002269e-10  3.6174276539541306e-10  1.6552757364816258e-10  2.1980833625978198e-10  1.9632950847634786e-10  1.5441324311653445e-10  3.9920396621925606e-10  3.1716197908115831e-11  1.0560069495572910e-10  1.2761190116702430e-10  3.8873729454053280e-06  4.0648427912923960e-10  1.7690558495008321e-10  6.1140499106791026e-11  2.5611165543823645e-10  1.3840933417544884e-10  6.4500226790570773e-11  1.0551803317554286e-10  2.0257843395885317e-10  2.0600434080922563e-10  1.9427836996501577e-10  1.8950191048394584e-10  3.0887318475837373e-10  6.5342214325013069e-11  8.0310993653891744e-11  1.9122988973706523e-10  1.2232304833032336e-10  3.5422902644694430e-11  4.0214278023636975e-10  6.4870134577340781e-11  6.2082987595918122e-11  1.9393845033701670e-10  9.9086528948687243e-11  2.3788248975734195e-10  2.9270316270390416e-10  3.5092460198323540e-10  7.8784079582444669e-11  1.8739773761938328e-10  9.6462671279780161e-11  3.2763444686917550e-11  9.0668861796504326e-11  5.8573818095927843e-11  7.8568355980209834e-11  2.2583272813584405e-10  4.7430437265861941e-11  6.6399922364041675e-11  9.4540912826590497e-11  9.3695534109110361e-11  9.3941941030314299e-11  2.5482588383125119e-10  8.7871040868603629e-11  1.8571460577526793e-10  2.0174467285707515e-10  9.9050054529987584e-11  1.6085342881025382e-10  3.1520339769997391e-10  1.2426536088440539e-10  6.1451544160814335e-10  1.7112678718815096e-10  1.4915779009706068e-10  1.3807325618028685e-10  2.2880848958744264e-10  4.4269433356190856e-11  4.0047962864809310e-11  7.7086020686991986e-11  4.3423232148777398e-10  1.9946695254418908e-10  6.4039759303090888e-10  4.4127641086138886e-10  1.2142133714089264e-10  5.4598865088628688e-10  3.6496233329790550e-10  1.8869866340673129e-10  7.0886349123624863e-11  9.3980390152213020e-11  1.7424299601757793e-10  1.8736347890944553e-10  4.1684925076146161e-11  4.8342437582059359e-10  2.8060719009483426e-10  3.0087578672388719e-10  5.3625365188890247e-11  3.5122388270976192e-10  2.6531457234090151e-10  5.8350419771557271e-10  7.3487412072161377e-11  6.1620545651695810e-11  2.3862414140357013e-10  7.2811461179949047e-11  4.2633030371555640e-11  1.4802309315809737e-10  2.4339051615124150e-11  6