<?xml version="1.0"?>
<VTKFile type="UnstructuredGrid"  version="0.1"  >
<UnstructuredGrid>
<Piece  NumberOfPoints="4852" NumberOfCells="9430">
<Points>
<DataArray  type="Float64"  NumberOfComponents="3"  format="ascii">-1 0 0  -1 -1 0  0 -1 0  0 0 0  1 0 0  1 1 0  -1 1 0  0 1 0  -0.5 1 0  -1 0.5 0  -1 -0.5 0  -0.5 -1 0  0 -0.1608775713298009 0  0.9999999999999999 0.4999999999999999 0  0.5 1 0  0.1967448868031411 0 0  -0.3418421310630169 -0.1761549425021283 0  -0.3382890409858663 0.2254085314735796 0  0.1740741538375196 0.3477669960585481 0  -0.1863316740659094 0.5561915962387718 0  -0.5047934419141915 -0.5384804531693328 0  0.4908112095938869 0.258891359998805 0  -0.06511026865506304 0.2021321686713917 0  0 -0.5061325913258391 0  -0.25 -1 0  -0.5626474047341142 0.5784105115795943 0  0.662045159020601 0.6355037876110129 0  -0.1767464892737919 -0.5384684606055974 0  -0.540200283971414 0.02601529945888185 0  -0.9999999999999999 0.25 0  -0.2072996869188641 0.02413936469675531 0  -0.6555824341128684 0.3106210124597455 0  -1 -0.25 0  0.03869033745724429 0.5930381973678599 0  0.1954135215268643 0.129896533312412 0  -0.1364646219389055 -0.2206853930638633 0  0.371599162246451 0.615922936995862 0  0.9999999999999999 0.25 0  0.5355652144809806 0 0  -0.75 -1 0  -1 -0.75 0  -0.6459196141961745 -0.3238063196294764 0  0.25 1 0  -1 0.75 0  0.02757118475249542 0 0  -0.25 1 0  -0.75 1 0  0.9999999999999999 0.75 0  0.75 1 0  0 -0.02898318711980711 0  0.05419351856132584 0.1432023610994951 0  -0.07818207202755545 -0.02786998303412839 0  -0.7020892946938607 -0.1324005621105364 0  -0.3223535035490181 -0.3482123373712591 0  -0.3416483149044524 0.4385334476855393 0  -0.1006951694669974 0.7648515682900277 0  -0.3845006490674398 0.703350826593537 0  -0.05567775052736561 0.4003174136963142 0  -0.07957009787753301 0.0724343087974014 0  0.3593626912142602 0.3714440371242527 0  -0.7169300415788789 -0.7308258821037154 0  0.4121489377843839 0.09076173020563956 0  0.6900496884594489 0.1929310128043356 0  -0.7482754393044148 -0.5280256442644661 0  -0.388447785648997 -0.7111560322181307 0  0.721629326397905 0.4206221483686218 0  -0.7768001648392138 0.09765608168203163 0  0.1970015760562814 0.6998254936773154 0  -0.199987225714634 0.2897180026869545 0  -0.7995588034785858 0.5783173352531702 0  -0.7176501965942628 0.7669545396531946 0  -0.04795269487987807 -0.3744344634394174 0  0.5853299459974385 0.8175174423007421 0  0.8208248313753929 0.8068222553904637 0  -0.1056323284026115 -0.6974793992865964 0  -0.5158246045342388 0.1638207185193395 0  -0.203027685763535 0.126412869510285 0  -0.360618712744833 0.07605044712955487 0  -0.3665119011511771 -0.05212277707772661 0  -0.498084265726861 0.3963026341599775 0  0.375 1 0  1 0.125 0  -0.01207801995271029 0.07173129523379693 0  0.06181011444761685 0.3933956899040015 0  -0.1722003528838714 -0.1227332287126427 0  -0.2440417726265513 0.7742225075402052 0  -0.625 1 0  0.5338600092921909 0.4563399867045057 0  -0.5767947773077994 -0.8304904894102618 0  -0.2580695089218568 -0.7838527544070344 0  -0.3204826586544357 -0.5093228013364367 0  0.8341259211212343 0.5965293718263339 0  -0.5496730865561047 0.791362027752356 0  0.125 1 0  -0.06779401921986294 -0.09366209619689764 0  -0.4958693845366109 -0.1433387626942543 0  -0.875 -1 0  0.02962922394518094 0.0419045565266768 0  1 0.375 0  -0.875 1 0  0.05712903539757565 0.7947660629426022 0  -0.1960600760013098 -0.3746817463006581 0  -0.07381989473283107 0.572390798427854 0  0.2367246287264465 0.5195583203502316 0  -0.7928845639535894 0.2302505501092122 0  -0.4961673374211099 -0.3900274869062679 0  -0.0003832056352275572 0.2724867400006342 0  0.5106242901987018 0.6417512548039551 0  0.399403748060548 0.8082196431670163 0  -0.8067040898107511 0.4253808852343284 0  -0.06399463684691202 -0.2212127719402535 0  -0.7105512311413124 -0.01375267444740075 0  0.09070520239022371 0.05292326723156791 0  -0.47935156668464 -0.2518674113064292 0  0.7238715051784309 0.0834279561287655 0  -0.8091821008893327 -0.4118285881366787 0  0.3379103662792335 0.1548971975553504 0  -0.7951840415493149 -0.2512660178885271 0  0.2366456544215645 0.2559064311739435 0  -1 -0.875 0  -1 0.8750000000000001 0  0.1845282875481713 0.04843276816334239 0  -0.2482381797763751 -0.2298327117084468 0  -1 0.375 0  -0.1720227144458831 -0.04177204130738556 0  -0.6498894706263334 0.4685968566566233 0  0 -0.07736776745332727 0  0.080319542396644 0.2613247231379358 0  -0.375 1 0  -0.2183296581985399 0.4260849655287623 0  -0.1210006879458802 0.151039343961619 0  0.1332328473792736 0.5556547214074182 0  0.1320916518587074 0.195081945418281 0  -0.4761357231410669 0.2707649268490373 0  -0.04656007892705023 0.0140036108165523 0  0.8512197521861379 0.3715790667772523 0  -1 -0.125 0  0.2858948964582479 0.8376270413901472 0  -0.1118095462327931 0.314409693318769 0  -0.125 -0.9999999999999999 0  0 -0.7575037395175259 0  0.07821397079968176 0 0  -1 -0.375 0  -0.375 -1 0  -0.625 -1 0  0.7474787146812756 0 0  0.625 1 0  0 -0.2918843213980812 0  -0.9999999999999999 0.625 0  -1 0.125 0  -1 -0.625 0  0.3284075310660084 0 0  0.004929205892015135 0 0  -0.125 1 0  0 -0.006571003003944568 0  0.9999999999999999 0.625 0  1 0.875 0  0.875 1 0  -0.5636532123281344 -0.6772574298033024 0  -0.005047818558367909 0.1612516830386382 0  0.36276121476711 0.2648334060031211 0  0.6531206262096536 0.295796225479377 0  -0.8550829004020301 -0.6473951044167146 0  -0.8640677316458225 0.7877098450545111 0  0.431001244950787 0.5033187021198565 0  -0.3992643651078674 0.8564006455006127 0  -0.7793730841949245 -0.8751828905671446 0  -0.8708712783653019 -0.7849596217129026 0  0.154326741728586 0.8429069322275099 0  -0.6595975815651353 0.1537768737766973 0  -0.5787869916350818 -0.06393286172428925 0  -0.8550459071095587 -0.06240212570369035 0  -0.2974214137110192 0.5633675875770484 0  -0.4252116990796486 0.5711146408654287 0  -0.3775594900813816 0.3323876049077629 0  -0.6192594884379665 -0.2167659294683783 0  -0.2740666682542851 -0.09013240688590594 0  -0.6409801396800502 -0.5897054334222951 0  0.8596240564384392 0.2669228787199979 0  -0.03297993005455955 -0.03302859833565241 0  -0.05533098552350597 0.115333396971784 0  -0.1349403054434312 0.4334646269526742 0  -0.1206200896433702 0.03268399755896917 0  0.5378795444092997 0.06521417993267409 0  0.5795376806526429 0.3615613238797679 0  0.6920249914907046 0.7759741676263026 0  -0.7942104920603523 0.8815598789708552 0  -0.6441766534577524 -0.4301963870823821 0  -0.1156456336793664 -0.3980828832758009 0  0.8720311337021134 0.4899747345109087 0  0.07608481999546349 0.09461384071570735 0  -0.6653744621434096 0.8687236715992525 0  0.4550496588482963 0.3527722617747319 0  -0.02657166778907596 0.03608499150184263 0  -0.4100359824557687 -0.4413038057319932 0  -0.3628815595129088 -0.2695505684645781 0  0.323981640018322 0.4837318309463059 0  -0.1973282445251759 0.2026165254572661 0  0.7059454722988803 0.5328274720780977 0  0.2621342045359883 0.3579915654366065 0  -0.3772713194048129 -0.8519754499065916 0  0.1090489796900961 0.683274528251913 0  -0.2855838285698519 -0.6126962780672548 0  -0.4423004077214875 -0.6209466340495575 0  0.2967093239424948 0.6937028765129069 0  -0.8752243632224757 -0.1749241277684111 0  -0.1808246268653452 0.8556377100828412 0  0.4550597311428327 0.1649337433721713 0  0.280489532215587 0.04716240846162374 0  -0.1434508612424636 0.6584871083476463 0  -0.01199876094605376 0.7096446347634182 0  -0.05369160729127877 0.8756900425959578 0  0.004798438617008099 0.471452292017325 0  -0.389239479138268 0.1545955528485456 0  0.5493721986053826 0.1344395903030059 0  -0.4772775622859173 0.6833375564420444 0  -0.8520190396310502 0.3336535830452973 0  -0.09020592601446442 -0.5369221300748303 0  -0.02422858288321483 -0.5524889523647508 0  -0.2139561199145112 -0.2886602405223833 0  0.8683844401158584 0.1521279420838176 0  -0.170293718354754 -0.6614442394765802 0  -0.8894085708210732 -0.5291294467625517 0  -0.2832566179283665 0.3397446274743712 0  -0.6773353709931594 0.5752630775524901 0  -0.8978759843391014 0.5320854541115189 0  -0.8988592500408068 0.6615863408231354 0  -0.6455204344756771 0.0731794489220061 0  -0.8596173550388619 0.02892406286973382 0  -0.8885554696547694 0.1683065745395373 0  -0.1312338061020855 0.2302189710735375 0  0.1604419247141553 0.4480785088919277 0  -0.04372851136576002 -0.126032074231036 0  -0.7543528584149982 0.6709301518092194 0  -0.6036950041637817 0.6988126230812581 0  -0.2557853344710602 0.07924681604016399 0  -0.2507340262665028 0.649814771437105 0  -0.02760589316163606 -0.006419516875110295 0  -0.4952402771068065 0.8775326386773245 0  -0.4785244409916021 0.4919441333653597 0  -0.2919331050507646 0.1450675436143958 0  0.002261281896949237 0.02379729521389982 0  0.7799682499875067 0.6850510784835916 0  -0.4706495723280699 -0.8250745957166595 0  0.2723250189595098 0.1965704259058421 0  -0.148936630297222 -0.8633766338757346 0  -0.06521136671408027 -0.8296295173496862 0  0.4440554587394393 0.7074657461595865 0  -0.116767656523957 -0.289272277220883 0  -0.2662538736289188 -0.02595680290028622 0  -0.8941796548306574 -0.8967986313521592 0  -0.5742707290157217 0.2385722419533802 0  -0.4776668804656642 0.08848519221046229 0  0.4918573772732973 0.8268038157447647 0  -0.02787200188758802 -0.2609466567524354 0  -0.3109218060915101 0.8759976284447638 0  -0.1440535783477964 0.08113545236306566 0  -0.4707975434972448 -0.03452141972579013 0  -0.389537683123549 0.01265367710613231 0  -0.2931823896892105 0.02807571903968849 0  -0.3863363856415878 -0.1205307873973077 0  0.8883963768799523 0.6989433444989315 0  0.7932344273009652 0.9112967785644267 0  0.5768612240709197 0.2096509282008771 0  -0.5609602506652265 -0.4704926754931125 0  0.5996286902629951 0.7075372920906001 0  0.6787419924019185 0.8890363024275099 0  -0.05188664082375854 0.3046797011928112 0  -0.9025713025501214 0.9049892342979257 0  -0.1282599558104967 -0.0672950699269058 0  -0.1696424743973177 -0.1832110566043526 0  -0.253479083394
[...]
<PointData  Scalars="w"> 
<DataArray  type="Float64"  Name="w"  format="ascii">1.7198177333551332e-10  1.0216041434350498e-11  4.4458893683437023e-10  2.7104362132368991e-09  6.2500464701552464e-10  1.5495577536876811e-12  8.6235952205995657e-12  7.3387319047439740e-11  3.9288369482145041e-11  2.0852281828160844e-11  1.0653389339206642e-10  9.4928749804372888e-11  4.0684036574591946e-10  2.6994275991409584e-10  8.9827327719355955e-12  5.3561689987226181e-10  9.1252039459605759e-11  7.1895705762605440e-11  1.3077506235663744e-10  3.5043481740543361e-10  6.6451863641160020e-11  1.0438613304473372e-10  5.8007021245167209e-10  1.6932289980443097e-08  5.7490280281832389e-10  1.0584296682255127e-10  8.7261889112484947e-11  1.7051465178896057e-10  7.5919962000344636e-11  1.8759473819142535e-11  4.7218260106989166e-10  9.5990312199804128e-11  2.4071996245404480e-10  1.7875919206961824e-10  4.6188850246751532e-10  2.2855013101064401e-10  7.6670093945104063e-11  4.7239198950400269e-10  5.9203460220333607e-10  3.0631124094970013e-11  5.0948511462338453e-11  1.0821511462131219e-10  9.0819450305222442e-11  1.8940476075975197e-11  1.0717052664269696e-09  8.6202733162511384e-11  3.1412487180797900e-11  9.3761852072902107e-11  1.2714537895228738e-12  5.9827043278489978e-10  2.2456318597165998e-10  2.1714493059863674e-10  8.2581806250245125e-11  2.5386849984310112e-10  2.5566015295787557e-10  2.0402874897588816e-10  3.5042066801946068e-10  8.8872062455746920e-11  5.9116725823929719e-10  2.5086328303084656e-10  3.0922692462084821e-11  3.1760648423706801e-10  3.7729943273829888e-10  1.4052099039636105e-10  5.3372339450845402e-11  1.7646564913277366e-10  6.8995275414514216e-11  1.7770509152079350e-10  2.3322736644936796e-10  4.5090753027628244e-11  6.4026267355519934e-11  4.3640073328111381e-10  5.5334181787082633e-11  8.6546995058899581e-11  1.7648757571283727e-10  1.6849169962896698e-10  2.5877130819572094e-10  2.8820200570090269e-10  1.8278986906020266e-10  1.9344655399827063e-10  6.3712412236631534e-11  2.5196202710960706e-10  2.6964979477409854e-10  1.9949534268916795e-10  2.3563155465015398e-10  1.2427540870768093e-10  4.4743347448002447e-11  1.0843285140931759e-10  9.3610850597327464e-11  2.5097158300894508e-10  6.8997166120469692e-11  9.7168632923350451e-11  7.7078279480422237e-11  9.2332444844548169e-11  3.9375984209880532e-10  2.0809035169531603e-10  2.4974636460796521e-11  6.6891843859774841e-10  2.5498866834944844e-10  3.0811486003705917e-11  2.7203256792549463e-10  4.1832066591584158e-10  7.0847487319902004e-11  9.6131505268899387e-11  1.5342477319925469e-10  6.2942868484214411e-11  2.7543733754686765e-10  8.1880913485717699e-11  1.4418498946231431e-10  6.4937514882201394e-11  3.1392885629991923e-10  2.4567835089393193e-10  2.3670936809108903e-10  6.4220284547651784e-10  1.2174918522066774e-09  1.4391185662910183e-10  1.6825657756452267e-10  1.0008040968086927e-10  4.6029087556149329e-10  2.5494585190223974e-11  2.5201631052916959e-11  2.8095155690693446e-10  9.2548142141635299e-11  5.9762422954076450e-11  5.0773319944707696e-10  5.5952505921016967e-11  6.0999273143508903e-10  1.1901371192860820e-10  7.5178615207312905e-11  8.2080539090479235e-11  3.4617036268875229e-10  1.6912274411605405e-10  4.6848690755005717e-10  1.3292914872703703e-10  6.3727981589807899e-10  4.3207644542929061e-10  1.0800462531465261e-10  5.1013733946233374e-11  1.3064370764073273e-10  2.5774894523260259e-10  3.8125613303395545e-10  6.1909303823268972e-10  9.1738908623426396e-11  1.1813678164113641e-10  6.6999796154785022e-11  6.5960674020177304e-10  8.3334175069008704e-11  3.3664909443439693e-10  1.4342341763307558e-10  1.2269120063106846e-10  1.9689295320375681e-11  2.8572158567913384e-10  1.6166523360245647e-09  5.5546867333378879e-11  9.8686222092111442e-10  7.6997968281121346e-11  2.3452294625973090e-11  2.3469910754589039e-11  1.2094574117915447e-10  5.6850035490982261e-10  4.4673943697296330e-10  1.6119493861745319e-10  1.1212317743581578e-10  1.6286034104569860e-10  1.8524753024706051e-10  5.7682143635337891e-11  7.6265185044294634e-11  1.9908135980610081e-11  5.8824023141622975e-11  2.9117871706801076e-10  9.1476345139047737e-11  1.0411428517811843e-10  8.1703305863079658e-11  9.4473694414018047e-11  5.2585110168637244e-11  9.5664772723550932e-11  4.5713587562481229e-10  5.6448811187366627e-11  1.6407894733053435e-10  1.7346993728969510e-10  4.7254350286526998e-10  1.9739115934776625e-10  2.8690123471720363e-10  1.4435913077029688e-10  1.4438944227484617e-10  1.4731529691207435e-10  2.0884838226160887e-11  2.8802953067345371e-10  6.7359569655761261e-10  2.4960806951011628e-11  2.5505714287197695e-10  8.7689633983506967e-11  1.5716340386673867e-10  1.1446229157538572e-09  1.3787450260453299e-10  1.6509276827216330e-10  2.3258707593333383e-10  2.8871094772852618e-10  1.0426309485596530e-10  2.0446441908529143e-10  4.1409506698240429e-10  2.1767095994420330e-10  2.3725690979845822e-10  1.0950966884362317e-10  1.1128646424270070e-10  1.1027682409265564e-10  7.0891963512459201e-11  2.0915299254813394e-10  8.9694120674651773e-10  7.6229719549923091e-11  1.0621404787138545e-10  7.7963702895199816e-11  9.6608059840013907e-11  1.6179259132452365e-10  3.7837356275379494e-10  7.8260619541897391e-11  8.3421425318355370e-11  8.7223378849816770e-10  7.9592522615003467e-10  2.9554363187103859e-10  2.0061640390543006e-10  7.7307718306606336e-11  7.9532453372088829e-11  3.3453935259747333e-10  5.7555717218455823e-11  8.1732972183851549e-11  4.9422488322642506e-11  9.2973975821368419e-11  4.0395938063365752e-10  8.9022724539183687e-11  1.9822845802523180e-10  1.6557805375133388e-10  9.1562377894562831e-10  6.0809812089924461e-11  1.9494486951973701e-10  1.1588549343814022e-10  1.0954039887324040e-10  7.6329544400622337e-10  7.4303943782229821e-11  8.4218602670280660e-11  1.1790411442915377e-10  1.1494689649074453e-09  4.0072338467197293e-11  7.6982008089378673e-11  2.8234596532983096e-10  2.5416344776135199e-10  3.5093439128065799e-10  1.7953479994732713e-10  2.0437959469808003e-10  4.0543817323975204e-10  2.8847197402161649e-11  1.0441637921870145e-10  1.2716291432976694e-10  3.6966456599367329e-11  2.8401445691820892e-10  4.2885205444293174e-11  3.3912758340911718e-10  1.3538854791994285e-10  1.1030133064033492e-10  1.9199690484239242e-10  5.0328608572573349e-10  7.2326980599610313e-11  2.6403287885306321e-11  1.4462521612653105e-10  8.1507679828514554e-11  5.8393217064626232e-11  7.3876973729759738e-11  1.7977113426416958e-10  4.7856368235515782e-11  2.6654834308810508e-10  2.5644356416508851e-10  1.3040200910234341e-10  1.3026569597121164e-10  1.3348558488540945e-11  7.1851152733851112e-11  1.4842122782745871e-10  1.6552684092703530e-10  5.0755061656372779e-10  3.6169442858948539e-11  8.1188435874956989e-11  3.2936804405233774e-11  2.4281966607619036e-10  1.2439593742963482e-10  1.8278878575031962e-10  7.5493315109950989e-11  8.6743883334803177e-11  1.2017187648716467e-10  2.0058957243851842e-10  2.2453476936513490e-10  2.6056686695112292e-10  4.4323788473872906e-10  2.1440306986723780e-10  2.1140638906819582e-10  1.4293504344198107e-10  7.9512850694487151e-11  1.6944101282607935e-10  1.6473048387322041e-10  6.3727106650547099e-10  1.2828356807036708e-10  6.1524452867966868e-11  4.1095038610057799e-10  1.9259343765164564e-10  2.0463360019639419e-10  1.2265499530522037e-10  3.2026077809187659e-11  4.4512932149184805e-11  9.6556212628826991e-11  6.9469525554201139e-10  2.9752440886011004e-10  1.7976468361787290e-10  1.3447987807181924e-10  3.3317006278877839e-10  6.7360816308403635e-11  1.0996041709016951e-10  3.5648175462537027e-10  1.1385566284158618e-09  9.7430398589618066e-11  2.8451570122836847e-10  6.2279544078631429e-10  1.2561311080188338e-09  2.0069511725778606e-10  1.5601203875195598e-09  4.2328424329108756e-10  2.2630856304116660e-10  1.1761172856927687e-10  4.1081498382439021e-11  6.4302967199472977e-11  1.2707610404189167e-10  1.5532232760679309e-10  6.2362841106087487e-11  9.9090905192144249e-11  1.0775317966488935e-10  1.2541191839651308e-10  1.9481459757327355e-10  5.0805509388793339e-10  3.2224397528510278e-10  1.6563210247786158e-10  9.4317672755557231e-11  6.1101136268623296e-11  5.8911768859318705e-11  7.0690691890602071e-11  1.8136370171845115e-10  2.2520836192891007e-10  1.0406990089527953e-10  1.0374140365970193e-10  2.3513669606057721e-10  1.3497035772993839e-10  6.8242592218077572e-11  5.8466980707710006e-11  1.0545702778713109e-10  3.3719015957456487e-11  1.8481568535980335e-10  3.2411056586759162e-11  1.6112839277139208e-10  1.7943039538953612e-10  1.5382328085173293e-10  3.9341009977991973e-10  7.8884202613817308e-11  8.1306691038305569e-11  1.4312544075555836e-10  3.0846093912350478e-10  1.4448187243491086e-10  2.6328689039449994e-10  1.0954570691809026e-10  1.3483542142163721e-10  1.5620180850008724e-10  2.8046950838040316e-10  1.2844996015834683e-10  3.3317188764625919e-11  1.1614794271470917e-10  1.1191500915064955e-10  1.4444445491012619e-10  2.4719269859995921e-10  1.6819045032964006e-10  3.4377100351264749e-11  1.2787687694657923e-10  2.3225609524585572e-10  2.8106293156871717e-11  3.3014144588076970e-10  1.6536396073010432e-10  3.9838485243028075e-10  1.1262509587953315e-10  2.3690578176711843e-10  3.2355823320666242e-10  7.4214965795016843e-11  1.0439009362054713e-10  2.1587054697351415e-10  7.1392882385528380e-11  4.8634497370830984e-10  1.6096105728034745e-10  9.6421247430939726e-11  1.0748433411981419e-10  2.0674415337371223e-10  5.5000988303455998e-10  4.8510098624974692e-10  1.7748028488717152e-10  1.7122435579028863e-10  2.0445099173104595e-10  3.9414553138874864e-10  4.4792868262515690e-11  2.2255729986971150e-10  7.9142394916054019e-11  1.2492740767733166e-09  1.1695595018348790e-10  4.5629798139541635e-11  5.6303503583095448e-10  3.3686471044198349e-10  2.4806940853345025e-10  2.1012189129841929e-10  6.3296723755823042e-11  1.5169582971141500e-10  3.2848865591484337e-11  4.3996526803119817e-10  8.0512501514448908e-11  1.3324802247548920e-10  1.2666722016119841e-10  6.4855090414240695e-11  3.4556209970424782e-10  4.2252880303837454e-11  1.1523263138589446e-10  2.4852997683605466e-10  1.7987970717921462e-10  7.2386290583241929e-10  9.1217861992679092e-11  5.8111867656761009e-10  1.4453976371091950e-10  3.6189014061853333e-10  5.6483673868228540e-10  2.4572644488864378e-10  1.5423391226103910e-10  2.7521047616261793e-10  4.8647643660712787e-10  3.4483836030844025e-10  7.4283798301922716e-11  4.9784814504080448e-11  1.6532197487923245e-10  3.6275457630398016e-10  1.8437541846418514e-10  1.2479681975701616e-10  1.6650503873100613e-10  7.9915694749648653e-11  7.0321495701926300e-11  1.9868223535263264e-10  5.7072336119904677e-11  2.0586894671546515e-10  9.0126015015744566e-11  4.8716266157420780e-10  4.9027463942109113e-10  8.1455576631830823e-11  4.1248016882998901e-11  4.0246394381535248e-10  6.5679045892457943e-10  2.5859901417013133e-10  1.0090523841292269e-09  2.9075916568184916e-10  3.1988030960319533e-10  2.7880704104250456e-10  2.7019730493546249e-10  9.6883796769972426e-11  3.0674495046582049e-11  1.9367952760946222e-10  1.0137840041819972e-10  2.1157394447235738e-10  7.5684285378601939e-11  1.2186649580220714e-10  2.1065175577821544e-09  1.7789867505250825e-10  8.0120606582429532e-11  8.1695718016945140e-11  4.0409765968306518e-10  2.4416905552338729e-10  1.9018447920140986e-10  2.0807975785873104e-10  4.4096812355554271e-11  7.6978120123901220e-10  2.4244277200183098e-10  5.3497146130882643e-10  2.5007228739303728e-10  2.3704752011720600e-10  3.0853832913896889e-10  9.4338466383708433e-11  3.2664585984707639e-11  3.5544786812685317e-11  3.7693942888359541e-10  3.4732276880689719e-11  1.1296311154157379e-10  1.0304341124364767e-09  7.5031527039847727e-11  3.4211222463404910e-10  2.6024085028837888e-10  6.1641553408500578e-11  5.8554877165452807e-11  1.8238281811633756e-10  2.4719249031943356e-10  4.7314609719629808e-11  1.1275007839825297e-10  1.5832716741621199e-10  7.5079044901587478e-11  1.6895277159569986e-10  2.1698100470081084e-09  3.5541607111157866e-10  3.2110091502581274e-10  1.0744928975724042e-10  1.0600064975998783e-10  1.8306348841755804e-10  7.8015659991386602e-11  1.3437319032890841e-10  4.9417425029615937e-10  8.6039044317559818e-11  2.3727656289106480e-10  2.1304658812911041e-10  1.3934712774248491e-10  5.0047776960810070e-11  7.5303832360670706e-11  5.3270200071022225e-11  3.9438856297781951e-10  1.0462633598312320e-10  2.2014424007471203e-11  5.7448775670640203e-10  2.9886626147603379e-11  6.2409929154174605e-10  1.1580123796253910e-11  1.2921233037459806e-09  1.7792945221994440e-10  2.4726396140189520e-10  1.0264938230516305e-10  2.8260287339854669e-11  8.3583312901309421e-11  2.7358463019644368e-11  2.0399339424610988e-10  3.7367106405342569e-10  2.7098162338602414e-10  3.3297039789917560e-10  1.3563185013804427e-10  9.1250781592284764e-11  6.1781821949018504e-11  3.6830469546959890e-10  4.9894545319240154e-10  1.0525980546161608e-10  9.9662431308976434e-11  1.4536706157132702e-10  7.5296930580575570e-11  4.4504690938503879e-11  5.2712254806119380e-11  3.0969604828888135e-11  8.7804925436179891e-12  1.7512414254331882e-11  9.6004981195195901e-11  2.1608844952323864e-12  1.0600635602126634e-11  1.8664714208376048e-10  3.5194634183107538e-09  2.1577621622421045e-10  4.1109174409985507e-11  2.1935129176412156e-10  9.1601985595572588e-11  1.1152650540511454e-10  4.3248270982362405e-11  1.6627758711581149e-11  8.5252627623465648e-11  7.5500899350162998e-10  7.8556863960481353e-11  1.8408349929764624e-10  3.2317679840695000e-10  4.8833765257963457e-10  9.6501105588195572e-11  1.0141351745271756e-10  5.7560445760738258e-11  7.6552709513486560e-11  1.0909792368747905e-10  5.6407000644040863e-11  6.2068732362325427e-10  5.8792113106213748e-11  2.8175283974294305e-10  8.6909324140642635e-11  1.2734166729401699e-10  3.0740979148620153e-10  4.1335880201402475e-11  6.1218903421850431e-11  2.7564400216765613e-10  1.1668931710688828e-11  1.1227105956610450e-10  8.6897551259064018e-11  7.5755122649929114e-11  5.6704647693228702e-10  1.6225761373076880e-09  3.0812156243169540e-10  2.9052592509232036e-10  9.0121172169426997e-11  6.8178339713090429e-11  2.5064399275311698e-10  1.1606659000796783e-10  9.6767778192721505e-11  1.0223952854170058e-10  1.9678222955623019e-10  7.2782472656664436e-11  5.1510679249496617e-11  6.9124853321813576e-11  3.9082696057128519e-11  8.5285886332795091e-11  1.9313084753073036e-10  1.6295934162541934e-10  1.1220284121707538e-10  2.8017672652967848e-10  4.6406983351757161e-11  1.3528651930086613e-10  5.3042716909257274e-10  6.5529509509448105e-11  1.1564055301299621e-10  1.4307120065377433e-09  5.7746380295172737e-11  3.4248633214641986e-10  5.2125104429882695e-10  1.5907040432951308e-10  1.2711654537119336e-10  1.2605323634485780e-10  8.7943052593501921e-11  2.5329412896094985e-10  2.8845459398448977e-10  1.7739716902144602e-10  4.7654385878390845e-10  4.2642751337240395e-10  1.1973089702911366e-10  2.0711721179796217e-10  6.5520533227750366e-11  8.3569558382547257e-11  6.1940913374789085e-11  2.3623067293538855e-10  4.0126155592192021e-10  3.0909717674145820e-10  3.2735140012179939e-10  8.5134585397418587e-11  2.3162811114834167e-10  4.8641634088626508e-10  1.7191904587043944e-10  4.7087256125269140e-10  1.7987664557860707e-10  1.3732467906164521e-10  1.1053157939575414e-10  5.0718935726581439e-11  5.3102777045150423e-11  3.3013208603844395e-10  6.1956734500161582e-11  6.4269401132866530e-11  1.2800728799626496e-10  3.2169921679458396e-10  3.1875133441335887e-10  1.5693525097143304e-10  1.1742374048866905e-10  6.0594470204029633e-10  6.3782503278129167e-10  1.6453832939430800e-09  2.7361390088294929e-10  2.0085626832840043e-10  4.4959308693098664e-10  4.5689606600618854e-10  1.2046698946341670e-09  3.0089067889892294e-10  2.4154553351875229e-10  3.2669854932014351e-11  1.2638155467010195e-10  3.3907505529487229e-10  5.2876861505514209e-10  2.1426188521102255e-10  6.7643971596600340e-10  2.9935919489369041e-10  2.0987971668142853e-11  4.7771447660611507e-10  3.3362111118730772e-10  3.8519899980783399e-11  3.3519945412901200e-10  4.1394266831552581e-10  5.4647280316130216e-10  1.4597026550312491e-10  6.7440895321441706e-10  1.9491237640499963e-10  4.6677070713911316e-11  1.2668940871199817e-10  1.3167575448461958e-10  3.1348357759706504e-10  7.7062101806957411e-11  2.6295388268333268e-10  1.8985443769562929e-10  7.9005085514050254e-12  2.0676464202464171e-10  5.6995183178618281e-11  8.9178610854821533e-11  1.2239298737795240e-10  6.4320226279317701e-10  4.1798738752881087e-10  3.1015491197771839e-10  1.1650491827681141e-10  1.3026892616110771e-10  9.2325278336409285e-10  5.5475132511724311e-10  1.3387117366952397e-10  1.4160209865904097e-10  9.3703309105592436e-11  4.9153970690933310e-10  1.3562890871291491e-10  1.7130777470403280e-10  9.3745872529701837e-11  6.9671453720312272e-11  6.2786241285171090e-11  1.4680298319335106e-10  9.6209047564668404e-11  1.3021413889661814e-10  4.3123611364190650e-10  7.4503394392223439e-11  6.1119394667954343e-10  1.2540929684991039e-10  2.2503017056047145e-10  2.7544108431630752e-10  5.6303062979747298e-10  1.1503221863692937e-10  4.0370448520679808e-11  6.1512565407646655e-11  1.4172981089256261e-10  1.5768630643868125e-10  5.1208105727121762e-10  8.2549879673807811e-11  1.5561538112904528e-10  2.4465493752182619e-10  1.3744797065862796e-10  2.3435908456445840e-10  3.3115772317449616e-10  3.1418994012013255e-10  1.0274047634066406e-10  1.7345441177708800e-10  1.4860665967227391e-10  2.2792062122097136e-10  4.6545406741665122e-10  3.7501254183670086e-10  2.0186722937451669e-10  2.0138496784014694e-10  1.2228224991993035e-10  1.7011133704679861e-10  3.0245465888384658e-10  3.8210357348141495e-10  3.6306774287329373e-10  1.6644514698255306e-10  2.2046452756744886e-10  1.9368828110958754e-10  1.5103454706585179e-10  3.9674857539882344e-10  3.0940563911932072e-11  1.0425891446216680e-10  1.2669658449297861e-10  2.9467766736161199e-08  4.0770368435059102e-10  1.7347521184325463e-10  6.0847328598683275e-11  2.5885997658804219e-10  1.3673721519701988e-10  6.3295967063273483e-11  1.0372636549369068e-10  2.0343127020735881e-10  2.0377531497774655e-10  1.9029011153335460e-10  1.8741585101982951e-10  3.0609197115184105e-10  6.3569110580083394e-11  7.9604232613461107e-11  1.8928888755371812e-10  1.2322865497868449e-10  3.4776673752256209e-11  3.9972603021334179e-10  6.3906538084955669e-11  6.0643112570772171e-11  1.9243077317346368e-10  9.7150703574059953e-11  2.3494274880204820e-10  2.9230046362341271e-10  1.4973152612600279e-10  7.9197111901675401e-11  1.8307060202736703e-10  9.5171733903847348e-11  3.1945124738513565e-11  8.8710595827853263e-11  5.7615330403457547e-11  7.9027382342574859e-11  2.2982730977364588e-10  4.6455821261851214e-11  6.5161183945754616e-11  9.3063841906048885e-11  9.1747001278324227e-11  9.3157437790138345e-11  2.6244730591134071e-10  8.7803715941752497e-11  1.8317022225306964e-10  2.0666534993343397e-10  1.0173858235846033e-10  1.6126141454969176e-10  3.1525848873841081e-10  1.2270808157992199e-10  6.2276357525477476e-10  1.6978385605121862e-10  1.4767128880897870e-10  1.3971311104781297e-10  2.2309149905145259e-10  4.3485218102308796e-11  3.9210243255153751e-11  7.5864507073711610e-11  4.3735200980344690e-10  2.0202375231296765e-10  6.3557917856171103e-10  4.4836074007324424e-10  1.2072785538980469e-10  5.5369762930774769e-10  3.6289895922104999e-10  1.8684855088414403e-10  6.9587951402387594e-11  9.2729360138458252e-11  1.7523125829759980e-10  1.8851456143657460e-10  4.0691134486410336e-11  4.8260528678135344e-10  2.7691427116266131e-10  3.0817057390277440e-10  5.2243345836984490e-11  3.5265209118752481e-10  2.6247886555935656e-10  5.9544019952459803e-10  7.2897016967760033e-11  6.0162196948782628e-11  2.4040029937322861e-10  7.1589839891055525e-11  4.1617371226635347e-11  1.4477462873920708e-10  2.3862141204751724e-11  6