<?xml version="1.0"?>
<VTKFile type="UnstructuredGrid"  version="0.1"  >
<UnstructuredGrid>
<Piece  NumberOfPoints="4852" NumberOfCells="9430">
<Points>
<DataArray  type="Float64"  NumberOfComponents="3"  format="ascii">-1 0 0  -1 -1 0  0 -0.9999999999999999 0  0 0 0  1 0 0  1 1 0  -1 1 0  0 1 0  -0.4999999999999999 0.9999999999999999 0  -1 0.5 0  -1 -0.5 0  -0.5 -1 0  0 -0.1608775713298009 0  1 0.5 0  0.5 1 0  0.1967448868031411 0 0  -0.3402709270251474 -0.1754573015106853 0  -0.3360696787227007 0.2237254826670477 0  0.1738999624188259 0.3453991320672338 0  -0.1844281433465551 0.5543273015405642 0  -0.5032801513433061 -0.5371210742570957 0  0.4904010713517298 0.2564454384067127 0  -0.06404148389551471 0.2005210923566329 0  0 -0.5061325913258391 0  -0.25 -1 0  -0.5605619680843883 0.5768035311342239 0  0.6612481305592173 0.633195117970304 0  -0.1763213228374678 -0.537379241046925 0  -0.5382784917031447 0.02534976613878491 0  -1 0.25 0  -0.2056231331719066 0.02368045567862596 0  -0.6539296077650657 0.3087848798930282 0  -0.9999999999999999 -0.25 0  0.03932838923388042 0.591018997710518 0  0.1950188748189779 0.1284262906565653 0  -0.1362811421760912 -0.2196024213604792 0  0.3708497328170166 0.6137406255234058 0  1 0.25 0  0.5355652144809806 0 0  -0.75 -1 0  -1 -0.75 0  -0.6447034379155143 -0.3226663786474639 0  0.25 0.9999999999999999 0  -1 0.75 0  0.02757118475249542 0 0  -0.25 1 0  -0.7499999999999999 1 0  1 0.75 0  0.75 1 0  0 -0.02898318711980711 0  0.05426800505479163 0.1418506779688892 0  -0.07749108509730328 -0.02777645341363547 0  -0.7007333195367463 -0.1322066596845963 0  -0.3214180653643525 -0.3468527364209769 0  -0.3393814913976947 0.4366601154217351 0  -0.09962259687504786 0.7638057574087862 0  -0.382428661938294 0.7021584833223284 0  -0.05447821268556922 0.3981856935897814 0  -0.07863420174378337 0.07175127362645337 0  0.3587935963047106 0.3687771428504395 0  -0.7154997823622028 -0.7296343824642462 0  0.4117635361173955 0.08961444166213549 0  0.6899333086233584 0.1912534340209482 0  -0.7470946602845098 -0.5265816812570696 0  -0.3868246539380858 -0.7105112199726678 0  0.7215427141444085 0.4179660433553718 0  -0.7756513606263977 0.09681248171559548 0  0.1966285206415642 0.6980692483115265 0  -0.1980651683087546 0.2878488430027817 0  -0.7984976436387987 0.5769558558600425 0  -0.7162383469422392 0.7659825142529532 0  -0.05168135381572585 -0.3732387580721069 0  0.5844010343652264 0.8161338706640247 0  0.8201341660442469 0.8055260139619594 0  -0.1058212825686256 -0.6972771915811247 0  -0.5137913059553287 0.1622673558239669 0  -0.2012558895849834 0.1252670993293239 0  -0.3584858148586613 0.07509527828542012 0  -0.3645355809839871 -0.05228493774101661 0  -0.495857014535646 0.3943792668990671 0  0.375 1 0  1 0.125 0  -0.01176362908906642 0.07103532149436372 0  0.06224990377940778 0.3911026261426905 0  -0.1710736505870904 -0.1222040363295118 0  -0.2423448937050203 0.773305011069906 0  -0.625 1 0  0.5332259258175958 0.4534880254725989 0  -0.5753886307492233 -0.8299531517438501 0  -0.2569410817246988 -0.7836664769585012 0  -0.3194108250957908 -0.5081005221553564 0  0.8339100908776611 0.5947612638807499 0  -0.5480377022280436 0.7904765698631522 0  0.125 1 0  -0.06730758806585192 -0.09334063970605273 0  -0.4940467130705782 -0.1430134644790685 0  -0.8750000000000001 -1 0  0.02956172430577393 0.04149571003726674 0  1 0.375 0  -0.8749999999999999 1 0  0.057378185115656 0.7935575670817339 0  -0.1961774873228843 -0.3731894205804581 0  -0.07243744244805894 0.5704185366294031 0  0.2363512236595514 0.5171763053091476 0  -0.791916367676421 0.2290416052515979 0  -0.4947691393058408 -0.3886679260416357 0  0.0003208718378401596 0.2705138450216302 0  0.509619850795893 0.6395227649121501 0  0.3986183804505548 0.8069242738219505 0  -0.8057884708183011 0.4239473224133809 0  -0.06435943210726952 -0.22036707128215 0  -0.7091751862374523 -0.01415004587011464 0  0.09048241440877045 0.05230263376665122 0  -0.4777560188144129 -0.2509111338604511 0  0.7238462402806499 0.08270798396982504 0  -0.8083824918138233 -0.410715514473795 0  0.3374270430551929 0.1531092035945702 0  -0.7942502377905712 -0.2505353253669793 0  0.2362327366183806 0.2537012456569796 0  -1 -0.875 0  -1 0.875 0  0.184265018970328 0.04770395367437149 0  -0.2472567500024445 -0.2287453103529773 0  -1 0.375 0  -0.1706542552848717 -0.04171088087049636 0  -0.6481829114918984 0.4668572903584566 0  0 -0.07736776745332727 0  0.08048081431321993 0.2592874961578917 0  -0.375 1 0  -0.2161957101231809 0.4241123157267187 0  -0.1196344181424494 0.1497664586071064 0  0.1332280385109622 0.5534848637535006 0  0.1319149771964647 0.1932724847865074 0  -0.4739930614420781 0.2689549491428036 0  -0.04603752164878502 0.0138792907283478 0  0.8514591108684412 0.3698040776320523 0  -1 -0.125 0  0.2854314308581427 0.836556129767286 0  -0.1102893455536701 0.3124233336955859 0  -0.125 -1 0  0 -0.7575037395175259 0  0.07821397079968176 0 0  -1 -0.375 0  -0.375 -0.9999999999999999 0  -0.625 -0.9999999999999999 0  0.7474787146812756 0 0  0.625 1 0  0 -0.2918843213980812 0  -1 0.625 0  -1 0.125 0  -1 -0.625 0  0.3284075310660084 0 0  0.004929205892015135 0 0  -0.125 1 0  0 -0.006571003003944568 0  1 0.625 0  1 0.875 0  0.8750000000000001 1 0  -0.5619788986022926 -0.6761207141012883 0  -0.004536406790351345 0.1598307258123225 0  0.3622591165000675 0.2624631542479856 0  0.652922951084089 0.2933894711812544 0  -0.8544485861650528 -0.646269589688507 0  -0.8632269836388698 0.7868603668543194 0  0.4302848387716231 0.5006771324611922 0  -0.3980497345268695 0.8556302815753807 0  -0.7784135522563066 -0.8746413141079941 0  -0.8702408545757081 -0.7841157143781898 0  0.1540950696919073 0.841925031534176 0  -0.6580102429964635 0.1523711543487244 0  -0.5771169791751237 -0.06404060360647618 0  -0.8543655724752212 -0.06249761449889805 0  -0.295198642275082 0.5616486709776496 0  -0.4229031685123623 0.5694064760368369 0  -0.375284549158015 0.3304720803410438 0  -0.6179638036995689 -0.216070024316551 0  -0.27237888817111 -0.08989004278796087 0  -0.6395316506658849 -0.5881759694821127 0  0.859728233662722 0.2657837901852059 0  -0.03273849689437625 -0.0329171316609765 0  -0.05451363656927492 0.1142891239832977 0  -0.1331998149935327 0.4314149029240756 0  -0.1194441294303979 0.03229157381038895 0  0.5377317090931769 0.06445392018894283 0  0.5791332826350577 0.3587087110589226 0  0.6910667033601179 0.7743828662644211 0  -0.7931967036492021 0.8810101562748804 0  -0.642918782821095 -0.4287981092745071 0  -0.1170290751683492 -0.3966263320436967 0  0.8722296739352883 0.4883080532628286 0  0.07594691223303172 0.09361614999103951 0  -0.6642678078631883 0.8679814471246717 0  0.4545118795250551 0.3500165099167153 0  -0.02619389376807145 0.03574519701983464 0  -0.4087709056174923 -0.439911510799857 0  -0.3615637332539423 -0.2684205539394357 0  0.3233964502493937 0.4811546186510786 0  -0.1955059120250723 0.2010771016589472 0  0.7055310868077127 0.5302839934748595 0  0.2617058918200236 0.3554769505867578 0  -0.3759961515348526 -0.8518967174719124 0  0.1092074344836117 0.6815632426896061 0  -0.2843830799653238 -0.6118163857015421 0  -0.4406428206747283 -0.6198844082843084 0  0.2960350740252205 0.6918685696598014 0  -0.8747630987465719 -0.174629394095768 0  -0.1797498935640803 0.8547680671552608 0  0.4546586959154114 0.1630106324011464 0  0.2802325296320911 0.04655669052577708 0  -0.1418610297060009 0.6570578413160041 0  -0.01114851198731021 0.7082550358655987 0  -0.05321562108584606 0.8748478108960813 0  0.005634740680421735 0.469271301201924 0  -0.3870349715978045 0.1531599554107102 0  0.5491054788307497 0.1329457941153347 0  -0.4751910333146739 0.6820620595359941 0  -0.8512854642099029 0.3324929528260693 0  -0.09142720243040343 -0.5359517112162484 0  -0.0277858665905371 -0.551945403602896 0  -0.2136195695797957 -0.2872780822976941 0  0.8685171099379716 0.1514095808546824 0  -0.1694369064987984 -0.6609072611565686 0  -0.889116626594725 -0.5282070708660151 0  -0.2810503372038394 0.3378094737280765 0  -0.6757528425771336 0.5736907784777928 0  -0.8973096780831756 0.5311728174215226 0  -0.8982254578488451 0.6607118775878795 0  -0.6439280328298379 0.07222641657204955 0  -0.8589370867559679 0.02852130020557267 0  -0.8879832810931836 0.1677676160133514 0  -0.1297099882406195 0.2285350956514049 0  0.1603386831216562 0.4456375908708368 0  -0.0434948935142931 -0.1257265267541295 0  -0.7530379027451758 0.6697138543333332 0  -0.6018731042001061 0.6976280309536376 0  -0.2538737443374821 0.07835327529276136 0  -0.2487226215595509 0.6484296171707669 0  -0.02735606954537426 -0.006355665682731558 0  -0.4939892049460484 0.8768973836024654 0  -0.4761907975274682 0.4900566769484048 0  -0.2898615328261853 0.143754877279347 0  0.002297588870294427 0.02356999454614688 0  0.7793577692723659 0.6831812718120068 0  -0.4692303650181056 -0.8247249225985731 0  0.2718442560699912 0.1945852165299304 0  -0.1485191128798239 -0.8633810180827511 0  -0.06551453693938639 -0.8298020330203003 0  0.4431197496582405 0.705571205260494 0  -0.1175550350045212 -0.2879220574724398 0  -0.2644343712258781 -0.02614811996782532 0  -0.8936859983985919 -0.8964015496407735 0  -0.572361496258275 0.236780672969092 0  -0.4755785242587401 0.08738864770949591 0  0.4909646918159761 0.8255446242125181 0  -0.02850629881092578 -0.2601826986933297 0  -0.3097132187484563 0.8752665121694789 0  -0.1426424751330151 0.08034201383166553 0  -0.4688105262396133 -0.03485721228067494 0  -0.3874399728316802 0.01208062503713241 0  -0.2912091604684265 0.02748990827004113 0  -0.3844999828420266 -0.1202563570232369 0  0.8881043855700649 0.6977630805209224 0  0.7925013367892579 0.9105979245538693 0  0.5765760876218448 0.207574229074994 0  -0.5596707877372163 -0.4690259119737153 0  0.5985987438396234 0.7055577583892253 0  0.6780210643217749 0.8881639725280928 0  -0.05075107921386916 0.302657400975295 0  -0.902106289222481 0.9045990556390006 0  -0.1272436414599689 -0.06704305995087632 0  -0.1688782565573836 -0.18231
[...]
<PointData  Scalars="w"> 
<DataArray  type="Float64"  Name="w"  format="ascii">1.7541065514359216e-10  1.0372776563456412e-11  4.4428317804132310e-10  2.5912689321077777e-09  6.2392828529056719e-10  1.5665166163511184e-12  8.6848048094045337e-12  7.5178635373968626e-11  4.0743674642288427e-11  2.1164713811996069e-11  1.0843025836711359e-10  9.6411790256718675e-11  4.0288020165249906e-10  2.7868312333203721e-10  9.1734946252381692e-12  5.2243780876600170e-10  9.0902525901005779e-11  7.2394545995417867e-11  1.3075493852691825e-10  3.5734820277752589e-10  6.7251111695687900e-11  1.0429358749720201e-10  5.7277701051156518e-10  1.6287301284066586e-09  5.7791933739505250e-10  1.0907464744453339e-10  8.9368023624846057e-11  1.7147525262985560e-10  7.6667234926430975e-11  1.8853670222150159e-11  4.6788360728237626e-10  9.8351345127791232e-11  2.4402475938070689e-10  1.8180744693435210e-10  4.5262384444000193e-10  2.2512728695761030e-10  7.8524419878525137e-11  4.7923496791754222e-10  5.8579569504073372e-10  3.1335717237916132e-11  5.2969474483306535e-11  1.0837938315743420e-10  9.3075229915529766e-11  1.9846836651291942e-11  1.0441996423887688e-09  8.8102472260409398e-11  3.2143891799054800e-11  9.6997021839232899e-11  1.2358406364744952e-12  5.8689474995370797e-10  2.1989265011006798e-10  2.1287700744845897e-10  8.2741163764283630e-11  2.5212695851445180e-10  2.6098999623112018e-10  2.0632266020879295e-10  3.5940715850067560e-10  8.9378852379912852e-11  5.7570580237518386e-10  2.5192332624510898e-10  3.1564798656509590e-11  3.1395542223652834e-10  3.7907146760768148e-10  1.4444791905284138e-10  5.4460542315386527e-11  1.7846658032936217e-10  7.1024573781383940e-11  1.7909849399548148e-10  2.3333233635244622e-10  4.6334485088172601e-11  6.5182542699275415e-11  4.2604196654086897e-10  5.7219263938670095e-11  8.8752923111435592e-11  1.7320551283479665e-10  1.7089160401036725e-10  2.5634898119817066e-10  2.9127132559213499e-10  1.8289238846141767e-10  1.9637045365319133e-10  6.5449726199882535e-11  2.5231495932978053e-10  2.6102536754281489e-10  2.0150702360779350e-10  2.3405606124932277e-10  1.2561741715742455e-10  4.6980799793131343e-11  1.1025685878831826e-10  9.5207131905319872e-11  2.5362648760422098e-10  6.9356828245354990e-11  9.9972636015461235e-11  7.8887853217399408e-11  9.5008702002930007e-11  3.8882346599309964e-10  2.0991172987821115e-10  2.5657365432747292e-11  6.4925129793457893e-10  2.5727762840278233e-10  3.1770948645711954e-11  2.7889416838661215e-10  4.1223252143173946e-10  7.1140819816024880e-11  9.7414764284621695e-11  1.5779073216625455e-10  6.3843691614693062e-11  2.7359798961482149e-10  8.3806401876890474e-11  1.4782823842874992e-10  6.6515674432479380e-11  3.1101026757823717e-10  2.4831002817948908e-10  2.3066623082372062e-10  6.4422681934050809e-10  1.2088351832558267e-09  1.4989180339401882e-10  1.6453395049258581e-10  1.0282667956059913e-10  4.5823333911195241e-10  2.6107594126117522e-11  2.5769461695795908e-11  2.7727065345962058e-10  9.1232324680073108e-11  6.1648625181325024e-11  5.0101433686622378e-10  5.7894025739597931e-11  5.9455645111589329e-10  1.1845962743761232e-10  7.7349509004005523e-11  8.2849793623940003e-11  3.4127881049388691e-10  1.7380235284741888e-10  4.6421638148147043e-10  1.3583784316638495e-10  6.1663585216353470e-10  4.4751873981668178e-10  1.0969781839858700e-10  5.2399454116230421e-11  1.2995134587144524e-10  2.5671158781682954e-10  4.2068965543559464e-10  6.0029969064539428e-10  9.3700451781811571e-11  1.2017234915910428e-10  6.9461133912636861e-11  6.5541114900295182e-10  8.6936441370727454e-11  3.3251888217746810e-10  1.4879282527703254e-10  1.2477102299136356e-10  2.0179238821311115e-11  2.8259333445018930e-10  1.5688541944298649e-09  5.7128878938792441e-11  9.5584696207082150e-10  7.9683838222254947e-11  2.4748491233442654e-11  2.4414079648934508e-11  1.2244112480920998e-10  5.5817418504141629e-10  4.4391104146257878e-10  1.6104699889614709e-10  1.1605798846392609e-10  1.6826320442117572e-10  1.8799357175941866e-10  5.9013547399766086e-11  7.8574953614096007e-11  2.0546010054347828e-11  6.0468327203867421e-11  2.9678617989534289e-10  9.2331274896296456e-11  1.0642976855709424e-10  8.3040900010490066e-11  9.6986714820050673e-11  5.3526735596691921e-11  9.6162835619121911e-11  4.5563407706760206e-10  5.7377333640113864e-11  1.6411103897588652e-10  1.7115346997404772e-10  4.6162856743756251e-10  1.9877758165088971e-10  2.8158949583259857e-10  1.4257386929892664e-10  1.4512897679887221e-10  1.5158527759804701e-10  2.1216140931999919e-11  2.8840762827814723e-10  6.5734888576842360e-10  2.5747155699071704e-11  2.5034564824318866e-10  8.9975092373428496e-11  1.5804218267471787e-10  1.1006760306368472e-09  1.3712467151009266e-10  1.6348867888196760e-10  2.3446900701290342e-10  2.8743783360810925e-10  1.0657165824737044e-10  2.0471050808500784e-10  4.2270059923616310e-10  2.1975009395569497e-10  2.4109890415587253e-10  1.1026289712644036e-10  1.1320843768659311e-10  1.1343263742760892e-10  7.1835156760882787e-11  2.0824614364587005e-10  8.8131895973974988e-10  7.8388822928704902e-11  1.0900602482613581e-10  7.7924406231456766e-11  9.7183313098379137e-11  1.6250129352837578e-10  3.7715882662710610e-10  7.9770044373000320e-11  8.5998247373423104e-11  8.1095323774138637e-10  5.3827827398278125e-10  2.9207659918389284e-10  1.9965171554823630e-10  7.7009515148029979e-11  8.1481272104881225e-11  3.3738205605974521e-10  5.9252551058680692e-11  8.4244745936280104e-11  5.0537508678488096e-11  9.3726811687383725e-11  4.1684321176455462e-10  9.1052215805532628e-11  1.9722666274139056e-10  1.6668220777693151e-10  8.9817272809985754e-10  6.2363716360354466e-11  2.0053672882218055e-10  1.1517482198545274e-10  1.1300062846403482e-10  7.4323411797065431e-10  7.5935198898451210e-11  8.5832939501843885e-11  1.1816462225776401e-10  1.1028109587837475e-09  4.1399904635911197e-11  7.8365229201293331e-11  2.7831051977570179e-10  2.5218125189949613e-10  3.4610542625998617e-10  1.8405567974503103e-10  2.0433645321949993e-10  4.0435257740851342e-10  2.9682946525484258e-11  1.0597329738949421e-10  1.2857176087383219e-10  3.7883181911127726e-11  2.7072486076556771e-10  4.4226851665383145e-11  3.3243981366467949e-10  1.3607371741185056e-10  1.1050265312933758e-10  1.9126141486371472e-10  5.0330340180770754e-10  7.3646688242594729e-11  2.7210515896489290e-11  1.4482374662025751e-10  8.2411901552232338e-11  5.9952247038826819e-11  7.7098972796794829e-11  1.7906218280058475e-10  4.9652173297197088e-11  2.6297728821690200e-10  2.5407494368578825e-10  1.2851005855514658e-10  1.2831989483917179e-10  1.3845701720618817e-11  7.1428575172598593e-11  1.4608491718554505e-10  1.6979829874817963e-10  4.9515494613369962e-10  3.7004357005022424e-11  8.2496140730822234e-11  3.3717522484871082e-11  2.3758612656106622e-10  1.2643337201659175e-10  1.8637200982221467e-10  7.5250405542918954e-11  8.8799265783896993e-11  1.2163024737821308e-10  2.0365589148709692e-10  2.2390332510441596e-10  2.6174270823428377e-10  4.3638606325129813e-10  2.1438659908333682e-10  2.0948590078942367e-10  1.4576302434125159e-10  8.0319571056076310e-11  1.7210403850576692e-10  1.6616934276095397e-10  6.2261430853197925e-10  1.3046431594790100e-10  6.2643171674071554e-11  4.0591802845824643e-10  1.8904471861653894e-10  2.0996884506153714e-10  1.2334008588907104e-10  3.3018183957050228e-11  4.5071819187352663e-11  9.9563217205788544e-11  6.7728633816725901e-10  2.9240888938476410e-10  1.8128735424114397e-10  1.3721657378295170e-10  3.3760322452278435e-10  6.7617441431614104e-11  1.0996091520289162e-10  3.5209784458965257e-10  1.4200370189399326e-09  9.9586212519419212e-11  2.8201414606860547e-10  6.1124379279802650e-10  1.2225076426045299e-09  1.9695640980530673e-10  1.5188006948862543e-09  4.1706335509049341e-10  2.2593274413503542e-10  1.1582454049026719e-10  4.2210949722627549e-11  6.6452334355745027e-11  1.2651638693788050e-10  1.5727320621524087e-10  6.4192632476431897e-11  9.8761544637139837e-11  1.0722414069829745e-10  1.2795780377223508e-10  1.9199066597030567e-10  4.9448471489289319e-10  3.1814645653201404e-10  1.6659810317746994e-10  9.6568734429589997e-11  6.2046313562914158e-11  5.9418646075872050e-11  7.0977862663944871e-11  1.8288180025852222e-10  2.2828269771318777e-10  1.0681128006263592e-10  1.0662854358055557e-10  2.4018985645193565e-10  1.3718656039030290e-10  7.0366169613706432e-11  5.9787455253314930e-11  1.0555867488808818e-10  3.4501898704001626e-11  1.8824613393447029e-10  3.3217516165274412e-11  1.6099822769982520e-10  1.7947114941373352e-10  1.5168722845722434e-10  4.0316695220049867e-10  7.9706477681809013e-11  8.3644927332473940e-11  1.4579834012766300e-10  3.0927838630297261e-10  1.4446481605383715e-10  2.6351743577948340e-10  1.1122819425557689e-10  1.3648570337597498e-10  1.5873783052061121e-10  2.8079592862517481e-10  1.2743293279816056e-10  3.3966265860109105e-11  1.1847587181717192e-10  1.1260462285475050e-10  1.4889234195117058e-10  2.5553268629395172e-10  1.7218258532543817e-10  3.5275713056522473e-11  1.3005789109348399e-10  2.3318824702020764e-10  2.9434337129409032e-11  3.3038035803285387e-10  1.6331440270877376e-10  3.8716365897770940e-10  1.1290244884120459e-10  2.3811835710741468e-10  3.2598266822505802e-10  7.6230210334863685e-11  1.0610607698445271e-10  2.1923730122849034e-10  7.4365888566041453e-11  4.8239994146599395e-10  1.5964464843508028e-10  9.8917383024780367e-11  1.0918386425357280e-10  2.1086479718936732e-10  5.3950798342671235e-10  4.7516661949659149e-10  1.8196807275115723e-10  1.7270362526710973e-10  2.0921011242570952e-10  4.0350802079838145e-10  4.5771564470771285e-11  2.2660869326308797e-10  8.2411705238545988e-11  1.2380501099646554e-09  1.1844178383771567e-10  4.6199715141592483e-11  5.4621888717732776e-10  3.3109133662969149e-10  2.4725585529394248e-10  2.1183699334645116e-10  6.4581236763107358e-11  1.5436137098890735e-10  3.3768676334727302e-11  4.3814689837823411e-10  8.2848706755680781e-11  1.3881020125421893e-10  1.2787611484459509e-10  6.6432821048688669e-11  3.4928215569662436e-10  4.3640123263646944e-11  1.1900439090118445e-10  2.4393413681983588e-10  1.7881038880818828e-10  7.0953096634923445e-10  9.3245901439369914e-11  5.7444046963475898e-10  1.4912543583466708e-10  3.5248338292530632e-10  5.4668585546946092e-10  2.4349510402874830e-10  1.5530203285650782e-10  2.7154723061009851e-10  4.7833096239226245e-10  3.4474118683479899e-10  7.5929068650903184e-11  4.9632308024611540e-11  1.6312623562847682e-10  3.5523398228102640e-10  1.8764796954689134e-10  1.2819055421934301e-10  1.7290015897112293e-10  8.2056564125663397e-11  7.1923557818852998e-11  1.9978571751681032e-10  5.8464487878628258e-11  2.0805304552088759e-10  9.0889642793429080e-11  4.7830546260892901e-10  4.9885406244671296e-10  8.2321278601677343e-11  4.2022098146853623e-11  3.9632774416763178e-10  6.4656814803473571e-10  2.5893394976052850e-10  9.7935300347759226e-10  2.8733502097569366e-10  3.1628330066816247e-10  2.7127225955205541e-10  2.6503488790356092e-10  9.7958016003436078e-11  3.1641210453488239e-11  1.9458930970606194e-10  1.0666562031615280e-10  2.1621133398603081e-10  7.5634932660927435e-11  1.2459799523926882e-10  2.0321347416179195e-09  1.7680260116678708e-10  8.1402485230840626e-11  8.2962217035595337e-11  3.9813650001991195e-10  2.4262149545598660e-10  1.8973090228723290e-10  2.0810273537949601e-10  4.4971526858816300e-11  7.5244131292720812e-10  2.4194428908080090e-10  5.3318700417166184e-10  2.4849412240220269e-10  2.4358606106666192e-10  3.1333703735701052e-10  9.4562625078610067e-11  3.3221311007428143e-11  3.6311865484624518e-11  3.6617876541002366e-10  3.6295886654472154e-11  1.1779029683457011e-10  1.0180785440317401e-09  7.5324430174954699e-11  3.5317331970293311e-10  2.6378898465345475e-10  6.2216942358419801e-11  6.0413026937652784e-11  1.7933954540182766e-10  2.4465444953484775e-10  4.8952273404865777e-11  1.1340590574992932e-10  1.6200079592492289e-10  7.6505753187710455e-11  1.7081366652563496e-10  2.1151350343302932e-09  3.6589552518787750e-10  3.1923153978888508e-10  1.0680156375096582e-10  1.0850381858206715e-10  1.8954235562589313e-10  8.1198587403330287e-11  1.3454170525825768e-10  4.9963052566927568e-10  8.7267999730067736e-11  2.4379178183394225e-10  2.1660324056894857e-10  1.3899830988249114e-10  5.2034089454218001e-11  7.8633274892451051e-11  5.6188648479500688e-11  3.8419664259643795e-10  1.0691609858001066e-10  2.2147441852382239e-11  5.6987384668672299e-10  3.0961630671040811e-11  6.2042794660579677e-10  1.1726701622708380e-11  6.7084183440596462e-10  1.7446128479363027e-10  2.4892508680537200e-10  1.0547422639411802e-10  2.8877621847082007e-11  8.6044721237770430e-11  2.8148540872924458e-11  2.0802335629980499e-10  3.7228088037969800e-10  2.7171444562861594e-10  3.2761425304876422e-10  1.3459954852009043e-10  9.4738171535464408e-11  6.3917483678514748e-11  3.5977200471230248e-10  5.0414297962204993e-10  1.0605781132360208e-10  1.0115986477784653e-10  1.4745935098932376e-10  7.6947555271536764e-11  4.5825400242883782e-11  5.5261794687209252e-11  3.2321242684231347e-11  8.8979108875737961e-12  1.7910578068488678e-11  9.9578769234254577e-11  2.2492908628396422e-12  1.1058976444071983e-11  1.8595879216858228e-10  3.4825892747160676e-09  2.2623421590307915e-10  4.2992540413290070e-11  2.2071333154886137e-10  9.3708115187758893e-11  1.1285604934992216e-10  4.4222655700620193e-11  1.7205348579874215e-11  8.8596018470635678e-11  7.2327867752745801e-10  8.0224114208901406e-11  1.8351473402023907e-10  3.2418246161467332e-10  4.8478492523748022e-10  9.6474413218097916e-11  1.0199560785224070e-10  5.8681807272548090e-11  7.7081363923527507e-11  1.1316462477484844e-10  5.7975866755627817e-11  6.1335722367687744e-10  5.9629740678340897e-11  2.7667607209981364e-10  8.8341390897855186e-11  1.2814096655667088e-10  3.1375615742136744e-10  4.1747806308494849e-11  6.3701107146129723e-11  2.8910493245863214e-10  1.2021816760942536e-11  1.1364127862112044e-10  8.8659104850610459e-11  7.7120958536452216e-11  5.6048282941141147e-10  1.6119905832953863e-09  2.9609460836423500e-10  2.8861516784700538e-10  9.0970416722359140e-11  6.9825809849627293e-11  2.5565849194156668e-10  1.1838314677184854e-10  1.0055389656449251e-10  1.0505904572091981e-10  1.9961062276608271e-10  7.4462939894978563e-11  5.3138967135878143e-11  7.1162307738994988e-11  4.0038700695144948e-11  8.7224713425751849e-11  1.9073517514992537e-10  1.6183422413553810e-10  1.1156831486112976e-10  2.7755226813253675e-10  4.7577764819844820e-11  1.3649822592039489e-10  5.1981073967103986e-10  6.7176822078774938e-11  1.1806090105672443e-10  1.3700125660505281e-09  5.8551321915927322e-11  3.3511874603294491e-10  5.0855200182536984e-10  1.5775599074692231e-10  1.2893520914866547e-10  1.2582875020843166e-10  9.0736258816178994e-11  2.4704916165796781e-10  2.8519973157114737e-10  1.7772260735283582e-10  4.6560313475411439e-10  4.2222877005034350e-10  1.2226726325220640e-10  2.1164553876742825e-10  6.7112292711934081e-11  8.5374021244493586e-11  6.2919493395786186e-11  2.4016645428818408e-10  4.0059628945275913e-10  3.0753134121572988e-10  3.2393246420777465e-10  8.6320711094631707e-11  2.2652123419468092e-10  4.7725543720332873e-10  1.7232566375191852e-10  4.8340528701789209e-10  1.8400090613410286e-10  1.3913739167452903e-10  1.1232289920406979e-10  5.1514187392154992e-11  5.4885122406483615e-11  3.3155624279094734e-10  6.3138085575693331e-11  6.5050218280657142e-11  1.3038225355953241e-10  3.2129106417275422e-10  3.1941515304674352e-10  1.5735789325789458e-10  1.1770517293450740e-10  5.8701918553897837e-10  6.2510289415568125e-10  1.5875721322486248e-09  2.6667901911222079e-10  1.9851088054739299e-10  4.4156996313454617e-10  4.5502195975134516e-10  1.1589408501969986e-09  2.9563113106094285e-10  2.4819437623647945e-10  3.3264427901295136e-11  1.3021967687816214e-10  3.3025351618678013e-10  5.0983421987434099e-10  2.1266671602849360e-10  6.6169205311142504e-10  3.0714534525281769e-10  2.1657939461158454e-11  4.8621285866418100e-10  3.3349180488631393e-10  3.8852278021018191e-11  3.3346912871398224e-10  4.1398890458079548e-10  5.4292668428836372e-10  1.4559163757667020e-10  6.7125388181866137e-10  1.9575416319542344e-10  4.7592358614237257e-11  1.2758138726226032e-10  1.3300314504669632e-10  3.1518056824830236e-10  7.9534875035893278e-11  2.6572131896271218e-10  1.9621887848742120e-10  8.2105592236235073e-12  2.4505164393976594e-10  5.8415277644760350e-11  9.0604444419251332e-11  1.2464438673475689e-10  6.2840829324541102e-10  4.1090619657985850e-10  3.0253995745864602e-10  1.1725967641851809e-10  1.3274218854095215e-10  8.9255083307027602e-10  5.3612052248673337e-10  1.3489205435715179e-10  1.4280814889808719e-10  9.3605834850154739e-11  4.8744967678968664e-10  1.3952651077316572e-10  1.7559560476386923e-10  9.5610926491705054e-11  7.0877387598812423e-11  6.3625977276272988e-11  1.5042339945183339e-10  9.8516919509640010e-11  1.2983533181845527e-10  4.3816813518259538e-10  7.7302454066923049e-11  5.9332720040650695e-10  1.2817298648470854e-10  2.2393482232631678e-10  2.8188279994330083e-10  5.4601164573629150e-10  1.1653272297476009e-10  4.1350787767453985e-11  6.3422552755229262e-11  1.4201692467714613e-10  1.5922996381467655e-10  5.1882161921242981e-10  8.4844313529741253e-11  1.6352538683547513e-10  2.5263005060689725e-10  1.3758996655527857e-10  2.3722345360677279e-10  3.3354557397173518e-10  3.1092794741784493e-10  1.0559032569912930e-10  1.7519836888728254e-10  1.4941169435900250e-10  2.2833082433296965e-10  4.7889210846413692e-10  3.7360145915657638e-10  2.0193260348164706e-10  2.0735582621185078e-10  1.2594207420034359e-10  1.7304569559132954e-10  2.9932678823535994e-10  3.8084712938945770e-10  3.6130338788325819e-10  1.6568929159723279e-10  2.1986620776017415e-10  1.9488765355121082e-10  1.5525534295964555e-10  3.9952157086694282e-10  3.1895688467064663e-11  1.0597374720275053e-10  1.2768646275553813e-10  9.6697234924339021e-08  4.0690810720637000e-10  1.7756682913291007e-10  6.1214945805884724e-11  2.5640328996750947e-10  1.3859838858233845e-10  6.4769501209154882e-11  1.0601335248081393e-10  2.0256317243972665e-10  2.0664408082806301e-10  1.9563821271634951e-10  1.8999527154960148e-10  3.0984380142131804e-10  6.5778640267379433e-11  8.0458120147376947e-11  1.9194903091739413e-10  1.2237881240494850e-10  3.5659861093785092e-11  4.0332822300547822e-10  6.5017148774097389e-11  6.2317432816531168e-11  1.9468281411922072e-10  9.9513999107413385e-11  2.3777781847353888e-10  2.9274539779110251e-10  8.7437893762686105e-11  7.8944714043301827e-11  1.8833213001000985e-10  9.6645805968624386e-11  3.2959560726532940e-11  9.1250089363384903e-11  5.8408744187181855e-11  7.8566713098069437e-11  2.2428493210227608e-10  4.7660911408391453e-11  6.6719963890036660e-11  9.4934130578280229e-11  9.4303377149829413e-11  9.4199700307380202e-11  2.5364028727647538e-10  8.7747947804732150e-11  1.8446411523809784e-10  2.0164801383778650e-10  9.8935654891648958e-11  1.6075034529910112e-10  3.1524383718372317e-10  1.2463104270771253e-10  6.1286885256443404e-10  1.7153800143348812e-10  1.4967363399458587e-10  1.3812305072447319e-10  2.3009886319893751e-10  4.4383338553614808e-11  4.0251016420892432e-11  7.7376448198248490e-11  4.3375583945615939e-10  1.9932245120632600e-10  6.4107628648470971e-10  4.4124522267423910e-10  1.2163052367185698e-10  5.4621151660034628e-10  3.6522042085310649e-10  1.8928014921541504e-10  7.1217609604830777e-11  9.4078279267433109e-11  1.7440745891486464e-10  1.8744316025691888e-10  4.1876104411366885e-11  4.8053394589247917e-10  2.7780894885301882e-10  3.0119584571099462e-10  5.4013291858477633e-11  3.5174493036938661e-10  2.6696709603666963e-10  5.7613057843355800e-10  7.3693961573318364e-11  6.2046062465019094e-11  2.3902054181662516e-10  7.3098005295256901e-11  4.2924049332158695e-11  1.4886287136392703e-10  2.4468847486411947e-11  6