<?xml version="1.0"?>
<VTKFile type="UnstructuredGrid"  version="0.1"  >
<UnstructuredGrid>
<Piece  NumberOfPoints="4852" NumberOfCells="9430">
<Points>
<DataArray  type="Float64"  NumberOfComponents="3"  format="ascii">-0.9999999999999999 0 0  -1 -1 0  0 -1 0  0 0 0  1 0 0  1 1 0  -1 1 0  0 0.9999999999999999 0  -0.5 1 0  -1 0.5 0  -1 -0.5 0  -0.5 -1 0  0 -0.1608775713298009 0  1 0.5 0  0.5 1 0  0.1967448868031411 0 0  -0.3433352024127809 -0.1759749802599309 0  -0.3397847912582309 0.2269404309890474 0  0.17490281855349 0.3490913838214953 0  -0.1887593398800566 0.5574788433388305 0  -0.5086884949314778 -0.5406115933156298 0  0.490855670398159 0.2617591392496396 0  -0.06547355198766749 0.2027761280229032 0  0 -0.5061325913258391 0  -0.25 -1 0  -0.5655349475101161 0.5814018257889696 0  0.6639172404076892 0.6400858887545441 0  -0.174495695129779 -0.5393706863718046 0  -0.5418115897519716 0.0270166244708409 0  -1 0.25 0  -0.2079976574734704 0.02423997705681332 0  -0.6566634203688355 0.3141798489282526 0  -1 -0.25 0  0.03932552556043681 0.5944141344853018 0  0.1956960372642768 0.1309993234521691 0  -0.1370677138021397 -0.2207689950915287 0  0.3735168117618459 0.6183828128194165 0  1 0.25 0  0.5355652144809806 0 0  -0.75 -1 0  -0.9999999999999999 -0.75 0  -0.6484185110983501 -0.3253026591648786 0  0.25 1 0  -1 0.75 0  0.02757118475249542 0 0  -0.25 1 0  -0.75 1 0  1 0.75 0  0.75 1 0  0 -0.02898318711980711 0  0.05437198392312366 0.1437539672059037 0  -0.07834900619473151 -0.02812905345991754 0  -0.7031279380206309 -0.1327254977645333 0  -0.3242892048923569 -0.3487001987753114 0  -0.3449964923607585 0.4406781291554946 0  -0.1020477592662037 0.7661196297245869 0  -0.3887788906182365 0.7043266693161908 0  -0.05625323526590453 0.4017500360651065 0  -0.08012532509497676 0.07246548010950138 0  0.3599837307061056 0.3730856420907306 0  -0.7206008855981955 -0.7338989601966042 0  0.412100659684685 0.09254826454629347 0  0.6900315979209314 0.1955564655269849 0  -0.7494654373070075 -0.5319101636522546 0  -0.3923504855656208 -0.7117024981051845 0  0.721650859865927 0.4249961854610252 0  -0.7769019142165173 0.09913294687220119 0  0.1987125988722637 0.7009097060701892 0  -0.2016787691804909 0.290844944937823 0  -0.8013594891632405 0.5808212898443199 0  -0.7197303905730164 0.7688539131857913 0  -0.04903246582445202 -0.3753190573414644 0  0.5879547662585033 0.8191778019704998 0  0.8225635099168471 0.8099509541475679 0  -0.09792868837032781 -0.6965302934113874 0  -0.5176518681725969 0.1659747510459844 0  -0.2039448539116829 0.1268603506344725 0  -0.3617733295666353 0.07691713969317139 0  -0.3676864775818256 -0.0521177337243597 0  -0.5004174297929732 0.3993356981134971 0  0.375 0.9999999999999999 0  1 0.125 0  -0.01188695420805942 0.07190308371480914 0  0.06263881754375454 0.3944185159143951 0  -0.1728409278225491 -0.1225999372654656 0  -0.2464266794773768 0.7749718249040013 0  -0.625 1 0  0.5347485902221573 0.4595453758069055 0  -0.5814364904322662 -0.8314921967506216 0  -0.2586633467146419 -0.7832863794755098 0  -0.3226977450152105 -0.5103566462198699 0  0.8341495297148589 0.6014064631933452 0  -0.5534403049300004 0.7920531124036098 0  0.125 1 0  -0.06799162706270077 -0.09356426734628551 0  -0.4969767372079419 -0.1434527417767113 0  -0.875 -1 0  0.02975304573090936 0.04193978817080184 0  1 0.3750000000000001 0  -0.875 0.9999999999999999 0  0.0578272421221608 0.7952174003158361 0  -0.1967098417774677 -0.3755980122128984 0  -0.07453412339564472 0.5735628055803471 0  0.2381542579721391 0.5211121167147028 0  -0.7936754120363694 0.2338027646160233 0  -0.4987680093159766 -0.3911961254372984 0  -0.0002043929162137703 0.2734519915559453 0  0.5128450850633178 0.6450260396749429 0  0.4017922716746219 0.8097459054730141 0  -0.8080280389317853 0.4284784906058938 0  -0.06414743072583301 -0.2214016638519104 0  -0.7114157451672671 -0.01313995750707147 0  0.09077572678228508 0.05320951576386865 0  -0.4810306819976838 -0.2521121233552322 0  0.7239938481360096 0.08499606991500565 0  -0.8098097922533525 -0.4141428253276219 0  0.3379251278051765 0.1564482267314248 0  -0.7958753186099027 -0.2520936962333775 0  0.2369837212539156 0.2573012109955837 0  -1 -0.8749999999999999 0  -1 0.8750000000000001 0  0.1846104835873399 0.04926223514954797 0  -0.249544598148703 -0.2297453910927887 0  -1 0.375 0  -0.1724432337559985 -0.04195890460087297 0  -0.6521561491072457 0.4721861542879606 0  0 -0.07736776745332727 0  0.08084693347185772 0.2621632351466046 0  -0.375 1 0  -0.2204274401826134 0.4276334669695658 0  -0.1217156508157114 0.151366874663322 0  0.1344729803003028 0.557501600988749 0  0.1325633862765149 0.1959021159169795 0  -0.478320183050559 0.2735948651425782 0  -0.04687307567381038 0.01384625564358815 0  0.8500899214176844 0.3755106541657249 0  -1 -0.125 0  0.2880984142444292 0.8380972831787903 0  -0.1128244767768072 0.3155040595608817 0  -0.125 -0.9999999999999999 0  0 -0.7575037395175259 0  0.07821397079968176 0 0  -1 -0.375 0  -0.375 -0.9999999999999999 0  -0.625 -1 0  0.7474787146812756 0 0  0.625 0.9999999999999999 0  0 -0.2918843213980812 0  -1 0.625 0  -1 0.125 0  -0.9999999999999999 -0.625 0  0.3284075310660084 0 0  0.004929205892015135 0 0  -0.125 1 0  0 -0.006571003003944568 0  0.9999999999999999 0.625 0  1 0.875 0  0.8750000000000001 1 0  -0.5686884792869384 -0.6795397590510343 0  -0.004850362249909681 0.1617273797670413 0  0.3629116623191267 0.2673247052198678 0  0.6531425038218995 0.2995237633605491 0  -0.8571816098744163 -0.6509840192132474 0  -0.8643864578501265 0.7884033320425576 0  0.4322943486598846 0.5059550096496872 0  -0.4027661783415735 0.8559100297046995 0  -0.781775701966087 -0.8769722757687126 0  -0.8731343198771333 -0.7874277884610127 0  0.1555998285163272 0.8433241405722488 0  -0.6607000295365155 0.1561548880174237 0  -0.5806277310009959 -0.06340824457585215 0  -0.8553454758041011 -0.06259774022957199 0  -0.3008698383688875 0.5647936686154662 0  -0.4290362364442944 0.5728226767672846 0  -0.3797910458833079 0.3343665448047841 0  -0.6218257589306757 -0.2172715424086127 0  -0.2751662645076305 -0.0900143861655732 0  -0.6449276059855766 -0.5926573205592228 0  0.8590080636987624 0.2696103290944513 0  -0.03292545078286731 -0.03324179881772839 0  -0.05558989989804073 0.1157003370244407 0  -0.1362961874944126 0.4348323100916556 0  -0.1211008737523853 0.03264948921110911 0  0.5381324108389635 0.06660047991618059 0  0.5800115223495481 0.3648243559527131 0  0.6947152858668761 0.7789418168264793 0  -0.7948759002223575 0.8816875356807409 0  -0.6466478250752734 -0.432979396975913 0  -0.114170132648172 -0.3999443498017058 0  0.8710401213455844 0.4940945877778854 0  0.07632944558221023 0.0948794729469188 0  -0.6674748513248785 0.8684577904853531 0  0.4554996900234829 0.3550954984288616 0  -0.02673755661376077 0.03609077825658519 0  -0.4128062098331995 -0.4423301873831184 0  -0.3646752100213666 -0.2696154826948268 0  0.3251317198584651 0.4854196210045765 0  -0.19870560802944 0.2035854944530663 0  0.7066543839562556 0.5379651999733043 0  0.2627763179386085 0.3593841639070471 0  -0.3807131336846276 -0.851364038819253 0  0.1107031804926123 0.6848149877127194 0  -0.2873055084825585 -0.6136433086639781 0  -0.4461794047528878 -0.6225272418148503 0  0.2983683419410315 0.6952208255966986 0  -0.8763879395831613 -0.1756159471697201 0  -0.1822133189906609 0.8547006814442201 0  0.4550876320959857 0.1670386996716205 0  0.2804794512709958 0.04791058049753753 0  -0.1454340945773045 0.6603682632227782 0  -0.01196233263993947 0.7113010431817055 0  -0.05417491638704482 0.8748200042131915 0  0.004837518939674196 0.4729225841808243 0  -0.390495881425204 0.1561268098923545 0  0.5496990835874502 0.1366230946767884 0  -0.4813533104501306 0.684831293641697 0  -0.8525560146133428 0.3369261179215323 0  -0.08633321118288892 -0.5378181800352023 0  -0.02370109212285944 -0.5536643279312937 0  -0.2151488625482205 -0.2890013961950384 0  0.8680611964114152 0.1537507711120104 0  -0.1661039874117855 -0.661424650170765 0  -0.8912563847309803 -0.5321351811629036 0  -0.2855285577814008 0.3410412249335037 0  -0.6799402046040099 0.5782165199105148 0  -0.8986074276082801 0.5339095758660226 0  -0.8993138975349617 0.6627046950831064 0  -0.6470366104651789 0.07453477357534588 0  -0.8599007769408342 0.02947337992104074 0  -0.8891414034556492 0.1703561072704916 0  -0.1322312666583425 0.2310928732950356 0  0.1616235893373872 0.4489986699132696 0  -0.04386561133820399 -0.1259777832833567 0  -0.756403889092045 0.6737446174142919 0  -0.6068440775738538 0.7012607398093536 0  -0.2568578202338301 0.07970961121493787 0  -0.2537376822752105 0.6512142019174881 0  -0.02763087111998999 -0.00669204157506737 0  -0.4982150331394235 0.8769652905579569 0  -0.4811857741663507 0.4941482987935017 0  -0.2934197770888883 0.1461535769639163 0  0.002441445628202231 0.02387601078055862 0  0.7812563223914529 0.6898089325126501 0  -0.4753430770325031 -0.8251615778498006 0  0.2723913691249458 0.1977587993200275 0  -0.1458590577106108 -0.8623484658054845 0  -0.06181197780825026 -0.8284752488731562 0  0.4467235667019038 0.7096385606023533 0  -0.1168316431245677 -0.2900678793017904 0  -0.2671686120700553 -0.02591012394173424 0  -0.8955529266232992 -0.8980949036984067 0  -0.5759762658077306 0.2415906644954831 0  -0.4793596758129762 0.08993253577009312 0  0.4943963377742757 0.8282329283405333 0  -0.02764861594625204 -0.2607780533377844 0  -0.3129184493233942 0.8748778271339173 0  -0.1447172893402893 0.08132115298542429 0  -0.4721527945817892 -0.03425785570396523 0  -0.390607218928264 0.01298281697811551 0  -0.2941539654003256 0.02837193141185215 0  -0.3876297703927734 -0.1204842415909898 0  0.8886777445498613 0.7025291070988441 0  0.7950028910792986 0.9128499003019355 0  0.5770466685610607 0.2121066196627355 0  -0.5650886446172821 -0.4727111943233847 0  0.6021624914377016 0.7109733126077924 0  0.68102228982029 0.8904446174163702 0  -0.05211846454053769 0.3056384159526456 0  -0.9027914389166353 0.9052290951647243 0  -0.12865
[...]
<PointData  Scalars="w"> 
<DataArray  type="Float64"  Name="w"  format="ascii">1.7351548436258032e-10  9.9662644839287799e-12  4.4681903103640699e-10  2.5706480989514028e-09  6.2999203497391970e-10  1.5556786534839811e-12  8.5900904580577457e-12  7.7161727100265189e-11  4.0721714783190899e-11  2.1263042352890763e-11  9.2163432462747077e-11  9.3032357758419594e-11  4.0938013247302394e-10  2.6155255632848500e-10  8.8636298532120915e-12  5.6230503256919629e-10  9.0697638782241597e-11  7.1751401927583083e-11  1.2949938796471268e-10  3.5133681402109045e-10  6.9621426323922839e-11  1.1131439463646717e-10  5.9451395124153768e-10  3.9715814916437897e-09  6.0363137724103105e-10  1.0360719853840266e-10  8.3559876981891588e-11  1.8582088513451857e-10  7.6516240676835843e-11  1.9887884472938549e-11  4.7724380042313356e-10  9.6655823501908514e-11  2.2423926944469277e-10  1.7658282480505537e-10  4.5349011819119988e-10  2.3550475913131345e-10  7.4331258330418219e-11  4.5099641640247397e-10  6.0535388948646771e-10  2.9889092595829710e-11  4.5286779300212558e-11  1.0324974674632032e-10  8.8105983925651470e-11  1.8738132578367798e-11  1.0813054102167485e-09  9.6819557686352135e-11  3.2374883114919765e-11  8.6284368318073654e-11  1.3861791592196957e-12  6.0149880555322500e-10  2.2900415497949040e-10  2.1809843557828528e-10  7.8581763636551300e-11  2.6281211670282280e-10  2.7127955429501170e-10  1.7962272572086075e-10  3.3346275442764496e-10  8.9814361107456372e-11  6.0292638600258791e-10  2.5494404404137090e-10  2.7683819598452561e-11  3.2771281077352813e-10  3.7499698185117359e-10  1.4291177796282697e-10  5.3064572379867127e-11  1.7594401679752824e-10  7.0733545217220054e-11  1.6200534998396770e-10  2.2976392696880093e-10  4.3382372427302559e-11  5.7822141119906811e-11  4.2992189719796102e-10  5.2926052084026649e-11  7.9832659136778490e-11  1.8343340081011614e-10  1.6740117869628270e-10  2.6971257820203496e-10  2.9400479768849196e-10  1.8010527401750538e-10  1.8016880750194550e-10  6.2915371357482359e-11  2.5054926502843295e-10  2.7431550391113126e-10  2.0151606183306110e-10  2.3997150419580346e-10  1.1686837124572305e-10  4.4743384908517393e-11  1.1064779137397926e-10  8.7547775563215736e-11  2.6814558562928368e-10  7.3094514485677776e-11  9.2654577415820227e-11  7.2835923205309468e-11  9.3629533616105109e-11  4.0512115329215717e-10  2.0580069125661505e-10  2.3362337180527130e-11  6.6311064050133189e-10  2.5999665736799416e-10  3.0330282435093462e-11  2.6168115338665902e-10  4.2965202299697681e-10  7.5197087984604006e-11  9.9275114371332986e-11  1.5818115503884408e-10  6.7379827397378860e-11  2.7593977341096455e-10  8.1757398127710503e-11  1.3629608988768003e-10  6.0948869335231480e-11  3.1953839428739310e-10  2.2758967132702245e-10  2.3652260951780697e-10  6.2197061471609096e-10  1.2207638797703268e-09  1.5652931436539394e-10  1.6588814768258273e-10  1.0718876230624804e-10  4.5871769638589134e-10  2.2992372735262382e-11  2.5030800727616559e-11  2.8084965598936822e-10  9.5076427119293256e-11  5.8078324131167047e-11  5.1106900928860679e-10  5.5452934632410036e-11  6.1583859532334310e-10  1.2274445098201906e-10  7.8130550622835336e-11  8.4256593748907063e-11  3.5353269406808150e-10  1.7731008571934997e-10  4.6556377640549965e-10  1.3362300682719136e-10  6.4275657442992315e-10  4.0394538891713132e-10  1.0607833008400137e-10  5.0852803271519160e-11  1.3451222168176990e-10  2.7065253752061797e-10  2.7401485965590471e-10  6.4199014453508923e-10  8.0206540380474990e-11  1.1743738846422808e-10  6.1985990513617932e-11  6.6941001903679011e-10  7.6528381981256594e-11  3.1986764516575397e-10  1.3757082222604731e-10  1.2430591973737528e-10  1.7819610469093544e-11  2.9139432046830321e-10  1.6280760901211561e-09  6.1620652621632439e-11  9.9737086809201443e-10  7.1998739829163364e-11  2.1158848309538590e-11  2.1594041914623151e-11  1.1890746753666356e-10  5.7285278185528124e-10  4.7478325015828586e-10  1.6012046974194176e-10  1.0173901262160642e-10  1.5662003801651260e-10  1.8615626487556941e-10  5.6959867729872265e-11  6.8935684983191076e-11  1.9042093996410233e-11  5.8892868032867224e-11  2.7473413563181829e-10  9.4373196224069001e-11  1.0486689243281957e-10  8.7280214213276270e-11  9.3873026052630346e-11  5.3026794807626083e-11  9.3865816447366672e-11  4.6004142693822824e-10  5.2099897233865910e-11  1.6484417113333480e-10  1.6807778739555099e-10  4.9201124196068687e-10  1.9510858191914525e-10  2.9385776176498552e-10  1.4905640104612469e-10  1.4355316913755380e-10  1.3639512651433109e-10  1.9867275719268858e-11  2.5439581436589414e-10  6.5576093928202984e-10  2.3965021448249233e-11  2.6245605752796853e-10  8.2290993307880701e-11  1.5831427629093920e-10  1.1683538965530873e-09  1.4194663676233540e-10  1.6830989504280495e-10  2.2727536127590823e-10  2.9451829683739116e-10  9.8597694492892953e-11  2.0428768873710934e-10  4.0145001166489825e-10  2.0485638932157048e-10  2.3625665460314377e-10  1.1082884414153856e-10  1.0722616547158782e-10  1.1232535872976648e-10  6.6880862542332050e-11  2.0987587958850577e-10  9.0820820231349033e-10  7.9809268123453551e-11  1.1005762294512597e-10  7.8474969684635971e-11  9.6329984703566569e-11  1.6505820538530359e-10  3.8333117690772212e-10  7.3476277210372674e-11  7.7096765739225203e-11  7.4420850535524173e-10  6.8807315755213485e-10  3.0597463941411745e-10  2.0355699894617045e-10  9.2401384907248216e-11  7.3969005118388925e-11  3.3031129493889798e-10  5.5207823639822626e-11  7.5371636220778132e-11  4.8049764644369197e-11  9.0264495153581303e-11  4.0283819765475878e-10  8.9697301742713501e-11  2.0407705091147047e-10  1.6006039796183970e-10  9.3464060023206219e-10  5.7872061445991123e-11  1.8591238305923471e-10  1.1831067842343284e-10  1.1065926138591075e-10  7.7942881492539333e-10  6.7932393569914269e-11  8.0091663078611383e-11  1.1672535352349851e-10  1.1648099829703100e-09  3.7405110328070912e-11  7.6185020266545890e-11  2.8081114691158841e-10  2.7047830385205118e-10  3.4715081832516349e-10  1.7099505563734783e-10  2.0819205489508505e-10  4.0499041932487196e-10  2.6916156501784710e-11  1.0153822653711873e-10  1.2677071668989354e-10  3.6136946433201349e-11  2.7932973568656447e-10  4.4065625909925574e-11  3.2835117735355556e-10  1.4024028524906362e-10  1.1094474643690181e-10  1.9476864512416465e-10  4.9504536847152482e-10  6.7895129109094426e-11  2.4615801003462181e-11  1.4788872164804327e-10  8.1001947186927332e-11  5.5212758255951148e-11  6.9712721043153416e-11  1.8742134605893290e-10  4.7549069547409200e-11  2.6115350643095771e-10  2.6068743104724735e-10  1.3230272471170524e-10  1.3001390073036316e-10  1.2034194470501577e-11  7.2719090426090905e-11  1.4708528210702601e-10  1.6125934868397764e-10  5.1311441365112445e-10  3.8413410205959381e-11  8.1695967263874239e-11  3.1978986719171063e-11  2.4607372766239920e-10  1.2278175010754274e-10  1.7372001152658849e-10  7.5466134618586616e-11  8.0853595990672807e-11  1.2141716308425786e-10  2.0483555727838970e-10  2.2231137401363270e-10  2.6685381096352730e-10  4.4264536462087950e-10  2.1319038906298047e-10  2.1250977446158398e-10  1.4567706617223462e-10  8.2083439063341398e-11  1.7368461683964947e-10  1.7782039867133841e-10  6.4255510391488060e-10  1.1943709774984455e-10  6.3408787448074337e-11  4.2331945048495017e-10  1.9503346346211814e-10  1.9020220532786405e-10  9.7896039290969363e-11  2.9273917036377050e-11  4.3912808040854798e-11  9.3831235743800958e-11  7.1524667154991813e-10  2.9471778931930234e-10  1.8534240362140468e-10  1.3426836554456417e-10  3.4011979667385020e-10  6.8525870748825065e-11  1.1428158036801439e-10  3.5777159550666102e-10  1.2683029833513751e-09  9.5973488741181155e-11  2.8244697473501435e-10  6.2927813789716793e-10  1.2600348155742895e-09  1.9873349955898289e-10  1.5735864426840437e-09  4.2730606133427311e-10  2.2550691150645546e-10  1.2511419171040434e-10  3.9494694204820272e-11  6.4827324971270723e-11  1.2485903649871061e-10  1.5592221923983622e-10  6.2656977561411346e-11  1.0101925785739453e-10  1.0989096690485700e-10  1.3393186052317590e-10  1.9409487531496593e-10  5.1758849409980362e-10  3.3260640847405726e-10  1.6321448941672527e-10  9.7385245320492473e-11  6.1874457674432377e-11  6.0624819341363069e-11  6.6228780335297397e-11  1.8474922824899548e-10  1.9585263320371568e-10  1.0341970430632513e-10  1.0176718117206491e-10  2.3571185735614250e-10  1.3301851779993748e-10  6.4689453346714382e-11  6.1687570776227142e-11  1.0561202490223954e-10  3.2560155553369058e-11  1.7210651724208884e-10  3.0225301318436861e-11  1.6011216615421100e-10  1.7570565524136757e-10  1.5637972416534242e-10  3.6090007265273846e-10  8.0881370428752202e-11  8.4424185222804571e-11  1.3327455567658196e-10  2.7546337807064182e-10  1.5119347503775329e-10  2.6331264118095973e-10  1.1168063815450621e-10  1.3151112806967081e-10  1.4154200960836288e-10  3.1856372795303410e-10  1.2974010092328211e-10  3.1519167148638064e-11  1.0899756248040108e-10  1.1054186215125248e-10  1.5033689371085927e-10  2.3146803530486668e-10  1.5895962731442953e-10  3.4456097152122055e-11  1.3158390569064936e-10  2.4642970753842475e-10  2.7586882240124478e-11  3.2950635680519273e-10  1.7013026317278248e-10  3.9221256936866293e-10  1.1765574962295944e-10  2.1222346160589451e-10  3.2766937632502234e-10  7.3562447484591599e-11  1.0335255354105394e-10  2.1214796976733332e-10  6.4934694762576667e-11  4.9488303754182937e-10  1.6465930222748049e-10  9.7090737515270556e-11  1.0468835245630547e-10  2.0233048954390437e-10  5.4356722489981484e-10  4.9604695014644986e-10  1.6855379478754551e-10  1.6268390570182108e-10  1.9395402652764931e-10  3.9879362595662646e-10  4.6074675310683021e-11  2.1163544939057114e-10  8.3138940009267207e-11  1.2639211237238397e-09  1.2216438207867943e-10  4.6163577868601361e-11  5.7955157407500126e-10  3.4909854556144661e-10  2.4970201633757282e-10  1.9238754342465657e-10  6.2249572801237001e-11  1.5148029013062221e-10  3.1428253599282138e-11  4.4087016900289584e-10  7.7878948157481314e-11  1.3985161610339834e-10  1.2858292295565764e-10  6.4518386893110513e-11  3.5120840833739501e-10  4.3558745596003957e-11  1.1268503413889587e-10  2.5224510973268104e-10  1.8188720623586743e-10  7.3144356377982502e-10  8.7597677274534056e-11  5.7737558094824427e-10  1.3248751089217462e-10  3.6125620792451443e-10  5.8557562723783552e-10  2.4837459653097466e-10  1.5946457707293777e-10  2.7998965294006829e-10  4.8963347160218189e-10  3.5858368304937767e-10  7.4246840300655867e-11  4.4989023122948581e-11  1.6823290138407569e-10  3.6524524456265955e-10  1.7437540213612331e-10  1.1642003648517322e-10  1.6509879419789975e-10  7.2739376623932385e-11  6.5946822221113911e-11  1.9628203010588081e-10  5.5543036826920352e-11  2.0693789992761747e-10  9.2387524221456447e-11  4.8586322630669681e-10  4.4720561661004622e-10  7.9644232774517237e-11  4.1911001310379437e-11  4.0859342464751910e-10  6.7453016927002829e-10  2.6132685853622562e-10  1.0233879501434524e-09  2.9800730660284331e-10  3.2320475967007936e-10  2.7590956020851981e-10  2.7357850978880159e-10  9.5823461739182773e-11  2.9034262565333656e-11  1.9483093023097938e-10  1.1240619501011539e-10  2.1869631773359644e-10  7.4770608403864684e-11  1.0879612765131051e-10  2.1409167911615904e-09  1.8118887067636044e-10  7.7989672835205219e-11  7.7312832142345746e-11  4.0752661841094021e-10  2.5173806296652196e-10  1.9113694028548315e-10  2.1765335550280605e-10  4.1652723048579123e-11  7.8742235658948928e-10  2.4072093242093440e-10  5.3439974755489605e-10  2.5815011485755994e-10  2.4181282555952868e-10  3.0238242249964460e-10  9.5295607250866509e-11  3.1323110868447555e-11  3.3239178457593617e-11  3.8277325161464520e-10  3.5867398609393455e-11  1.1428952105908572e-10  1.0307366774664618e-09  7.3648130069116555e-11  3.2904904989336383e-10  2.5604124557582265e-10  6.0062680831741525e-11  5.8075264643822395e-11  1.9007128868980842e-10  2.4534601632631175e-10  4.3841958673570213e-11  1.1677864141724680e-10  1.5411098979734557e-10  7.6924603532177897e-11  1.5802275895964939e-10  2.1808344478585253e-09  3.3500145769657985e-10  3.2457906119449790e-10  1.0946789065411316e-10  9.8691310560500934e-11  1.7614517605296687e-10  7.3518940775085660e-11  1.3088112848852426e-10  5.0642903671557096e-10  8.8692867969347873e-11  2.3120583997371584e-10  1.9574385035821261e-10  1.3632110521084770e-10  4.5176378662011775e-11  7.0376436195210558e-11  4.7810470571191439e-11  7.6457911218208019e-09  1.0673768094715753e-10  2.1713256305655887e-11  5.8354927829018574e-10  2.7829989154445693e-11  6.3064493891268131e-10  1.1362735165194368e-11  8.3756137650030729e-10  1.7740048558091689e-10  2.7104883212340925e-10  9.6982159669100630e-11  2.7956692282065189e-11  7.6627599398349389e-11  2.6824029362038572e-11  1.7480934123952627e-10  3.7864981339849177e-10  2.6998851915419628e-10  3.2081705948028409e-10  1.3276378207006188e-10  9.8803691202609104e-11  6.2112224083382000e-11  3.7399860587824350e-10  4.8917912860683864e-10  9.6399238958885561e-11  9.5571310762720579e-11  1.4582931999196753e-10  6.9287242112855661e-11  4.8083121207679683e-11  5.1827682727852231e-11  3.0824245670291545e-11  8.3442997840856842e-12  1.6467912239326020e-11  8.7976619883345901e-11  2.1384707972325735e-12  1.0263722434628306e-11  1.8787251842978757e-10  3.5628911995733140e-09  2.2089517622100218e-10  3.7084016720072363e-11  2.3221823921401362e-10  8.7337491307393419e-11  1.0789521845558270e-10  3.9984511088441783e-11  1.6396892735896836e-11  8.4490918574000645e-11  7.6947750100696712e-10  7.4654580822800720e-11  1.7825664544829840e-10  3.2448995728459953e-10  4.5401927610943710e-10  9.6866377163322954e-11  1.0298917890917277e-10  5.7767434529886889e-11  7.8875197200679939e-11  1.0360360992900279e-10  5.1162956934165162e-11  5.8799965886418007e-10  5.6873030496015149e-11  2.8124020143897814e-10  8.8612288369319801e-11  1.2651931993657946e-10  2.9172718034547662e-10  4.0986892918265982e-11  6.1535307256211518e-11  2.6944515075833855e-10  1.0848994121257391e-11  1.0808371189148610e-10  9.1104536689720794e-11  7.5954469770803777e-11  5.7995865510093024e-10  1.6389709794594759e-09  2.8609397911473677e-10  2.9186665743471420e-10  9.1933766845385374e-11  6.5173900499856916e-11  2.5237162129880209e-10  1.0817065044651146e-10  8.9742126989468761e-11  1.0336770184609469e-10  1.8583254375791095e-10  7.0851678281080643e-11  4.6389091394947257e-11  6.4144027574511214e-11  3.6234762980919183e-11  7.8441219567903178e-11  1.9600931257632209e-10  1.6113554400141524e-10  1.1248895851140057e-10  2.7966976798813388e-10  4.3265274001465365e-11  1.3934876972330024e-10  5.4145412409508809e-10  6.4122826437806300e-11  1.2449463911734679e-10  1.2660014021376047e-09  5.4842729414385899e-11  3.5120140907966878e-10  5.4371950073277129e-10  1.6373327557105620e-10  1.2471255879405060e-10  1.2752595547143980e-10  8.3039778750076645e-11  2.4755773471280389e-10  2.9636306737294569e-10  1.7171579818988688e-10  4.9153724464479269e-10  4.3086939720495221e-10  1.1664942752675936e-10  1.9955799205378141e-10  6.1782146272464793e-11  8.0343878939351157e-11  6.0188601620585600e-11  2.4013575063452198e-10  4.1136444043022490e-10  3.1217264735222452e-10  3.3616507518867904e-10  8.5395606677408467e-11  2.3150218366243488e-10  4.9234675310622890e-10  1.5558570019906495e-10  4.6735935463503287e-10  1.8729532977017063e-10  1.3449877473455182e-10  1.1093688606580884e-10  4.8970148334595664e-11  5.0698175776057558e-11  3.5336239213643718e-10  6.1587280339727159e-11  5.9392979190155105e-11  1.2130507439345182e-10  3.2972719595417152e-10  3.1574428552784856e-10  1.5907455184525202e-10  1.1696867440120210e-10  6.2291565560541456e-10  6.3870316294355394e-10  1.6748845561028630e-09  2.7409569808400469e-10  1.9588063679041159e-10  4.4443178120471588e-10  4.6558072569954187e-10  1.2378015075675829e-09  2.9989299973402345e-10  2.2977760429981174e-10  3.2740442557469002e-11  1.2320738600752265e-10  3.3982628122281006e-10  4.7544252763092305e-10  2.1380016262751907e-10  6.8847703815935474e-10  2.9379159037211943e-10  2.0781726791729273e-11  4.9126431377729647e-10  3.4245746361499737e-10  3.8792682784930023e-11  3.4408641530425073e-10  4.1324922177889315e-10  5.6769579014318194e-10  1.4812161842091077e-10  6.8020091838541319e-10  1.9854660613593720e-10  4.8193332025349404e-11  1.3028192216099623e-10  1.3422497366737854e-10  3.2042977060572395e-10  7.5133491718218316e-11  2.4450531535433433e-10  1.9626484765276065e-10  7.7587654908761307e-12  2.0754786608593858e-10  5.4302444328984061e-11  9.0970605852000158e-11  1.1927258151124743e-10  6.6683274016456352e-10  4.1674028423633836e-10  3.1738433495721178e-10  1.2122165819966820e-10  1.2473753250132405e-10  9.3226542780305528e-10  5.5808255662650903e-10  1.3239896510626466e-10  1.4436280928053171e-10  9.9503758984010751e-11  5.0606150983870341e-10  1.3200024708058986e-10  1.6696949636290997e-10  9.1018588700774877e-11  6.9938527445881036e-11  6.0567678862792775e-11  1.4397440042714446e-10  9.9495044604057988e-11  1.2046828949647436e-10  3.7099281781801457e-10  7.8577348208052993e-11  6.1253938442282520e-10  1.1207786023480377e-10  2.2949737465641748e-10  2.5534915842917754e-10  5.6967406721505358e-10  1.1723851507988988e-10  3.7198118359220433e-11  5.9805897113362700e-11  1.4635185092493174e-10  1.6308696235712248e-10  5.0016618807033314e-10  8.0030965666700273e-11  1.6591722098183219e-10  2.5292540908017898e-10  1.4469647154281015e-10  2.3427061015762272e-10  3.5118680429156508e-10  3.2128254459977778e-10  9.8588724659213168e-11  1.7224744673527809e-10  1.4886466292538606e-10  2.3102246586280288e-10  4.1706523293094745e-10  3.7327892780108020e-10  2.0024888035294898e-10  1.8010504360851281e-10  1.2598020564230636e-10  1.6591747181356152e-10  3.0358653598797533e-10  3.8516045485426070e-10  3.7021894010227434e-10  1.7199408093368541e-10  2.2356880096567191e-10  2.0266933332601975e-10  1.4290587866324801e-10  3.9134652287320907e-10  3.1389792010540514e-11  1.0377755736461510e-10  1.2779357146276147e-10  2.6988378149212779e-08  4.0954615395238437e-10  1.6520848066801875e-10  6.1785998643597159e-11  2.5891377755307383e-10  1.3136649223792878e-10  6.3328177921658420e-11  1.0166852073625159e-10  2.0188727807474960e-10  2.0661846803615294e-10  2.0320935857139943e-10  1.8260305192724106e-10  3.1586183557170013e-10  6.5430604341997036e-11  8.0764374713926758e-11  1.8574615173125195e-10  1.2586017001319245e-10  3.1352701630655568e-11  4.0473452448234712e-10  6.2727561934412333e-11  5.7358031344372095e-11  1.9855670461056798e-10  1.0012728070530331e-10  2.3285524581376232e-10  2.8061031514473829e-10  4.4694773823165050e-11  9.1187569664707409e-11  1.8514525559542069e-10  9.5797907792243769e-11  2.9507844535854076e-11  8.0092387055605349e-11  5.8668258058622618e-11  8.0571821308729845e-11  2.2461076538005724e-10  4.4087535446937477e-11  5.9550834112238942e-11  9.2376205309797203e-11  8.9222496559568630e-11  9.3854457287938985e-11  2.6156825537054418e-10  8.9667356140774687e-11  1.8961962745038393e-10  2.1772464703582754e-10  1.0668605426255747e-10  1.6061036013506598e-10  3.1970726601395747e-10  1.2233434562421132e-10  6.2569035993117536e-10  1.6465613492379506e-10  1.5032252096481350e-10  1.3908917005164779e-10  2.0627165641671987e-10  4.1604066044646439e-11  3.6606709187514139e-11  7.2827555194603402e-11  4.0823420076276427e-10  2.0207480990039994e-10  6.8597923689284251e-10  4.5608620669010693e-10  1.2094660337420236e-10  5.6236727553561346e-10  3.5545470671933545e-10  1.8483199426260180e-10  7.1990938054306786e-11  9.1129158839646410e-11  1.7977402236692165e-10  1.8961309515311197e-10  3.9385404249494839e-11  5.1536671940729213e-10  2.9556736060193573e-10  3.4748544093312928e-10  4.7618880597762793e-11  3.4615759666443495e-10  2.7936503291708720e-10  5.9737209181189775e-10  6.8456276518758047e-11  6.0980961259404769e-11  2.4333353446129486e-10  6.8874135398043802e-11  4.0879356937790792e-11  1.3839100477843035e-10  2.3653108819023547e-11  6