<?xml version="1.0"?>
<VTKFile type="UnstructuredGrid"  version="0.1"  >
<UnstructuredGrid>
<Piece  NumberOfPoints="4852" NumberOfCells="9430">
<Points>
<DataArray  type="Float64"  NumberOfComponents="3"  format="ascii">-1 0 0  -1 -1 0  0 -1 0  0 0 0  1 0 0  1 1 0  -1 1 0  0 1 0  -0.5 1 0  -1 0.5 0  -1 -0.5 0  -0.5 -1 0  0 -0.1608775713298009 0  1 0.5 0  0.4999999999999999 0.9999999999999999 0  0.1967448868031411 0 0  -0.3402286423905304 -0.1754650003788248 0  -0.3360728394849132 0.2237477029149558 0  0.173912293600501 0.3453775408508341 0  -0.1844668349802966 0.5543400250728502 0  -0.5033863526030419 -0.5371511703936928 0  0.4904009049525447 0.2564394843720973 0  -0.06401499201553378 0.2004975351811346 0  0 -0.5061325913258391 0  -0.25 -1 0  -0.5606387437376352 0.5768814505824638 0  0.6613248278256858 0.6333580881962932 0  -0.1757718434705554 -0.5374703828064684 0  -0.5382639816179139 0.02534651145108669 0  -1 0.25 0  -0.2055979875260287 0.02367097419187491 0  -0.6539457290275321 0.3089068850562799 0  -1 -0.25 0  0.03935622166376251 0.5910207570435522 0  0.1950209517940077 0.1284116050362804 0  -0.1361118508001117 -0.2196656248888345 0  0.3709137059815444 0.6137660946725786 0  0.9999999999999999 0.25 0  0.5355652144809806 0 0  -0.75 -1 0  -1 -0.75 0  -0.6446689863738361 -0.3227496416290718 0  0.25 0.9999999999999999 0  -1 0.75 0  0.02757118475249542 0 0  -0.25 1 0  -0.75 1 0  1 0.75 0  0.75 1 0  0 -0.02898318711980711 0  0.05428179948409668 0.1418279027882453 0  -0.07747980251376357 -0.0277799883972798 0  -0.7007376025957518 -0.1322440932371567 0  -0.3212910228425883 -0.3468781467709397 0  -0.3394202354294608 0.4366890350871804 0  -0.09963258932683723 0.7637718889891834 0  -0.3825738706366794 0.7021377441694256 0  -0.05445310501269049 0.3981706472271112 0  -0.07861643492214557 0.07173700946139816 0  0.3587903320538103 0.3687871403202218 0  -0.7156925097317989 -0.7297580851383788 0  0.4117592265020834 0.08961410782774124 0  0.6899370280391904 0.1912610289058317 0  -0.7471885197704617 -0.5267293694861112 0  -0.3871037564843464 -0.7104049591473203 0  0.7215456651667588 0.4180749040328059 0  -0.7756591147682934 0.09686903659724561 0  0.1966812475144745 0.6980897298346435 0  -0.198059155845705 0.2878417434078932 0  -0.7985226472663152 0.5770252469497926 0  -0.7163052065673837 0.7660296121171292 0  -0.05062489886350814 -0.373551377895759 0  0.5845331749603525 0.8161828610303071 0  0.8202043136022494 0.8056538515550089 0  -0.1047655524734869 -0.6970189507968221 0  -0.5137868372227155 0.16231163151421 0  -0.2012325989075994 0.1252550302141349 0  -0.3584742070956005 0.07509743943144211 0  -0.3645097520997937 -0.05229938214616749 0  -0.4959069621887167 0.3944607910617687 0  0.375 1 0  1 0.125 0  -0.01174964103476085 0.07102123467623393 0  0.06227462017133511 0.3910919904724153 0  -0.1710424815945805 -0.1222016300875718 0  -0.2424437961222783 0.7732875986435941 0  -0.625 1 0  0.5332444110865094 0.4535629064501657 0  -0.575701105516223 -0.8299291954852867 0  -0.2569722258259967 -0.7834151504091337 0  -0.3192791621035859 -0.5080865977801613 0  0.8338943979116077 0.5949547685685797 0  -0.5481327838639075 0.7904790157267719 0  0.125 1 0  -0.06729400959524841 -0.09334054725282633 0  -0.4940316554103738 -0.143045102654561 0  -0.8750000000000001 -1 0  0.02956614265737965 0.04148584835309014 0  1 0.375 0  -0.8749999999999999 1 0  0.05742585558127008 0.7935641193620364 0  -0.1956803718498966 -0.3733577714594653 0  -0.07244736800212423 0.5704368593178955 0  0.2363772943024603 0.5171954458102068 0  -0.7918979519794499 0.229115779033041 0  -0.4947663011214256 -0.3887014345972578 0  0.0003497121605949322 0.2704865066173888 0  0.5097190301454139 0.639591152027113 0  0.3987166645864794 0.8069436267744534 0  -0.8057855224102799 0.4240461029570236 0  -0.0641437684009937 -0.2204704017267568 0  -0.7091750570197205 -0.01415386718329029 0  0.09048393060415173 0.05229286154384447 0  -0.4777368013980402 -0.2509382261990065 0  0.7238494350638689 0.08270846128741557 0  -0.8083910407093085 -0.4108484657322681 0  0.3374194108754949 0.1530966153405495 0  -0.7942658262403944 -0.2506257007408302 0  0.2362313853332153 0.2536818352133569 0  -1 -0.875 0  -0.9999999999999999 0.875 0  0.1842651743996901 0.04770048919523163 0  -0.2471687941240359 -0.2287617750721282 0  -1 0.3749999999999999 0  -0.170632203109269 -0.04171366357782148 0  -0.6481919796470967 0.4669666531691875 0  0 -0.07736776745332727 0  0.08050041900096566 0.2592632102920936 0  -0.375 0.9999999999999999 0  -0.2162157225637501 0.4241276058592307 0  -0.1196122046711038 0.1497485126893025 0  0.1332667763295801 0.5534741866906868 0  0.1319261615539745 0.1932492626225336 0  -0.4739922620946866 0.2690196698895624 0  -0.04602867035471035 0.01387218290731362 0  0.8514412059047759 0.3698803495518126 0  -1 -0.125 0  0.2854955328270307 0.8365732526739929 0  -0.1102675494322813 0.3124110557657769 0  -0.125 -1 0  0 -0.7575037395175259 0  0.07821397079968176 0 0  -1 -0.375 0  -0.375 -0.9999999999999999 0  -0.625 -1 0  0.7474787146812756 0 0  0.625 1 0  0 -0.2918843213980812 0  -1 0.625 0  -1 0.125 0  -1 -0.625 0  0.3284075310660084 0 0  0.004929205892015135 0 0  -0.125 1 0  0 -0.006571003003944568 0  0.9999999999999999 0.625 0  1 0.875 0  0.875 1 0  -0.5622206803417729 -0.6761712039369354 0  -0.004516106235252663 0.1598075360934521 0  0.3622462549158763 0.2624468499578469 0  0.6529258327916655 0.2934150199754365 0  -0.8544855707079458 -0.6463786559224178 0  -0.8633046466879019 0.7868929591844426 0  0.4303232383092585 0.5007257870305994 0  -0.3981528857367334 0.8556635405450248 0  -0.7785518006646801 -0.8747182072426907 0  -0.8703184595459997 -0.7842049659412446 0  0.1541428937949872 0.8419370190794218 0  -0.6580121311129108 0.1524513417677079 0  -0.5770785110267391 -0.06406048165010977 0  -0.8543562145871161 -0.06251566395581534 0  -0.2952664829109353 0.5616704386358212 0  -0.4230087461801602 0.5694699281698408 0  -0.3753150964919357 0.3305075021658548 0  -0.6178918429127646 -0.2161261747903546 0  -0.2723484124022534 -0.08989538903591711 0  -0.6396518853117699 -0.5883139593502347 0  0.8597184276440301 0.2658264273922902 0  -0.03273286594390597 -0.03291952216952296 0  -0.05449316095410974 0.114268848827574 0  -0.1332026657499134 0.4314148266685172 0  -0.119425214362987 0.03228163692534154 0  0.5377355292379649 0.06445559465981424 0  0.5791384088760571 0.3587464648183308 0  0.6912060653970297 0.7744910247663529 0  -0.7932094728008997 0.8810965135550851 0  -0.6429294755896201 -0.4289013251233401 0  -0.1160403602149037 -0.3969179447464177 0  0.8721893376617827 0.4884436216096537 0  0.07595358773369129 0.09359949850138055 0  -0.6643316072277635 0.8680793668715781 0  0.454512591496213 0.3500345447757505 0  -0.02618457302998542 0.03573583935027869 0  -0.4087569337608605 -0.4399121553005121 0  -0.3615019134177098 -0.268431243127305 0  0.3234139392725053 0.4811855340040729 0  -0.1954853503134999 0.2010648381854711 0  0.7055446464373014 0.5304490312294763 0  0.2617084411555691 0.3554652373538097 0  -0.3763042772057482 -0.8517312033925767 0  0.1092378075597631 0.6815672483854869 0  -0.2842545675550911 -0.6117602641806763 0  -0.4408538065698432 -0.6198528438856841 0  0.2961164511208776 0.6918933440369383 0  -0.8747260479530655 -0.1746756643993582 0  -0.1798051332694958 0.8548273893491969 0  0.4546552105231617 0.1630015111806839 0  0.2802299585047134 0.04655463570274208 0  -0.1418854666744576 0.6570206193636857 0  -0.01113021418381612 0.7082244886453559 0  -0.05320742958679858 0.8748989105741318 0  0.005668970140022619 0.4692567755995024 0  -0.3870328980946296 0.1531803616824184 0  0.5491077028282433 0.1329433010161666 0  -0.4753211721388205 0.6820631228955175 0  -0.8512882911443183 0.3325693553472594 0  -0.0908200175824667 -0.5360425408383791 0  -0.02821106009470627 -0.5519636948391864 0  -0.2133972317960378 -0.2873522048930867 0  0.8685162336132082 0.1514212570582883 0  -0.1689352688871018 -0.6608127094174235 0  -0.889063903134756 -0.5283074059338297 0  -0.2810696594408176 0.3378321932153028 0  -0.6757738973693423 0.5737749626605143 0  -0.8973525036898634 0.5312199237227672 0  -0.8982999579220872 0.6607492223481342 0  -0.6439094236430845 0.07226111680437199 0  -0.858928197501892 0.02853658971737263 0  -0.8879690343880347 0.1678104327465315 0  -0.1296890606487846 0.2285137953770096 0  0.1603539383539994 0.4456469147061957 0  -0.04346884015805941 -0.1257375006298002 0  -0.7530822237373916 0.6697614003717512 0  -0.601938364704136 0.6976387326803029 0  -0.25384667382607 0.07834576294549703 0  -0.2487976086004639 0.6483969093085391 0  -0.02735120863685879 -0.006360453183276325 0  -0.4940667459167997 0.8769507957629452 0  -0.4762852976160455 0.4901493216024984 0  -0.2898416747053358 0.1437545344447809 0  0.002303581919076233 0.02356472962212687 0  0.7794001590075235 0.6833910974959114 0  -0.4695934603199617 -0.824621078777752 0  0.2718402601250494 0.1945718557739073 0  -0.1482670394515341 -0.8630807361267587 0  -0.06500708387885278 -0.8295147018961976 0  0.4432235344411347 0.7056168384409801 0  -0.1170305925058016 -0.2881148179860431 0  -0.2644068717746507 -0.0261577002272503 0  -0.8937233256699085 -0.8964439304002981 0  -0.5723727239626458 0.2368669418268318 0  -0.4755696333001846 0.08740223702935983 0  0.4910735645946755 0.825574534695304 0  -0.02814047171704095 -0.2602075647577027 0  -0.3097999827155404 0.8753139240558813 0  -0.1426181840232788 0.08032758525356676 0  -0.4687992272962658 -0.03487465234168783 0  -0.3874244266604275 0.01207405006492836 0  -0.2911821343688484 0.0274802913293547 0  -0.3844688447042356 -0.1202717029912009 0  0.8881027665020679 0.6979271111563462 0  0.7925371019009397 0.910663533737276 0  0.5765735628392967 0.2075768770339449 0  -0.5596848498210517 -0.4690907655836972 0  0.5987303520694399 0.705644828991456 0  0.6781191061310589 0.8882118962923309 0  -0.05072532247232638 0.3026377315751401 0  -0.9021208258410777 0.9046056052822488 0  -0.1272252195791554 -0.06704262297822151 0  -0.168805677
[...]
<PointData  Scalars="w"> 
<DataArray  type="Float64"  Name="w"  format="ascii">1.7557362859815996e-10  1.0380879067328796e-11  4.4498774773240712e-10  2.5847242590071609e-09  6.2391514265695677e-10  1.5685277192137612e-12  8.6867187136086886e-12  7.5028721253172252e-11  4.0571517039132854e-11  2.1125031691910736e-11  1.0867492870675196e-10  9.6402668132030201e-11  4.0233495589891169e-10  2.7828098651431938e-10  9.1611008632463680e-12  5.2248792455499336e-10  9.0964509873547498e-11  7.2460699353751399e-11  1.3078338239729926e-10  3.5727994524509728e-10  6.7314721314935295e-11  1.0431550578497040e-10  5.7288699540349821e-10  1.3865734515269780e-08  5.8378793259198760e-10  1.0869584265370375e-10  8.9198098923828564e-11  1.7149179036853761e-10  7.6670498911329562e-11  1.8873608118825836e-11  4.6792629461419655e-10  9.8212777529348892e-11  2.4464042880079728e-10  1.8204947383347807e-10  4.5241689963987329e-10  2.2566054386394360e-10  7.8550970057723682e-11  4.7892733118762872e-10  5.8582503701061803e-10  3.1282165874566142e-11  5.2859774071873715e-11  1.0875984327566648e-10  9.3012324325671251e-11  1.9785003337721886e-11  1.0437669100884575e-09  8.7725599033225211e-11  3.1976989130517225e-11  9.6704184387714815e-11  1.2361298114201078e-12  5.8670158098483034e-10  2.1980436268212279e-10  2.1279022496646818e-10  8.3016192674557828e-11  2.5289322073382564e-10  2.6069222557348798e-10  2.0739635035761257e-10  3.5929106832103358e-10  8.9448142894580361e-11  5.7551702835561250e-10  2.5220748499814661e-10  3.1471073400145456e-11  3.1393812192532280e-10  3.7917006717785946e-10  1.4390779042747314e-10  5.4494088226078024e-11  1.7851827593242886e-10  7.0978260825089643e-11  1.7960906282168974e-10  2.3357880781881236e-10  4.6358788541092424e-11  6.5315794099313698e-11  4.2841585297406795e-10  5.7160773654058289e-11  8.8382075216907874e-11  1.7489000192288946e-10  1.7096562030819386e-10  2.5640927739694760e-10  2.9143784296498959e-10  1.8305591310291600e-10  1.9674098511955984e-10  6.5379444200221006e-11  2.5232235951126559e-10  2.6094091376936057e-10  2.0158275151876478e-10  2.3397472693084389e-10  1.2612335497248782e-10  4.6767110427896488e-11  1.1036819418636394e-10  9.4973692912142267e-11  2.5633451767843340e-10  6.9695337348309386e-11  9.9900856513793727e-11  7.8909759109668935e-11  9.4901881473480390e-11  3.8881783789982337e-10  2.0999348366474190e-10  2.5586286113472072e-11  6.4889926881047008e-10  2.5732562249761195e-10  3.1725404161150499e-11  2.7900462793108275e-10  4.1375917083278740e-10  7.1087461690044663e-11  9.7428027968091888e-11  1.5748211164905331e-10  6.3755332941090790e-11  2.7362662430358974e-10  8.3841830201186017e-11  1.4775227115691865e-10  6.6542939532360227e-11  3.1103418616028298e-10  2.4900453504031255e-10  2.3060486753949972e-10  6.4497137585951192e-10  1.2087246655580149e-09  1.4899971490530801e-10  1.6462493068531532e-10  1.0249556606597273e-10  4.5803913394822654e-10  2.6066904562774756e-11  2.5729417640734930e-11  2.7721311747663256e-10  9.1467084635220445e-11  6.1508044572533098e-11  5.0087313755609413e-10  5.7753349981457573e-11  5.9434577394328237e-10  1.1841967920735615e-10  7.7147206275422389e-11  8.2960228477680602e-11  3.4144012667233855e-10  1.7359932295478737e-10  4.6420645125272011e-10  1.3587346450251134e-10  6.1626435944395791e-10  4.4722819637390568e-10  1.0984662949865240e-10  5.2382153667308094e-11  1.3007347705851249e-10  2.5884429648139053e-10  3.6426750021595287e-10  6.0023773576762519e-10  9.3914070959653070e-11  1.2045975881097347e-10  6.9139446028751567e-11  6.5540557532035738e-10  8.6721382837334638e-11  3.2622905463177522e-10  1.4815192503519539e-10  1.2492964583039935e-10  2.0183066585801924e-11  2.8259756541983133e-10  1.5677013140715616e-09  5.6896964406503537e-11  9.5533936614550256e-10  7.9550776036920116e-11  2.4700159451543606e-11  2.4359732973801786e-11  1.2235740884886762e-10  5.5827309055135299e-10  4.4350441260503103e-10  1.6116705061442145e-10  1.1556776932187430e-10  1.6767669701647590e-10  1.8807301627132756e-10  5.9067098294398699e-11  7.8184704422426091e-11  2.0474539919181506e-11  6.0458674486975302e-11  2.9722092993620973e-10  9.2349064305231971e-11  1.0635458395068225e-10  8.3031984009444779e-11  9.6777708431103241e-11  5.3513328005659046e-11  9.6451126283097800e-11  4.5560891156637014e-10  5.7360142875737828e-11  1.6412506465161548e-10  1.7105511675593268e-10  4.6157782919076639e-10  1.9907514711692883e-10  2.8148147931487103e-10  1.4260688894341655e-10  1.4543167621316485e-10  1.5119366597599424e-10  2.1172389844400631e-11  2.8988271285422652e-10  6.5780064131905684e-10  2.5745674484139211e-11  2.5036645581077438e-10  8.9797580568394924e-11  1.5822073101695941e-10  1.1000375876413762e-09  1.3780373999243762e-10  1.6376956081728699e-10  2.3479188118733890e-10  2.8772789096874669e-10  1.0644012642760110e-10  2.0480045306433173e-10  4.2307872920569152e-10  2.2004173811301761e-10  2.4124890560950592e-10  1.1065476361603757e-10  1.1326817737097602e-10  1.1320243236062075e-10  7.2156878466303548e-11  2.0831027604410812e-10  8.8113080774620872e-10  7.8168503729470208e-11  1.0892453696393819e-10  7.8121321633809545e-11  9.7245548228465530e-11  1.6265891561046701e-10  3.7719361690660477e-10  7.9544226143739900e-11  8.6147812525025892e-11  8.0847410052317185e-10  9.0819909292441290e-10  2.9274921694406083e-10  1.9967763851192574e-10  7.7429423105538508e-11  8.1418773879679528e-11  3.3806791848817450e-10  5.9146979163850202e-11  8.4097326738444147e-11  5.0467799310142553e-11  9.3969478303829587e-11  4.1645782336332990e-10  9.1109519895536100e-11  1.9730637974652960e-10  1.6698015517307859e-10  8.9948174593680603e-10  6.2347012884972650e-11  1.9991162133449704e-10  1.1520239394728448e-10  1.1279586424202124e-10  7.4285381414203587e-10  7.6090753594283304e-11  8.5874007317694149e-11  1.1826700360842877e-10  1.1017455468028945e-09  4.1272396423646202e-11  7.8325116695823569e-11  2.7832688405056885e-10  2.5548703272418014e-10  3.4901697782835904e-10  1.8403010338898716e-10  2.0357175120594312e-10  4.0435819349197045e-10  2.9568057629984894e-11  1.0608837504675656e-10  1.2861072945754814e-10  3.7882647233455332e-11  2.7330471580266907e-10  4.4226183921901968e-11  3.3258394787558804e-10  1.3613548563676447e-10  1.1062324540804651e-10  1.9135911635834413e-10  5.0352247699355811e-10  7.3498761623570861e-11  2.7120422123832376e-11  1.4486878525380024e-10  8.2416384123477223e-11  5.9900844274909590e-11  7.6857538933033113e-11  1.7924717923722701e-10  4.9572562426376194e-11  2.6285787592637674e-10  2.5410682106789272e-10  1.2857484821886567e-10  1.2832852404013089e-10  1.3801884103551176e-11  7.1445809694080182e-11  1.4601615821277667e-10  1.6971555076478600e-10  4.9496123593068948e-10  3.6904380222168329e-11  8.2551815004616711e-11  3.3569530748601544e-11  2.3753805287668668e-10  1.2652645073294583e-10  1.8649094672720773e-10  7.5245536318355032e-11  8.9029855498961823e-11  1.2137743187925563e-10  2.0371604044099339e-10  2.2402110011048342e-10  2.6193198443684753e-10  4.3640938379714404e-10  2.1460411167749925e-10  2.0945637010737888e-10  1.4595255395716744e-10  8.0796239315141275e-11  1.7331051624335711e-10  1.6807625573741507e-10  6.2240823828235506e-10  1.2995535263492103e-10  6.2734649791566572e-11  4.0598140362820753e-10  1.8898258099221138e-10  2.1008389002903047e-10  1.2343183463204224e-10  3.2882519364326480e-11  4.5063746134714830e-11  9.9362979145221044e-11  6.7934862473749838e-10  2.9234041087370953e-10  1.8140203618420415e-10  1.3727881061528138e-10  3.3799546024432611e-10  6.7917113494677520e-11  1.1053330390921965e-10  3.5136715278989395e-10  1.3607553667783832e-09  9.9334226429041967e-11  2.8193842150231954e-10  6.1107999309890962e-10  1.2220386682512667e-09  1.9682003638640478e-10  1.5183509121141499e-09  4.1698387000609525e-10  2.2592413052585596e-10  1.1677551757824529e-10  4.2235119753813978e-11  6.6196626562323680e-11  1.2667426029264339e-10  1.5746041716783864e-10  6.4098225724476155e-11  9.8737152816909598e-11  1.0745866489863099e-10  1.2772992821807034e-10  1.9191141902996628e-10  4.9431568446109919e-10  3.1818195011816061e-10  1.6677633144211617e-10  9.6379604686759968e-11  6.2036090153306363e-11  5.9484608773047479e-11  7.1190554846392152e-11  1.8324030250582225e-10  2.2904572855623072e-10  1.0677642686855405e-10  1.0681838913948763e-10  2.4012474166499434e-10  1.3721310328369335e-10  7.0262006903860546e-11  5.9710404057594538e-11  1.0563315583607353e-10  3.4514080918218471e-11  1.8879633656838867e-10  3.3200150929780924e-11  1.6101188328227138e-10  1.7949521658283950e-10  1.5227417588571560e-10  4.0119745476628840e-10  7.9726782772985337e-11  8.3482430678025911e-11  1.4580245550450684e-10  3.1064300289847282e-10  1.4576044262726133e-10  2.6351047975979887e-10  1.1126647901171693e-10  1.3679630474922806e-10  1.5945003972094747e-10  2.8302340674881862e-10  1.2747047580430917e-10  3.3942585680715775e-11  1.1849362138873320e-10  1.1276588838084853e-10  1.4842764042721372e-10  2.5551112232751032e-10  1.7207807117258614e-10  3.5271423210464047e-11  1.2992226801404337e-10  2.3327329446535590e-10  2.9283674464770274e-11  3.3062406320851850e-10  1.6331403593869491e-10  3.8696119049314761e-10  1.1360065704787335e-10  2.3919999065598614e-10  3.2620987299238014e-10  7.6109734545972457e-11  1.0609966582350948e-10  2.1927341338285836e-10  7.4147044216086120e-11  4.8320974161035833e-10  1.5964848615833563e-10  9.8845520866350224e-11  1.0912122535788006e-10  2.1095870562841538e-10  5.3968318772487207e-10  4.7502233015953080e-10  1.8132994363098266e-10  1.7311775938461466e-10  2.0927514936310436e-10  4.0310324808237535e-10  4.5694673295932862e-11  2.2664683462516499e-10  8.1897119609999671e-11  1.2378099940054358e-09  1.1835146030711068e-10  4.6182273509439022e-11  5.4618157920286473e-10  3.3295953753131976e-10  2.4780757795901561e-10  2.1259131947788678e-10  6.4635700681041730e-11  1.5442139009581048e-10  3.3654340555701137e-11  4.3889995832346985e-10  8.2679416028443540e-11  1.3838560587194410e-10  1.2804044811688166e-10  6.6350396943334430e-11  3.4906950566706159e-10  4.3639185271989967e-11  1.1890835474647087e-10  2.4491555409497251e-10  1.7894361048302471e-10  7.0960647964707432e-10  9.3151067066358443e-11  5.7465811104384115e-10  1.4867988103552017e-10  3.5242593935679211e-10  5.4648887777924238e-10  2.4351135118184002e-10  1.5538847574185331e-10  2.7153222057954709e-10  4.7813739855173492e-10  3.4653471483054306e-10  7.5991390040233576e-11  4.9897720175806466e-11  1.6312111131683724e-10  3.5509540634244770e-10  1.8805388137046597e-10  1.2775282979178969e-10  1.7263237922263888e-10  8.1756411145641316e-11  7.1882121195602150e-11  1.9996792917439055e-10  5.8382673784417438e-11  2.0827308924694654e-10  9.0937042635631209e-11  4.7850669726135990e-10  5.0006374869590508e-10  8.2414033553147603e-11  4.2043793938189488e-11  3.9858688529476607e-10  6.4661910065955009e-10  2.5905874685954025e-10  9.7904821166026867e-10  2.8740853860308732e-10  3.1640310689618204e-10  2.7112756704783665e-10  2.6496030036482798e-10  9.8153799740023946e-11  3.1480723646942404e-11  1.9508735703766594e-10  1.0598561894490466e-10  2.1613361989629942e-10  7.5683890550610694e-11  1.2469292275519680e-10  2.0304987628049651e-09  1.7683390489002693e-10  8.1387052082973344e-11  8.2882271578946258e-11  3.9806459462645626e-10  2.4284758428227714e-10  1.8994364915526276e-10  2.0819331513397582e-10  4.4925531948671336e-11  7.5236341491534632e-10  2.4222597531497115e-10  5.3499946482408072e-10  2.5020814775505486e-10  2.4317111744159238e-10  3.1372919863525959e-10  9.4618305348104656e-11  3.3175098313620091e-11  3.6301621341779234e-11  3.6605553313176848e-10  3.6094008646384161e-11  1.1725669992014122e-10  1.0172940574915154e-09  7.5380862359145494e-11  3.5270217114773784e-10  2.6373610622479344e-10  6.2226901140411662e-11  6.0122909311021552e-11  1.7934408964799874e-10  2.4477461215826527e-10  4.8772728439108351e-11  1.1347808325487004e-10  1.6189369392739789e-10  7.6157747019200436e-11  1.7104268086218876e-10  2.1140160880098533e-09  3.4549540054345955e-10  3.1920404817689439e-10  1.0672725075970809e-10  1.0815236982908308e-10  1.8929598370677343e-10  8.1028379531562564e-11  1.3491772298703606e-10  4.9974901385930358e-10  8.7355249521788852e-11  2.4382576645841850e-10  2.1714184093762294e-10  1.3896765134255421e-10  5.1705461827418962e-11  7.8402125894376992e-11  5.6011990735257337e-11  4.7968994687006820e-10  1.0682712822708716e-10  2.2156160507492244e-11  5.6990924933252244e-10  3.0896931974626097e-11  6.2038386273080177e-10  1.1694856680413455e-11  9.8666212911103392e-10  1.7495658989119069e-10  2.5235874915328377e-10  1.0542048440646967e-10  2.8853566870322256e-11  8.6026028474600635e-11  2.8070245790850545e-11  2.0850729954912978e-10  3.7225921653723031e-10  2.7173755524287688e-10  3.2728788364642869e-10  1.3447654103562752e-10  9.4361530614930477e-11  6.3602939243175890e-11  3.5967179285335908e-10  5.0395453564693004e-10  1.0656563382711655e-10  1.0134915893363086e-10  1.4756964993887402e-10  7.6665733825481277e-11  4.5646514177481096e-11  5.5005673971592301e-11  3.2220636357351633e-11  8.8890666895107653e-12  1.7914939055698692e-11  9.9288813441373733e-11  2.2569354941933586e-12  1.1080482944199150e-11  1.8568575939716854e-10  3.4825551089601785e-09  2.2527417403617052e-10  4.2724221311472671e-11  2.2094487735534062e-10  9.3429559755812211e-11  1.1280107416478162e-10  4.4095739450301930e-11  1.7164653324715656e-11  8.8264263215705697e-11  7.2265735251995067e-10  8.0163022427717915e-11  1.8375849912955245e-10  3.2438831758391024e-10  4.8584276329796976e-10  9.6497602791318173e-11  1.0214117528091215e-10  5.8687986869471327e-11  7.7121513463959869e-11  1.1272895463031986e-10  5.7952399386674656e-11  6.0962163195637545e-10  5.9390761724965963e-11  2.7675565862923153e-10  8.8319898270701542e-11  1.2823029675616330e-10  3.1450352094158498e-10  4.1788104948513671e-11  6.3633026187924106e-11  2.8806799503986409e-10  1.2032528472379864e-11  1.1380362288649582e-10  8.8458385677401703e-11  7.7125641001315276e-11  5.6052893779494055e-10  1.6119477503896522e-09  2.9976128995937004e-10  2.8852970748267406e-10  9.1066267468338236e-11  6.9713443179830243e-11  2.5555012088287890e-10  1.1798489999652034e-10  1.0026252558417404e-10  1.0485518498733108e-10  2.0007826502857614e-10  7.4379869626688629e-11  5.2919907051355891e-11  7.0893031322292015e-11  3.9897890602633307e-11  8.6839715428327774e-11  1.9069999617686600e-10  1.6191769861073836e-10  1.1159522911052145e-10  2.7778818413725968e-10  4.7657106236024230e-11  1.3670059157862082e-10  5.1976817833826148e-10  6.7158373862548957e-11  1.1781576766838598e-10  1.3455761945482009e-09  5.8599645844147901e-11  3.3613463018697539e-10  5.0842362698072937e-10  1.5786075979236330e-10  1.2891861836241972e-10  1.2590693413345239e-10  9.0256251766387020e-11  2.4685774588508708e-10  2.8520716231641834e-10  1.7795962449562087e-10  4.6560603981343623e-10  4.2215236700188836e-10  1.2235498671777777e-10  2.1183332312634309e-10  6.6931833107041346e-11  8.5288566008963390e-11  6.2888133365426478e-11  2.4000003681832491e-10  4.0067760942711534e-10  3.0751052661403459e-10  3.2475098425106730e-10  8.6345300733058373e-11  2.2648913753156314e-10  4.7712142454272736e-10  1.7317406384056373e-10  4.8287727044659722e-10  1.8365963296471064e-10  1.3896929952788307e-10  1.1260152661487030e-10  5.1549800055749666e-11  5.4783302134737586e-11  3.3333196915510068e-10  6.3194909438872035e-11  6.5004432038368509e-11  1.2995715740277266e-10  3.2185973429861311e-10  3.1997629387107600e-10  1.5738457954837253e-10  1.1773911105351715e-10  5.8683191737345133e-10  6.2543359816443524e-10  1.5865818788198945e-09  2.6655743015779730e-10  1.9841409806793820e-10  4.4140064798934060e-10  4.5684202334863097e-10  1.1583173784450290e-09  2.9567862670711134e-10  2.4797954365347192e-10  3.3315019626645932e-11  1.2991234430056544e-10  3.2929555699117329e-10  5.0218443818272570e-10  2.1184362661931062e-10  6.6618059536905649e-10  3.0703025134859929e-10  2.1614403029038307e-11  4.8969993607939408e-10  3.3278157912728203e-10  3.8892767627403352e-11  3.3346025841726122e-10  4.1406666603142736e-10  5.4300679505980222e-10  1.4572415550550162e-10  6.7208843464801196e-10  1.9616771434336305e-10  4.7563665389471734e-11  1.2762354079576248e-10  1.3311059539722372e-10  3.1461954967209222e-10  7.9478337051323089e-11  2.6643036631222811e-10  1.9539456199723804e-10  8.2052788517853160e-12  2.3217467537330992e-10  5.8236677537026629e-11  9.0610856348625584e-11  1.2462642172961102e-10  6.2835618116596580e-10  4.1074392282753573e-10  3.0250933988538547e-10  1.1743868940137080e-10  1.3275642452202055e-10  8.9223456729997186e-10  5.3583269596354931e-10  1.3508460468482912e-10  1.4277325073402151e-10  9.4207389544412166e-11  4.8948256966210574e-10  1.3920026845407513e-10  1.7537881383504635e-10  9.5724237292352231e-11  7.0912491579590463e-11  6.3641602593191516e-11  1.5055433882201541e-10  9.8320868390898919e-11  1.3054974803767595e-10  4.4082280206160493e-10  7.7006690592966506e-11  5.9282076472969601e-10  1.2847640924477814e-10  2.2401482080328104e-10  2.8217058846653697e-10  5.4588488644779368e-10  1.1658714001494174e-10  4.1362737127574014e-11  6.3221775776827582e-11  1.4202272945073724e-10  1.5918816984745002e-10  5.1973461274766868e-10  8.4743663057519178e-11  1.6273959495551198e-10  2.5189875484590976e-10  1.3896646327305283e-10  2.3811152118220469e-10  3.3525675935856438e-10  3.1095059655499410e-10  1.0546150744312150e-10  1.7546894362330451e-10  1.5007782161801622e-10  2.2859702260560314e-10  4.8743207717043143e-10  3.7356946976322627e-10  2.0200106282986898e-10  2.0768750118726499e-10  1.2567347038913313e-10  1.7305441640508139e-10  2.9925361366487429e-10  3.8087947559489586e-10  3.6135716236188845e-10  1.6570455978001377e-10  2.2013415877337270e-10  1.9661697253117643e-10  1.5525665851909958e-10  3.9946945904972079e-10  3.1792475992580237e-11  1.0599315389033173e-10  1.2799746827943486e-10  8.1281004159906651e-08  4.0780013763575897e-10  1.7732659424798356e-10  6.1241290745019549e-11  2.5647112495210747e-10  1.3874736157763106e-10  6.4767299982591498e-11  1.0585950553866586e-10  2.0259653042418580e-10  2.0664640493747535e-10  1.9510614600576989e-10  1.9020492649518675e-10  3.0997094172498825e-10  6.5699192245274176e-11  8.0471701357013609e-11  1.9199741892951475e-10  1.2275324538422751e-10  3.5572380599758254e-11  4.0380383302106387e-10  6.5122993430084475e-11  6.2210528931646240e-11  1.9457635323355881e-10  9.9468024404310157e-11  2.3799499037259314e-10  2.9315074987863688e-10  1.7246125597726716e-10  7.9372378356063199e-11  1.8819458114037102e-10  9.6704501411744214e-11  3.2860097970604297e-11  9.1045489371982538e-11  5.8577472811074832e-11  7.8573795171946893e-11  2.2413865503884571e-10  4.7624370058282030e-11  6.6719824926966956e-11  9.4892357000449939e-11  9.4071038940295813e-11  9.4250921793230709e-11  2.5383644550500086e-10  8.7879994780650508e-11  1.8589262915296421e-10  2.0315007316494349e-10  9.9967836990254252e-11  1.6077648353201794e-10  3.1529246398113488e-10  1.2471080919645071e-10  6.1281296171107907e-10  1.7182132322246002e-10  1.4963624280624987e-10  1.3811133774097117e-10  2.3019967511329398e-10  4.4331310894049923e-11  4.0136185792111429e-11  7.7374102258920097e-11  4.3471641021850742e-10  1.9931475195723165e-10  6.4363388320632297e-10  4.4141913711228498e-10  1.2182608097353375e-10  5.4613731239153761e-10  3.6514046860097440e-10  1.8936745394123826e-10  7.1190740072472501e-11  9.4296980482366860e-11  1.7443356275204078e-10  1.8747347047796644e-10  4.1786193827827628e-11  4.8631149565083562e-10  2.8128413021921835e-10  3.0758540476274472e-10  5.3800306975184421e-11  3.5251300048580165e-10  2.6624253712805150e-10  5.7562779802496187e-10  7.3732067006577182e-11  6.1813108919583901e-11  2.3909527051856749e-10  7.3058926367984044e-11  4.2796087863221208e-11  1.4880829042583003e-10  2.4394484004967449e-11  6