<?xml version="1.0"?>
<VTKFile type="UnstructuredGrid"  version="0.1"  >
<UnstructuredGrid>
<Piece  NumberOfPoints="4852" NumberOfCells="9430">
<Points>
<DataArray  type="Float64"  NumberOfComponents="3"  format="ascii">-1 0 0  -1 -1 0  0 -1 0  0 0 0  1 0 0  1 1 0  -1 1 0  0 1 0  -0.5 1 0  -1 0.5 0  -1 -0.5 0  -0.5 -1 0  0 -0.1608775713298009 0  1 0.5 0  0.5 1 0  0.1967448868031411 0 0  -0.4879500282770211 -0.2446211382567146 0  -0.4591371503992904 0.3059867856388399 0  0.244543310137419 0.4893940205781976 0  -0.2467750093862201 0.6600595378992105 0  -0.6188925512563437 -0.6196673732831112 0  0.6036640963272136 0.3554539289510348 0  -0.1069427525049424 0.3188823182076161 0  0 -0.5061325913258391 0  -0.25 -1 0  -0.644344516801147 0.644944862199669 0  0.7162301188335748 0.7157897988876253 0  -0.2728900979039712 -0.6475622659215934 0  -0.6597130712917768 0.04104391333280318 0  -1 0.25 0  -0.3389731469615445 0.02361466015833945 0  -0.7378612769891004 0.3786004546323868 0  -1 -0.25 0  0.0411288977259789 0.7025496965436674 0  0.3220739671158795 0.1924911027542114 0  -0.2050376492243954 -0.3530776110807451 0  0.429583118260626 0.7172299502946609 0  1 0.25 0  0.5355652144809806 0 0  -0.75 -1 0  -1 -0.75 0  -0.7456576052906224 -0.3728822271119995 0  0.25 1 0  -1 0.75 0  0.02757118475249542 0 0  -0.25 1 0  -0.75 1 0  1 0.75 0  0.75 1 0  0 -0.02898318711980711 0  0.1146966126485046 0.2480523174138841 0  -0.1359395497314599 -0.09143416169580568 0  -0.7894476113528442 -0.1486150877270509 0  -0.4614045471552355 -0.4546609244000754 0  -0.4379198735398603 0.5353388766380408 0  -0.1241339756762932 0.829675577246058 0  -0.4513555417564699 0.7695553303548963 0  -0.08228177799901465 0.5327308277586408 0  -0.1476812384945571 0.1159459755598887 0  0.4548900909632105 0.5019269607023625 0  -0.779056336175295 -0.7790873447679738 0  0.5230468071302207 0.07370445678214092 0  0.7649978140002288 0.2467621252992278 0  -0.8175725767160156 -0.5838440171267717 0  -0.486362079156848 -0.7810782910970522 0  0.7802766716647281 0.5104221123748823 0  -0.8426299462238649 0.1241327055266806 0  0.232770782223908 0.7871388048057318 0  -0.2892297242121147 0.3996841894060247 0  -0.8433464644509968 0.6229960773563928 0  -0.7653113815978415 0.8028195636434436 0  -0.0338016537127642 -0.4822201724108698 0  0.6237418652723495 0.8696726967296238 0  0.8459860441220203 0.8457248609965909 0  -0.1298517098157226 -0.7552200196134952 0  -0.6290374313711034 0.2235828140126997 0  -0.3186622587450367 0.1897264031389093 0  -0.4974678405201129 0.1082687041235014 0  -0.5127983403392374 -0.06858744066324554 0  -0.5987123521159848 0.4783676635051362 0  0.375 1 0  1 0.125 0  -0.007107765445303294 0.135967719875755 0  0.08417926910411358 0.5344868732687408 0  -0.28666367253166 -0.2214957001543335 0  -0.2934999802513019 0.8318778772674995 0  -0.625 1 0  0.6178643469133068 0.5682724860210688 0  -0.6383781455249165 -0.8700383816191084 0  -0.3254350273413202 -0.8402811630171358 0  -0.4471079692729303 -0.6132924409781064 0  0.8661043034399091 0.6537327642544893 0  -0.6038732239557294 0.8341808701085848 0  0.125 1 0  -0.07358425825532867 -0.1890612196808532 0  -0.6315681034164031 -0.1746107564374491 0  -0.875 -1 0  0.08268788176009099 0.06496072630145176 0  1 0.375 0  -0.875 0.9999999999999999 0  0.06207449531997088 0.8572233153550787 0  -0.3018051345948486 -0.5051729245185508 0  -0.1039266149516497 0.6814817448348932 0  0.2924360000391052 0.6424890433054253 0  -0.8476390688344129 0.2743659116087059 0  -0.6236291512520638 -0.4668913745015607 0  0.001538762130551772 0.4099309042671329 0  0.5729590044906292 0.7324317022170278 0  0.4362526051847495 0.8654336370474764 0  -0.8516685686033649 0.4758873105207477 0  -0.04890936140497116 -0.3309952346525217 0  -0.7946468419231821 -0.008137561738281413 0  0.1799623885270981 0.05624632500664153 0  -0.6160566891159909 -0.3122689431706329 0  0.7689869746019898 0.09195450531831162 0  -0.8649007384272349 -0.4518097421806084 0  0.4706946342161121 0.2193970855932179 0  -0.8556815764609615 -0.2780814842065209 0  0.3471988389093379 0.3808875241190469 0  -1 -0.875 0  -1 0.875 0  0.2774316330637921 0.03549903791467177 0  -0.3828445118903883 -0.3349425085642576 0  -1 0.375 0  -0.2947404452923591 -0.09737355392615128 0  -0.7264800496074967 0.5349951488458475 0  0 -0.07736776745332727 0  0.1320611682267487 0.4020249185947827 0  -0.375 1 0  -0.3031865284113413 0.5366738335094167 0  -0.2008899173710972 0.2381194596291288 0  0.1666550536130482 0.6726276107686107 0  0.2268721201140175 0.3157669920014897 0  -0.5871753876917698 0.3470548973913693 0  -0.09459079036260543 0.004012921098737884 0  0.881988760581666 0.4328163268069245 0  -1 -0.125 0  0.3115583526419408 0.8881356633808473 0  -0.1697786716818836 0.4392359795660918 0  -0.125 -1 0  0 -0.757503739517526 0  0.07821397079968176 0 0  -1 -0.375 0  -0.375 -1 0  -0.625 -1 0  0.7474787146812756 0 0  0.625 1 0  0 -0.2918843213980812 0  -1 0.625 0  -1 0.125 0  -1 -0.625 0  0.3284075310660084 0 0  0.004929205892015135 0 0  -0.125 1 0  0 -0.006571003003944568 0  1 0.625 0  1 0.875 0  0.875 1 0  -0.6548042504963318 -0.7431286398994834 0  0.00372762971643157 0.2751487937007665 0  0.4841647138528468 0.3748272850846826 0  0.7368766878182703 0.3786892144126552 0  -0.8909373453788555 -0.686225085860254 0  -0.8908377302721899 0.811478999299898 0  0.5065378238347575 0.6199965295312918 0  -0.4358666295249749 0.8925856853379341 0  -0.8115145646450632 -0.8963186965552873 0  -0.8963852211887916 -0.8113234560124553 0  0.1749247067784246 0.8912775384799076 0  -0.749161244565986 0.2013063439027577 0  -0.6947503214598383 -0.07423004977837973 0  -0.8998663645106538 -0.06216780117465093 0  -0.3788181893439189 0.6548140814408946 0  -0.5112848526984394 0.6508811064221466 0  -0.4872326280391167 0.4249198322583462 0  -0.7271954476192896 -0.2528349767696531 0  -0.418221245383474 -0.1446162510949182 0  -0.7300971865947938 -0.6573681267007661 0  0.8920249006331965 0.3040040935640227 0  -0.03073334202184567 -0.08186592247694795 0  -0.09431229079293402 0.1980297929903099 0  -0.1925518943933573 0.5546741320706614 0  -0.2180634961925636 0.03649525623080375 0  0.6079230115321835 0.04237354389796327 0  0.6708846798180569 0.4688064668256613 0  0.731575472613247 0.8307611581901512 0  -0.8229516200551505 0.899896735247557 0  -0.7425318423855568 -0.4906452361371315 0  -0.1740994205478172 -0.5285859201839047 0  0.8967038032016524 0.5462108886874427 0  0.1665717634641467 0.1544323661064412 0  -0.7006354446736978 0.8958149662641702 0  0.556865712749929 0.4712230868439542 0  -0.05192831196150812 0.06410544052271507 0  -0.5412800058669116 -0.5377111346269169 0  -0.5083387262465598 -0.3547839139520921 0  0.3968777127802425 0.6096509488795043 0  -0.2989553380992652 0.2930071509989983 0  0.7621038746597386 0.6180466725570246 0  0.3496442018032568 0.4957829595949333 0  -0.4438330667773276 -0.8892004878418742 0  0.1278219993986962 0.7728687867195276 0  -0.3947411506698671 -0.7037529680170604 0  -0.553789130173734 -0.7013522513105745 0  0.3416671039628823 0.7817050313662001 0  -0.9116120330766904 -0.1868932889213718 0  -0.2084332278985501 0.8978023484935715 0  0.5762713566497036 0.2255328615424438 0  0.3627289841561621 0.01759846281818105 0  -0.1863712811953666 0.7453260828844417 0  -0.02365250505295322 0.7903521841298686 0  -0.06232657373538469 0.9148088281705498 0  0.0004152192803716882 0.600958520279412 0  -0.5170405331750118 0.2146882772341346 0  0.6495910595782106 0.1641149798417512 0  -0.549689437685443 0.7464482219243113 0  -0.889455517688171 0.3748411384003539 0  -0.1296551074162764 -0.6343223843119675 0  -0.02170149113668033 -0.619613650721202 0  -0.3297960260369127 -0.4150031309449168 0  0.8955378794801291 0.1745761661490503 0  -0.2433236358583446 -0.74089463455802 0  -0.9182403957903981 -0.5615528671394719 0  -0.385028776457139 0.4433051490646007 0  -0.7435923420648684 0.6333727748919298 0  -0.9214785200362972 0.5613278212895395 0  -0.9216991670234648 0.6865058451165491 0  -0.7419065204807351 0.1014149767280002 0  -0.9029877330498938 0.04035140130483716 0  -0.9213565787778244 0.1868311469345479 0  -0.2039717219820923 0.341057264697485 0  0.2117023534567919 0.5842171229024252 0  -0.02022939167998642 -0.2027822496205388 0  -0.803655728396624 0.7125814164313803 0  -0.670244171124013 0.7502011719429925 0  -0.3885042025975312 0.1151830862979819 0  -0.3168231603817192 0.7331016712456616 0  -0.04647989183488254 -0.03500221215567798 0  -0.5346469748447207 0.9055460497714329 0  -0.5729964471657667 0.5739117544147244 0  -0.4181171256539989 0.2070028581747613 0  0.01924063049561748 0.04559758621965979 0  0.816967358707363 0.7450028262153036 0  -0.5399022938478555 -0.8688613633950931 0  0.4005281360408248 0.2971931108011983 0  -0.1701173803335979 -0.8937939449481211 0  -0.06608299386479394 -0.8486546833626019 0  0.4954133950424576 0.7890169615044705 0  -0.1618933113233934 -0.4253209627258647 0  -0.4098960670912378 -0.04797928156959146 0  -0.9085377786496124 -0.9085199953439299 0  -0.673687446316472 0.3072727082664091 0  -0.6019683487567421 0.1253518013547212 0  0.529828864852967 0.8785178072331493 0  -0.009775755129243285 -0.3197447434897827 0  -0.3455885201751366 0.9101001996053315 0  -0.2465300598077061 0.1232241181362021 0  -0.6050598515365774 -0.03693903770895339 0  -0.5306478862881215 0.02197298462691533 0  -0.4359356279626465 0.03789181518080225 0  -0.5334938513018583 -0.1611835438005429 0  0.9085007907634844 0.7360521796770816 0  0.8120171978895855 0.9316968846238339 0  0.680665638749623 0.2805276808496224 0  -0.6706692297443656 -0.5458463811656239 0  0.6519787735228812 0.7814459881147392 0  0.7027888845671918 0.9191493937866904 0  -0.08174658630996662 0.4387035107315549 0  -0.9156648973119901 0.9157331968531507 0  -0.2204923375142322 -0.1519593303139991 0  -0.2726940134637577 -0.3025861273360828 0  -0.3924879479443969 -0.2268260589991318 0  0.07118618748752639 0.3325088081776846 0  0.9134109707702185 0.9132988389363601 0  0.8701243376177054 0.065173604
[...]
<PointData  Scalars="w"> 
<DataArray  type="Float64"  Name="w"  format="ascii">3.0684489152929563e-11  7.4977775622291042e-12  4.3186663313613939e-10  2.5780615230335844e-08  5.7607599868435777e-10  1.3611744431993722e-12  7.2976812359664423e-12  3.7764990680404611e-11  1.2746564545671652e-11  9.5851414544429237e-12  3.1420198902122767e-11  2.7380216927730415e-11  3.9996397956245806e-07  3.1648307531815587e-11  6.7014800708584326e-12  4.9014747246812472e-06  7.7683297631244719e-11  5.4481422500569474e-11  7.9178554174484661e-11  1.1039855967050834e-10  1.7570783971192499e-11  6.6019145579452620e-11  1.1157675546033348e-09  7.0619708607157167e-08  1.2784306538705689e-10  3.3371864552457711e-11  3.4815734271246916e-11  8.0765684243002050e-11  3.4440978252652956e-11  1.0712656573943407e-11  9.1285471159594656e-10  2.9001164701376419e-11  6.8214689727412874e-11  5.5332084848465681e-11  2.5673584181338232e-09  3.7270231345996557e-10  2.7040336528514416e-11  9.9957334447183489e-11  6.8375752716266114e-07  1.0847464251164391e-11  1.0293832252040924e-11  3.6403753761992376e-11  2.8329152233541145e-11  7.5681510329601553e-12  7.4099509182213511e-07  3.3592817387889741e-11  1.2406677031527201e-11  1.9427367659384902e-11  2.7004895524763329e-12  6.5408023784680696e-06  1.5215974689085417e-09  1.3852005935930799e-09  3.0024863361507518e-11  1.2980589425535069e-10  9.3807614939255123e-11  6.1327389640940854e-11  1.1573157152627268e-10  7.3097954348265869e-11  2.7509494440384822e-09  1.0891802985803925e-10  7.9369948583060009e-12  1.3250046561906672e-09  1.0722546911213140e-10  2.7690928236851487e-11  1.5634912465745418e-11  4.8070368854382739e-11  1.8677620672979396e-11  8.2438496897899449e-11  2.5959180776792294e-10  1.4385224932935535e-11  3.0535995296140747e-11  1.1606693024091603e-09  1.6229187893154006e-11  3.9650484922181719e-11  1.2838738454463725e-10  1.0642665766741413e-10  4.1088737210958227e-10  1.3195067540056578e-10  9.9296818514744253e-11  7.9695838476045824e-11  3.0645632533481132e-11  9.2497185738858830e-11  2.3617788367272118e-09  1.2398344837271202e-10  3.7290704879114946e-10  5.0316303453589102e-11  1.3406074464776234e-11  3.7079739637288424e-11  2.1106207562458925e-11  6.2145012543667291e-11  1.8816876877174186e-11  2.7059811668591758e-11  2.7635855215945302e-11  2.6483127663543567e-11  3.0626806073796569e-09  6.7704132098429158e-11  1.2080593651762357e-11  6.7743884395170381e-09  6.9179243155896491e-11  1.3383793668980586e-11  7.8564414550918327e-11  3.6828019042866770e-10  7.3610474044505956e-11  3.3342136514463499e-11  4.5975430172543909e-11  1.6434590032942082e-11  5.1039485350189004e-10  1.9711343618861394e-11  4.0576680803474068e-11  2.0954840271821635e-11  2.1203018814577730e-09  8.5821194857665706e-11  2.0642640928405269e-09  2.1960387806385558e-10  2.4976211771027314e-09  2.3043766052783637e-11  7.9091624742654768e-10  2.7685534825046377e-11  3.1100013802891180e-10  1.3531183818369192e-11  1.3022440988540982e-11  6.4524731435411996e-10  8.6048266790636985e-11  1.9162199047952485e-11  1.4088925301725168e-09  1.6619516806203269e-11  8.5925264532166905e-07  1.5601945545477625e-10  3.0388735328491139e-11  4.9519638286052935e-11  7.4025992082084259e-10  3.6312249984045542e-11  5.9087976873694850e-10  4.4643862061724366e-11  5.4846659705496267e-09  5.4664891090508889e-11  2.7248915737778722e-11  1.6966654738504865e-11  2.2617079143244646e-10  1.4385143792843331e-10  1.0491464280575877e-09  1.6261969510493149e-08  2.0112063880201818e-11  2.1500491988090492e-11  1.0071985440079643e-11  4.8523519042824913e-10  2.2414408048033805e-11  2.4881578961228477e-09  5.1623062833983406e-11  3.7503778886975350e-11  8.4828028539636994e-12  2.8580605593007577e-06  3.7853434966405129e-08  1.9496911439097630e-11  1.0097137514015355e-07  1.9206728453654368e-11  5.2141137447893781e-12  9.9438314292049606e-12  3.6296364324519803e-11  1.7651154142021183e-09  4.0035386051824861e-10  6.2607532657147034e-11  1.9794367809586640e-11  5.2255994690047803e-11  8.7293436727175326e-11  1.9663693141560455e-11  1.7065350746044385e-11  6.2303293259655954e-12  1.1238229155219893e-11  8.9902327630421926e-11  3.9333692011210727e-11  2.9759700453133602e-11  5.0341984544733264e-11  3.1778272428732374e-11  3.2618259286458471e-11  2.9523617738963034e-11  3.2427821550770552e-10  1.8844027908481243e-11  6.5585257814165674e-11  1.6473887386765621e-09  2.4412187459984124e-09  1.3448984887485877e-10  1.3066795088816704e-09  1.1362375626923612e-10  4.8828475024574094e-11  3.7259771761511570e-11  1.3101804264549598e-11  8.0206079045442270e-11  2.0212279648617872e-09  5.5732931948928845e-12  1.0254167072630033e-09  2.8931221548771494e-11  6.3783337858668450e-11  1.1723136741611814e-08  4.4571073402900005e-11  1.4341885939146535e-10  1.0738707475734106e-10  3.1761057687399306e-10  3.1220068379161896e-11  1.1113764497329798e-10  6.6305471726247858e-11  1.1318189699637776e-10  6.3287298789802905e-11  2.9468762441832222e-11  5.4954373420119332e-11  2.5879682352590954e-11  3.6618573985891565e-11  2.7248081836580141e-10  5.3761861325109298e-08  2.9710397855372482e-11  3.4643328933308038e-11  6.1780550614633181e-11  7.2748897101376345e-11  1.6270008358140268e-10  2.9529468893152737e-10  5.8467949904624148e-11  1.9042042462517405e-11  2.7735730825255326e-09  3.5065509364544374e-10  3.7095377852380131e-10  1.4340997776168306e-10  7.8697934198260439e-11  1.3866289925534164e-11  1.8838300372444107e-10  1.7375200606484069e-11  2.3715320007703500e-11  2.2467106966476368e-11  4.3656399239214581e-11  7.7033599986466862e-11  3.7166312149119943e-11  3.3352208374906198e-10  8.6980176506918256e-11  6.8397764122800440e-09  2.4370826327900147e-11  5.8244524151901494e-11  1.4608102768079152e-10  3.5369778798991284e-11  1.0982822163174011e-08  2.5123494815957662e-11  3.6384953973278937e-11  1.8420593494712027e-10  1.4630387234782475e-08  1.2441104266543897e-11  1.7470277788017892e-11  6.0471387572146793e-10  1.4826568436901741e-10  2.7578428623859147e-10  5.1913829930514553e-11  4.9487030397478964e-10  3.5033637986656838e-10  1.1553028036883503e-11  5.5593863566007103e-11  8.9915913860236764e-11  1.2873747337349618e-11  1.9311563273195741e-08  1.0658889696474846e-11  9.3800776847918785e-10  9.4379788389338154e-11  6.7908865601612193e-11  1.9565652947745556e-10  2.5486208241915215e-10  3.8062130198769986e-11  9.4463226066043364e-12  6.3896480272075178e-11  2.7836119880581396e-11  1.7160917554628496e-11  1.1659497474637805e-11  1.6735052738723142e-10  1.5778087317020334e-11  1.0858905179770937e-09  4.1659918809238094e-10  1.7166604277138241e-10  3.3053007388763348e-10  4.1247439455056906e-12  4.7125555429953337e-11  8.0409549541862581e-10  4.9179207236422203e-11  2.4319815214900594e-09  1.0822441528874536e-11  2.3986623697253552e-11  1.3054250493144882e-11  1.0840753597129667e-09  6.2897887650814564e-11  6.8466574470817631e-11  2.6505200938655552e-11  1.8763417292436538e-11  4.8884483602471726e-11  7.4803436114640753e-11  1.5571691230957308e-10  1.3171160015696610e-10  1.4829565265953691e-09  2.3153833231986545e-10  5.5354027569500017e-10  3.3715204639371779e-11  4.0234759710637204e-11  2.9177904901068994e-11  7.1265509057824386e-11  4.3354432044531752e-07  3.2869394937431934e-11  1.6275784219437633e-11  7.9353993012340090e-09  1.1750650195860554e-09  4.3677978720836070e-11  1.3316325161966822e-10  1.3834834919614000e-11  2.8673203033255071e-11  2.2883664034210250e-11  3.2052486698383577e-09  6.2469529186980806e-09  1.3474230137203321e-10  6.9458122756804267e-11  1.4388467350487566e-10  2.0680433667492165e-11  4.5974384386285437e-11  7.9767156216888522e-09  7.0586173517836501e-10  2.1959941693904554e-11  3.5031515968767995e-10  1.2240683770814597e-07  4.1627992949875230e-07  1.1555057479848157e-09  7.7958139965797862e-09  1.4105983448633134e-09  1.4449371393118299e-10  2.9542929086791701e-10  1.1583651115073384e-11  1.9436308645287765e-11  6.8381966483319730e-11  2.8981343461816070e-11  1.6579249609422530e-11  1.3373214583827947e-10  4.9985892307953042e-11  2.4621125424462669e-11  1.6996287163466422e-09  3.7392710144639495e-09  5.5185277824932351e-10  9.2864005654126294e-11  2.9846592651146564e-11  2.3495496929421546e-11  2.6264586534700876e-11  2.6439336638145582e-11  9.3414161524901864e-11  6.1588034567936089e-11  2.2252610416751107e-11  2.0217885561744438e-11  6.7516987366388526e-11  4.0991273797320443e-11  2.0850654431958734e-11  1.9376460496098251e-11  1.3600939740333664e-10  1.0974519457134749e-11  5.6619543719341989e-11  1.3983390409707823e-11  1.1613902960489852e-10  1.9386043073615065e-10  1.0148136330050001e-10  6.9892002400810039e-11  4.5376374994381974e-11  2.4420126864446114e-11  4.0908323662598404e-11  6.6235872152438146e-11  8.7522626663424238e-11  8.1328494096914408e-11  4.6610858836245089e-11  4.2848195250725330e-11  3.6221241873222498e-11  1.3413546236225601e-10  1.1632014759623907e-10  1.3511206162837779e-11  4.8731858995014863e-11  5.5297113712889694e-11  4.8822921480519181e-11  4.0309487536849079e-11  6.1678999314235095e-11  1.0116735483157073e-11  6.2002527620321544e-11  1.6752300243409660e-10  4.8767160972521702e-12  2.0262090602275224e-10  2.6960359040182774e-10  3.8251185162899963e-09  7.0111207828848670e-11  4.9903105166787360e-11  1.6264561717658889e-10  2.5331087479573288e-11  3.8810045468113393e-11  9.4054130958325595e-11  1.3144416167230530e-11  1.1155863939701515e-09  2.3277547577221999e-10  3.4928208631478154e-11  6.5215871333762992e-11  4.3780503653321021e-11  1.5554295284804138e-09  2.9966577773423286e-09  2.9594450212990518e-11  7.2857187933765218e-11  4.1383607155561588e-11  1.3370061144593683e-10  1.6161381596934102e-11  4.7906777466787952e-11  1.7994080852241798e-11  5.4991780483329197e-07  3.2923716044695529e-11  1.5231995094490444e-11  3.3780876033537127e-09  4.9934605810705410e-10  9.5986039257826617e-11  9.5992968270130463e-11  2.3859007603597465e-11  6.3253815732164702e-11  1.2887316932057280e-11  2.0034577858502376e-10  2.4988825798249188e-11  2.4018887344890044e-11  7.7611988735813462e-11  1.8311304966840445e-11  1.8608317286509186e-10  1.1964505849280248e-11  2.4142536472943349e-11  2.8810235393584167e-10  1.3293734182165674e-10  2.0675980213589573e-09  3.0694567108934212e-11  9.0971604920259977e-10  3.3620394003218092e-11  2.6574244032645190e-09  1.1830311954327951e-08  2.6230112034122399e-10  1.6977744186656573e-10  1.2828690783898136e-06  1.8348765723685874e-09  1.9334207317257314e-10  1.7956767444129753e-11  1.8280664146902710e-11  3.5525699805594808e-10  1.7452858652878255e-09  5.8098738338850254e-11  2.1260617810020809e-11  1.7920809720943095e-11  1.5787610812391426e-11  2.4754950283579331e-11  1.4675913847457805e-10  2.4974864511317148e-11  1.2823601494550870e-10  7.3291026265995937e-11  1.6447421437183986e-09  1.4086057884734555e-10  4.6675666350263058e-11  2.0637556006774251e-11  2.5495585662708015e-10  7.1244715483541020e-06  2.4340697442549355e-10  1.1679022534004199e-08  6.3202038931210278e-10  8.5007831749152660e-10  2.0504607201538547e-08  1.0968402752287543e-09  5.6075772213048798e-11  1.0421235182830416e-11  1.1862863379480532e-10  2.5443909390598788e-11  5.6379597256210635e-11  6.1292307234452580e-11  4.3023843612026611e-11  3.6412890680326779e-08  7.7728659216271316e-11  3.5323231875965345e-11  1.8366967002512678e-11  8.8602474187479248e-10  3.0767352294148786e-10  2.6846704904918788e-10  1.8980269477060608e-10  2.2089330546228765e-11  2.8487104389713303e-09  2.8898217713307509e-10  4.8163148845354897e-10  1.6513332858861907e-10  5.4252758352694713e-11  7.1043503041095490e-11  5.7003681201469624e-11  2.1313231856103732e-11  1.9544728580156707e-11  4.9550841030980196e-09  1.2723008195950134e-11  2.4928799752704853e-11  5.5395914900090387e-09  2.9674010063130619e-11  4.1499455989267016e-11  5.3706153554631797e-11  3.1138609405868808e-11  1.3193850531098815e-11  3.7321760436756207e-10  6.3776213705919125e-10  1.1926074445548983e-11  8.7646157586712682e-11  4.3230228494831079e-11  3.0202378154896619e-11  8.8818429881851746e-11  7.9601223090990992e-06  1.6249492326450897e-10  1.7384129311840171e-10  1.2875237804603039e-10  3.5357302874027367e-11  3.0277547252719210e-11  1.9497525670737678e-11  6.4041312885917830e-11  2.6319384273909661e-10  4.8832801950308006e-11  5.8880221946676222e-11  6.8606950908320342e-11  3.6670225754491261e-10  9.7689810229961627e-12  9.4007503988911690e-12  5.9895174306522950e-12  2.6579413819666024e-10  4.4669873968133543e-11  1.9158952901336295e-11  1.1469665808920195e-09  1.0270789831063573e-11  4.8871764728815755e-10  7.8635103912674491e-12  2.2738835014533953e-08  7.7326991500384193e-08  7.1087654939933873e-11  2.9169499946263423e-11  1.5696647759133224e-11  2.3437309114577756e-11  1.1108671679331280e-11  3.7751164267491397e-11  2.5549036799937643e-10  7.8785339223412524e-11  1.4946485511047733e-09  2.3452684298479315e-10  2.5407989242796520e-11  2.3377269377287173e-11  1.2698608667634314e-05  1.1787250267667410e-10  2.3385258708210895e-11  2.4311175469492653e-11  4.2084615122566440e-11  3.2344820772346867e-11  1.3395529440186673e-11  1.4939189996159352e-11  1.3925909070019593e-11  7.1287841365347919e-12  1.0279570903401150e-11  2.5212236275141411e-11  1.1041719458228747e-12  5.0302080373196103e-12  6.3461380008329130e-08  2.1149675467087117e-05  3.3394377368264790e-11  4.9234246827001931e-12  7.3141217577337485e-11  4.8659552852145030e-11  3.5287322159699574e-11  1.4273930874133415e-11  6.4611607714022053e-12  2.8550852778323976e-11  1.1818131590943993e-08  2.5552929199193489e-11  1.5945644724677213e-10  1.5003589636478674e-10  4.6423376578880220e-10  7.7424292854878547e-11  3.5060509627500870e-11  2.2909406109730893e-11  6.6977312530364967e-11  3.9460346600247403e-11  1.9854147606158041e-11  5.5753374414611083e-10  2.1444258781277544e-11  6.9587530880733261e-10  2.3202262447416318e-11  3.8551704362826012e-11  8.1396338435427348e-11  3.7309957160110843e-11  1.3393935585999492e-11  4.4627165200285265e-11  4.2140258443807101e-12  4.4596372600369808e-11  4.6646591662154169e-11  5.2590474461804446e-11  9.8229036774116765e-09  3.2887273684325569e-07  5.9644641722163890e-10  2.6597673697592353e-10  4.1769021519316317e-11  1.9364140143896026e-11  1.1998507264623213e-10  3.7578357043294597e-11  1.6381953725494242e-11  2.3921427641013395e-11  6.8172536068748104e-11  2.9616940546402375e-11  1.3722548358764867e-11  2.1610820179042331e-11  1.4747584060395085e-11  3.4563745946163401e-11  2.5609060519671523e-10  1.4891079994459736e-10  7.8344248705599080e-11  2.2197264365252005e-10  1.4562686785197819e-11  4.4601244354678794e-11  2.7566179051557281e-07  1.9658145576585692e-11  3.4936503674894596e-11  3.4034594009883129e-09  3.2481368930218535e-11  4.3547461358074091e-10  3.0596035377860686e-09  2.6544169186291408e-10  3.8237587556043240e-11  1.2421257943174948e-10  2.6817329895662915e-11  2.7188860545304048e-09  5.3455164002722246e-10  1.2570475034725841e-10  3.0421414169224672e-09  1.6987057569283586e-09  4.7147150117752123e-11  4.8227145924814353e-11  1.7475668125008433e-11  3.2103735946796346e-11  4.3373357533021603e-11  8.7639459025334369e-11  1.8628482533085972e-10  2.9658321556859421e-10  2.5250693104449286e-10  3.4570375777443735e-11  1.2531022992415007e-09  2.2917406230669918e-09  4.4936803702008474e-11  1.3631396762108589e-10  5.7530330365282646e-11  4.0519424024358029e-11  3.2884111315544442e-11  2.2160326441241696e-11  1.3170585205611239e-11  1.7368118795830079e-10  2.8279704187581947e-11  4.3736697568387292e-11  4.9605094990692398e-11  2.7377015367893569e-10  1.6561904397651785e-10  7.6242531349127986e-11  4.0618853860360819e-11  3.7513583714516330e-09  1.6015140608673225e-09  2.0489823135704138e-08  3.4533711810246306e-09  2.9727407877751619e-09  3.1509741149034711e-09  1.4498146986631446e-10  1.2560479076264744e-08  7.6443665458205520e-10  5.5024842824851677e-11  1.2075825135013978e-11  3.5468127326727081e-11  3.3616344374485004e-10  7.9500897766540290e-10  4.0926570913181262e-09  1.1034266142647234e-09  6.3875753004005739e-11  9.3693064853770165e-12  6.4923547049443952e-11  3.0923482757643507e-09  1.6720326444456398e-11  3.3500261389334116e-10  2.2010681799671032e-10  6.2050895279942645e-10  1.7974106370063518e-10  6.9257804394440709e-10  1.2004468277939693e-10  2.9331460514385495e-11  9.9032789195631737e-11  7.2412467967837552e-11  6.4629582257464972e-10  1.4746723895361665e-11  1.0496071262866222e-10  4.8840942649068384e-11  3.0427761611316792e-12  9.1753326129750174e-09  2.7090447576262670e-11  3.2143014562798030e-11  6.6465276448910884e-11  3.0450846847762378e-09  3.5686991970650538e-08  2.7269170672565396e-07  4.2709184154902424e-11  2.7272152942568219e-11  6.9069072450842241e-09  4.7237815076493375e-09  4.8161011732729363e-11  5.9967338584871987e-11  2.8074095030337898e-11  1.6507254553430945e-10  4.0326636163856176e-11  7.7567547201860203e-11  2.5515443166589631e-11  2.7274745653852947e-11  3.1448478381993331e-11  3.7600801243409568e-11  3.9184899523852886e-11  7.0314160027614040e-11  8.0592589751396772e-11  1.9416394576171585e-11  1.0963136037786360e-07  4.2000782840313613e-11  3.0770443035498380e-10  4.0998349407893427e-11  5.1656949442382487e-09  6.1115563510476752e-11  1.6647342328485906e-11  2.2553286532655038e-11  1.0414341813243070e-10  8.0981384244721241e-11  1.7887222990451762e-10  2.3839604812038958e-11  3.0932007122100988e-11  4.3719319201922917e-11  3.9355930991993658e-11  5.5838758947201539e-11  9.6008245472863718e-11  4.0711293157482375e-10  2.9624447007724651e-11  9.3731494909561176e-11  4.8049758582180986e-11  1.7267334952561749e-10  3.0673485824381726e-10  2.2511869758409258e-10  1.1285849120651339e-10  3.9598163149251323e-11  3.9535184933505696e-11  4.4495710665689037e-11  6.6097868414773427e-10  3.2846661667423209e-10  3.1831906291753694e-10  2.7121515552297243e-10  1.8120999279713998e-10  7.6068899482774574e-11  4.0426806934745326e-11  8.3824856036586289e-11  9.4371158578126184e-12  2.0861003639230686e-11  6.0740946393334972e-11  1.3415467775587028e-07  1.4332398939653211e-10  4.8062060172061820e-11  8.7071292307166501e-11  3.4455877673963592e-10  6.5352040821901611e-11  1.6293273758062307e-11  4.2129131034001863e-11  2.4360374491243890e-10  1.3283539175628178e-10  1.1919742630853039e-10  8.0564667608525632e-11  1.2588895908089564e-10  1.0538871143626993e-11  6.1265644829520401e-11  1.5060919417588889e-10  5.2504076449918166e-11  1.7875367627090005e-11  2.1706099490913882e-10  2.3765086890119922e-11  2.2168045619808790e-11  6.2671345309519621e-11  2.4027504025785840e-11  9.5271704723261239e-11  2.1260522559129877e-10  4.1765161155716098e-11  4.9414137007963776e-11  3.6786698705706635e-11  4.6008653061897391e-11  1.1516941547342654e-11  2.2646452327831911e-11  2.0759560673828312e-11  7.7287777821061998e-11  2.8158715658177904e-09  1.7342117798030912e-11  1.0537852053212807e-11  2.1991551549427260e-11  3.3562172886359348e-11  8.1566994991069745e-11  3.8419907571656562e-10  3.1298168750000623e-11  3.9691450163980735e-11  6.2653345712654734e-10  1.8506196124686476e-10  7.5243829563209246e-11  2.7430033075688328e-10  3.7952873141210936e-11  2.5504584042918334e-09  7.8219399476249003e-11  8.3862372839563359e-11  2.3277164034604057e-10  5.2029461978637039e-11  1.4582774635759265e-11  1.3302295362621197e-11  3.2656238861089130e-11  3.6958457800843634e-10  3.8853658992256643e-10  2.8402708688581969e-10  9.3461731158936203e-10  8.1854467990646618e-11  1.5707661069516072e-09  1.4783413998104209e-10  1.5586054705019002e-10  2.8906432731683905e-11  3.6514980092569825e-11  1.0735567115041450e-10  2.4280683911663717e-10  2.0184841050436173e-11  2.1045062720092668e-10  7.6713277479052447e-11  3.3991396480464884e-10  1.7007852734819275e-11  2.5124134173651538e-10  7.4737535265940581e-11  5.1015846493533870e-09  4.3018386833272781e-11  2.4800514326359064e-11  2.6153005216067645e-10  3.1341008540348167e-11  1.4488228720400091e-11  3.6461844167922331e-11  1.0227677426516000e-11  1