<?xml version="1.0"?>
<VTKFile type="UnstructuredGrid"  version="0.1"  >
<UnstructuredGrid>
<Piece  NumberOfPoints="1237" NumberOfCells="2335">
<Points>
<DataArray  type="Float64"  NumberOfComponents="3"  format="ascii">-1 3.09081664739187e-17 0  -0.9843750000000001 0.02706329386826373 0  -0.9586042096960951 -0.0236073080308172 0  -0.9687500000000001 -0.05412658773652738 0  -0.9687499999999999 0.05412658773652741 0  -0.9472957560052226 0.006184170637571083 0  -0.9267582714381279 -0.04141318421241193 0  -0.9316799261084423 -0.07502217834255943 0  -0.9375000000000001 -0.1082531754730548 0  -0.9304535526187879 0.02123269309792843 0  -0.9155919293475937 -0.02097532195701668 0  -0.8901898660228655 -0.05879793213392052 0  -0.8961407092258983 -0.08791682354371629 0  -0.9041593017321125 -0.1150769371767221 0  -0.9062500000000001 -0.1623797632095822 0  -0.9531250000000001 0.08118988160479108 0  -0.890147330991285 -0.0122086527191084 0  -0.8576709175674995 -0.04850009197978337 0  -0.8494979525438807 -0.09201284187231788 0  -0.8688087259335305 -0.1227339854926646 0  -0.8657397003544938 -0.1744307530448399 0  -0.875 -0.2165063509461097 0  -0.9191385500632976 0.05668682295204934 0  -0.9374999999999999 0.1082531754730548 0  -0.8414732086268925 -0.02979075402072296 0  -0.8838615846104741 0.03281364894932847 0  -0.9025993020289615 0.08399522279934024 0  -0.9218749999999999 0.1353164693413185 0  -0.8069091517126806 -0.1063797548106189 0  -0.8227041474082361 -0.1554136366367828 0  -0.8450362008579381 -0.1636153151676399 0  -0.824611073526637 -0.2087806554713395 0  -0.8432447828874938 -0.2299625171474235 0  -0.8437500000000001 -0.270632938682637 0  -0.8074688489602485 -0.04534311577063995 0  -0.7748599739446962 -0.09147609870793595 0  -0.7599743974004342 -0.1515693530204255 0  -0.7874243887323827 -0.1486997295560047 0  -0.7740096897566618 -0.1902442517032015 0  -0.7982566063220082 -0.2018609305277571 0  -0.7939958243211587 -0.243248178868526 0  -0.8033953092403587 -0.2739516347679044 0  -0.8125000000000002 -0.3247595264191645 0  -0.8481685757897792 0.03463580614500975 0  -0.8763526826359844 0.09829521691979071 0  -0.9062500000000001 0.1623797632095823 0  -0.7872217742390745 -0.03024195936296309 0  -0.7565548600439893 -0.06556774174670035 0  -0.7280367863186943 -0.1046281989307924 0  -0.7428557301118698 -0.1326576576268934 0  -0.7130575397441211 -0.2080743084118526 0  -0.7425045269468755 -0.2040970945489534 0  -0.7674851701419854 -0.2290293682917657 0  -0.7599986833552189 -0.2682349390602705 0  -0.7616526459078594 -0.3305135978123668 0  -0.7812500000000001 -0.378886114155692 0  -0.816253599818404 0.01031925268654644 0  -0.8190007077644565 0.05195524742955143 0  -0.8424384387483641 0.09512493014350837 0  -0.8689593925676488 0.1377994471097691 0  -0.890625 0.1894430570778459 0  -0.7410175419981699 -0.05005547045971393 0  -0.6820539222728559 -0.1168108160858607 0  -0.6757831681120814 -0.161343132024619 0  -0.7066615444436462 -0.1644905737066079 0  -0.6637898688950368 -0.220644916152676 0  -0.6744004859163939 -0.2587362859831477 0  -0.7325446303104611 -0.2447371505997974 0  -0.7216022609970536 -0.292027783035909 0  -0.7407903637588057 -0.3123505827564781 0  -0.7035881363438097 -0.356533874799312 0  -0.7288120197725808 -0.392133095104917 0  -0.75 -0.4330127018922193 0  -0.7897359628532806 0.006725954256448229 0  -0.7972623766874077 0.06341714755367762 0  -0.8304362309430872 0.1129567769931919 0  -0.8421684945059275 0.1611058176776091 0  -0.8750000000000001 0.2165063509461097 0  -0.7637447900489446 0.0084055150883772 0  -0.7027910536312951 -0.05387662733901926 0  -0.6399011514174923 -0.1176136647146791 0  -0.6199508075525719 -0.1685360793359413 0  -0.6333977552331249 -0.1967451137076092 0  -0.619216095826812 -0.2480485729726879 0  -0.6276040039072337 -0.2883488704175591 0  -0.6261231993592246 -0.3335289324385786 0  -0.6865068439078151 -0.2949080438254524 0  -0.6907604947283688 -0.3285687191624082 0  -0.6650087872471667 -0.3699552850214223 0  -0.6798435707998647 -0.4026405874050478 0  -0.7050830176678921 -0.447022367558788 0  -0.7187499999999999 -0.4871392896287467 0  -0.7723498686347566 0.07044317118097282 0  -0.8017262003913778 0.122128289958322 0  -0.8169126563784805 0.1693170073489986 0  -0.8593750000000001 0.2435696448143733 0  -0.7259809026153086 0.008482836968837627 0  -0.6740418109022589 -0.02450688559989462 0  -0.7223115334823216 0.04936346203485886 0  -0.7572899881178878 0.1097950588389946 0  -0.7734646598732114 0.1561617258837397 0  -0.8083562768108126 0.2049421991290764 0  -0.84375 0.270632938682637 0  -0.6660887510003569 -0.06759964205641175 0  -0.6171961871067949 -0.09908864551504318 0  -0.5833829368075305 -0.1731805645520128 0  -0.5851671105835449 -0.224515763015499 0  -0.5727138940289876 -0.2779087493001106 0  -0.5801058985757366 -0.3174797115370438 0  -0.57948544680462 -0.3632267691333948 0  -0.6267964734590343 -0.3775121834136309 0  -0.6398433230386719 -0.4169421315431633 0  -0.6616426493335408 -0.4488274832297308 0  -0.6803761222242836 -0.4915582867438201 0  -0.6875 -0.5412658773652741 0  -0.6566148164134606 -0.3360342982328451 0  -0.6542800869698886 0.003633874519227934 0  -0.6158214682809207 -0.05883418227773253 0  -0.5750967197363078 -0.0918766710651954 0  -0.5702619644256461 -0.1314570888217494 0  -0.5310796517017504 -0.1985334532999667 0  -0.5379237787887492 -0.2420866834293268 0  -0.5516118004787688 -0.2643356959406811 0  -0.5219299366261414 -0.3074188372821275 0  -0.5441569679299709 -0.3203940814531961 0  -0.544846265790987 -0.3611331944285065 0  -0.5114751055162018 -0.4066686830605467 0  -0.5298500409650213 -0.4384707797967484 0  -0.5794737256993363 -0.4086737180861368 0  -0.6054298025247353 -0.4197528954248557 0  -0.592710431245361 -0.4609848902618885 0  -0.6134133603589965 -0.4927681039827594 0  -0.6393590131426583 -0.5198261223711328 0  -0.6438736370520471 -0.5600300692022314 0  -0.65625 -0.5953924651018015 0  -0.6961199877549025 0.06467019448070167 0  -0.7322688722710476 0.1241970790870847 0  -0.7614677067674487 0.1843417562313635 0  -0.7982098286578407 0.241597904092872 0  -0.828125 0.2976962325509007 0  -0.6121569899603913 -0.02049935287448479 0  -0.5680093344887456 -0.06210558644879417 0  -0.5296938028141881 -0.1373067408269198 0  -0.4901525291003586 -0.1955789237044915 0  -0.4746183446720159 -0.2428634803524866 0  -0.4858590591960716 -0.2715088080329482 0  -0.4715952226353661 -0.3270718944547512 0  -0.4874270099800481 -0.3483793786947822 0  -0.480078652051836 -0.4044778124091272 0  -0.5107966792581313 -0.3607592194079098 0  -0.6351984073276686 0.03037645136060999 0  -0.6919512395101405 0.1148619971399276 0  -0.7371035741994222 0.1934824949257085 0  -0.7677243675294183 0.2452436239691324 0  -0.8125000000000001 0.3247595264191646 0  -0.5070956227453038 -0.2856926586873541 0  -0.4592753826052925 -0.4489578951960593 0  -0.4551538480224278 -0.4879280476876971 0  -0.4870834355975865 -0.4924138429753193 0  -0.5543645851211818 -0.4600201827899537 0  -0.5636063113133203 -0.5062314567180716 0  -0.5722394951023636 -0.540723915347752 0  -0.6004398475588687 -0.5639514773360513 0  -0.6165119354103209 -0.6003123312214718 0  -0.625 -0.6495190528383291 0  -0.5850968043587489 -0.01747042289921243 0  -0.5715475053296581 0.003755875240688324 0  -0.632542541699327 0.08118252107995054 0  -0.6715186710197373 0.1292199759178416 0  -0.6982974014086432 0.1789827939308964 0  -0.7309041627521532 0.2234419242184485 0  -0.760853516405614 0.2792464453234507 0  -0.7607023230601084 0.3093962646126385 0  -0.7968750000000001 0.3518228202874282 0  -0.5264933157473631 -0.08231084764042879 0  -0.493638060994832 -0.1339939179799725 0  -0.4589626054281711 -0.1957888821520802 0  -0.438352019728192 -0.2427967943470546 0  -0.4349603537871217 -0.2905998917905525 0  -0.4340727913783781 -0.3307406261902842 0  -0.3931940322566967 -0.3797355265396843 0  -0.4328932475453516 -0.4073381105917769 0  -0.415502513600294 -0.4580373266102869 0  -0.385415281901366 -0.511073437509846 0  -0.3881529845957117 -0.5477450464703199 0  -0.4322278898459536 -0.5328927439743946 0  -0.4708621541874918 -0.5447008496340244 0  -0.5212781730861482 -0.509033783025311 0  -0.5273194299998638 -0.5485603521097303 0  -0.5234826944144788 -0.5932528774620949 0  -0.5625853138775753 -0.5789028834579788 0  -0.5740199804033532 -0.6134996816985621 0  -0.5765847191201461 -0.6564593508420057 0  -0.59375 -0.7036456405748563 0  -0.5800862410227176 0.06953847272188511 0  -0.62345922728912 0.1087748024732029 0  -0.6592027535596012 0.1483415294528432 0  -0.7030117102084296 0.2220614128747072 0  -0.7211245865447338 0.2726260665754737 0  -0.7293612713284667 0.3214771290950779 0  -0.7890625000000001 0.3653544672215601 0  -0.5497332796675871 0.02526608106074905 0  -0.53018493643993 -0.01879708202667862 0  -0.5023738120312831 -0.06929095084794874 0  -0.4543086626793323 -0.1501783646722772 0  -0.4248556544311721 -0.2001778118037034 0  -0.3836034551939345 -0.2834399929263637 0  -0.3735195503155113 -0.3423773121212576 0  -0.3164083588907829 -0.4085503075097236 0  -0.3374441431234344 -0.4358308634994116 0  -0.3563643403403329 -0.4652367397589351 0  -0.3293009761387771 -0.5276556289563349 0  -0.3139040252508816 -0.5855140438576723 0  -0.366730554445017 -0.5948349816197472 0  -0.4217402740883738 -0.5900354366832488 0  -0.4753932323153703 -0.5864582514369745 0  -0.4778516850572023 -0.6318307895279576 0  -0.5087154203841168 -0.6499046400010015 0  -0.5448706663656597 -0.6492816546120687 0  -0.529090650986931 -0.6944022548983919 0  -0.5447409078977913 -0.7268187065901833 0  -0.5625000000000001 -0.7577722283113839 0  -0.5918572054463975 0.1338101643626165 0  -0.6347680448791199 0.1520640736039057 0  -0.6649299767989149 0.2164013530528183 0  -0.6741572651241856 0.2686102951723429 0  -0.6789476455262888 0.321375691006909 0  -0.7254508777365434 0.3530655186058727 0  -0.7812499999999999 0.3788861141556918 0  -0.5377716048704266 0.05272672813330151 0  -0.5104530844077947 -0.001526069099174808 0  -0.46319401157798
[...]
<PointData  Scalars="w"> 
<DataArray  type="Float64"  Name="w"  format="ascii">1.0143504120263382e+00  1.0132542051950653e+00  1.0142706213745902e+00  1.0148131453454168e+00  1.0117834541979269e+00  1.0139990595532777e+00  1.0165546275728574e+00  1.0159656182664716e+00  1.0163593755058042e+00  1.0157233040585698e+00  1.0201203924364810e+00  1.0243638620602247e+00  1.0208148561492676e+00  1.0193509741700177e+00  1.0223882655926899e+00  1.0121513804113844e+00  1.0309343961999899e+00  1.0389719498057668e+00  1.0367484422561664e+00  1.0262422045485455e+00  1.0267190902584622e+00  1.0261791385233161e+00  1.0161043294584595e+00  1.0149116146336150e+00  1.0425609988001403e+00  1.0291454343429598e+00  1.0195543329818748e+00  1.0214759419062269e+00  1.0451718068631664e+00  1.0369160077428099e+00  1.0323772059139240e+00  1.0311372311823466e+00  1.0304483734323731e+00  1.0400537816407567e+00  1.0432463674167307e+00  1.0450071047170770e+00  1.0428610323802083e+00  1.0410235201802711e+00  1.0400907757017992e+00  1.0378072333387551e+00  1.0427656459983499e+00  1.0531696944332973e+00  1.0926038533146067e+00  1.0406343931979669e+00  1.0283607337658343e+00  1.0318732019059098e+00  1.0466423018962010e+00  1.0518671393108470e+00  1.0566925323684546e+00  1.0479366442539053e+00  1.0598032701589384e+00  1.0474115957733703e+00  1.0441552367133131e+00  1.0576237720970727e+00  1.0949073492444630e+00  1.1244290307192146e+00  1.0431796959115467e+00  1.0417551711499518e+00  1.0361784295036003e+00  1.0375292955711772e+00  1.0433257441754435e+00  1.0622493121394474e+00  1.0834081035538974e+00  1.0819518925719382e+00  1.0632740473660753e+00  1.0858985264554266e+00  1.0950153911052916e+00  1.0574124177313291e+00  1.0618279269762652e+00  1.0776841530978558e+00  1.0916089391397690e+00  1.1302647018861067e+00  1.1322592759641232e+00  1.0518443593245010e+00  1.0516905373556029e+00  1.0440456401494145e+00  1.0525740533653312e+00  1.0490264160457683e+00  1.0655693643827966e+00  1.0830188182192155e+00  1.0926624318641933e+00  1.1078749050838070e+00  1.0967793340466374e+00  1.0831396482148588e+00  1.0850653680150417e+00  1.0779199783440847e+00  1.0689615290111119e+00  1.0659128178762132e+00  1.0772950475638547e+00  1.1178124626073813e+00  1.1394070209872635e+00  1.1358003176658216e+00  1.0725054970942498e+00  1.0659653071777551e+00  1.0671353311378353e+00  1.0466397449990970e+00  1.0919799311334075e+00  1.1015972603644815e+00  1.1122131595096831e+00  1.0876534049878861e+00  1.0860467787695502e+00  1.0662451872780383e+00  1.0414381293103072e+00  1.0911442903570545e+00  1.0903558931610315e+00  1.1019447360498857e+00  1.0795183073812666e+00  1.0693014845588165e+00  1.0823227960880069e+00  1.1020411405229276e+00  1.0770114115992129e+00  1.0989157441951787e+00  1.1343437375524934e+00  1.1509384559033096e+00  1.1553538624168178e+00  1.0646629899087903e+00  1.1183222842871370e+00  1.0951364718764083e+00  1.0937573315999045e+00  1.0901110482709737e+00  1.0995010117731296e+00  1.0739822621301611e+00  1.0666280297807034e+00  1.0657913447473359e+00  1.0685910906027489e+00  1.0877404241303197e+00  1.1396294934888958e+00  1.1667315685288759e+00  1.1171952874832098e+00  1.0997717135770519e+00  1.1157026480931185e+00  1.1373830419831268e+00  1.1541757613976373e+00  1.1402015677375217e+00  1.1305471367129776e+00  1.1214162550351447e+00  1.0976608804317227e+00  1.0896481625052934e+00  1.0510583566422189e+00  1.0341143778867621e+00  1.1019363885340576e+00  1.0993972690918603e+00  1.0946799082538559e+00  1.0922938504771995e+00  1.0924260943663415e+00  1.0805467822972150e+00  1.1224152601404171e+00  1.1006588445033370e+00  1.1752553243716226e+00  1.0844159312375516e+00  1.1188789358251692e+00  1.1159077351604376e+00  1.0752544071357277e+00  1.0479990561448800e+00  1.0368168627669927e+00  1.0703552249478521e+00  1.2989326449219440e+00  1.3409651661899800e+00  1.2694873350881117e+00  1.1385054831061800e+00  1.1415526728034486e+00  1.1445462279112235e+00  1.1507243419905577e+00  1.1394755481146621e+00  1.1497463124554010e+00  1.1085682043072640e+00  1.1036709976208869e+00  1.1283886154381721e+00  1.1073013376509064e+00  1.0774420127100215e+00  1.0613258613184755e+00  1.0494084505296641e+00  1.0486562353086653e+00  1.0434272460302021e+00  1.1002575628714406e+00  1.0914798799022765e+00  1.0910511678252954e+00  1.1078361482024492e+00  1.1430186351898701e+00  1.1861713549718609e+00  1.2932570591304111e+00  1.2606455658400426e+00  1.3239985877247711e+00  1.3636281584399035e+00  1.3621360251796331e+00  1.3248387426204764e+00  1.2519756387442742e+00  1.1813493162970639e+00  1.1633481396036214e+00  1.1808688606501581e+00  1.1586567161200108e+00  1.1861482845936751e+00  1.1752249706784115e+00  1.1953519255278069e+00  1.0907250794832488e+00  1.1066415651305370e+00  1.0934803643746815e+00  1.0721777453919599e+00  1.0635465437905849e+00  1.0576665162567116e+00  1.0475010708379902e+00  1.0851421440360511e+00  1.0944263494867110e+00  1.1148231089027527e+00  1.0954385806065809e+00  1.1010861091104762e+00  1.1660837919938265e+00  1.2372664856186630e+00  1.2488051213638129e+00  1.2258757520708881e+00  1.2404865550146862e+00  1.3094616818276013e+00  1.3785068090322290e+00  1.3500797713082320e+00  1.3002991473919401e+00  1.2323273319046126e+00  1.2646907174740278e+00  1.2579615091810119e+00  1.2257209208589552e+00  1.2475077299998174e+00  1.2332759388962065e+00  1.2496275164830808e+00  1.0924631426916591e+00  1.1045765545432196e+00  1.1042180963648098e+00  1.0882184714392065e+00  1.0797059693969506e+00  1.0651161705214323e+00  1.0516083578550486e+00  1.0800549290164598e+00  1.0964787949060262e+00  1.1481742240892376e+00  1.1153555780891542e+00  1.1211008544965380e+00  1.1751818713797777e+00  1.1746751711695076e+00  1.2072161696144299e+00  1.2293064727749399e+00  1.2603745780596651e+00  1.2674090721136586e+00  1.2599120150096821e+00  1.5017979701544615e+00  1.4731809433419691e+00  1.3845017847958612e+00  1.4432071732144216e+00  1.5344194600825822e+00  1.3368072451422959e+00  1.3468310042300327e+00  1.3114260393649879e+00  1.2873525347115800e+00  1.3281751405652187e+00  1.4117288045771363e+00  1.1028707720874666e+00  1.1179614721021860e+00  1.1182374235218184e+00  1.0848000601319738e+00  1.0757926828865574e+00  1.0602985778000102e+00  1.0991313153114897e+00  1.0882352444292798e+00  1.0883483320953591e+00  1.1045343397669807e+00  1.1829451296263001e+00  1.1819390376857501e+00  1.1234545489339560e+00  1.1320728255964994e+00  1.1990388390755402e+00  1.2025796656975338e+00  1.1934741788874541e+00  1.2108487303024855e+00  1.2490967649493947e+00  1.2546764717443839e+00  1.3589125875292032e+00  1.4256838082968226e+00  1.4942566072585615e+00  1.4318931999148341e+00  1.4158079583213770e+00  1.4741163954070409e+00  1.4222502261467425e+00  1.4068626318222894e+00  1.5657252220064475e+00  1.4855428046317873e+00  1.3847511487401065e+00  1.3369755046611329e+00  1.3486979725097137e+00  1.4657487640923885e+00  1.5265594358829520e+00  1.1061329394056176e+00  1.1242849945851996e+00  1.1604987023546407e+00  1.1458209194749582e+00  1.1006719304378574e+00  1.1023834148732423e+00  1.1462571317928849e+00  1.1641601235649797e+00  1.1771760591282703e+00  1.1404504463651444e+00  1.1512326904641914e+00  1.0967357580116721e+00  1.0672799467124015e+00  1.0693489639250728e+00  1.0642040123820262e+00  1.2185149282266270e+00  1.3453282617632534e+00  1.2408693784229492e+00  1.2460626384602762e+00  1.3891158609273950e+00  1.4952134219524631e+00  1.3858343102212602e+00  1.4172967854119070e+00  1.5166903656806403e+00  1.4974615872272330e+00  1.4014856343316675e+00  1.4374887426779592e+00  1.3698469335787418e+00  1.3781548112806827e+00  1.4715968120701304e+00  1.4433318520525842e+00  1.5193506094709528e+00  1.4058899848665887e+00  1.3636718868302844e+00  1.4027321520667764e+00  1.4631137701622243e+00  1.1648780368665195e+00  1.1207377747503706e+00  1.0951732507555096e+00  1.0699908719166653e+00  1.0618442647868849e+00  1.0567562917608508e+00  1.0552539517782848e+00  1.0496623502338402e+00  1.1432398600254063e+00  1.1015723685171086e+00  1.1240888312539254e+00  1.1452432548760205e+00  1.1598624571586125e+00  1.3908706262863979e+00  1.4308786825500956e+00  1.3047855351999254e+00  1.3309576895443773e+00  1.3890802864343288e+00  1.4394015382924088e+00  1.4341606125066848e+00  1.4324835433705720e+00  1.5891117907451091e+00  1.7331269330711465e+00  1.8470545272328109e+00  1.5538933239738908e+00  1.4532304850834588e+00  1.4591499269964645e+00  1.4609070873754477e+00  1.4610761184328798e+00  1.3875828778304642e+00  1.5013523908378970e+00  1.5693178104229075e+00  1.5671957596759982e+00  1.4758931474365595e+00  1.4491146830140178e+00  1.4266823554190746e+00  1.1273427292776390e+00  1.1269314128725878e+00  1.0982721594964135e+00  1.1250175011047174e+00  1.1550252347653298e+00  1.1794457244482115e+00  1.2342981439434091e+00  1.2395275536943104e+00  1.2987216938023396e+00  1.3477310633292889e+00  1.3406025613211223e+00  1.5042431596709851e+00  1.4608653920859738e+00  1.5609602816072272e+00  1.4733317907072399e+00  1.6172906389970194e+00  1.4414913480170499e+00  1.0951397043456814e+00  1.0771726484156594e+00  1.0775871111426145e+00  1.0665205111661169e+00  1.0632298151077024e+00  1.0465959117191701e+00  1.0403766768653888e+00  1.9753100081874690e+00  2.1357199309941577e+00  1.6621495981355467e+00  1.4866634685997859e+00  1.4312478810165041e+00  1.5026421061763902e+00  1.5255827734581184e+00  1.1206071873693026e+00  1.1321966115751712e+00  1.0964048924764980e+00  1.0755155222220230e+00  1.0684303637608665e+00  1.0694603370412810e+00  1.0668065215593250e+00  1.0592877679761150e+00  1.0484281106227062e+00  1.0390394074350804e+00  1.1182235662842008e+00  1.1651836921350849e+00  1.1989811094482610e+00  1.1807588068932435e+00  1.2567011768867880e+00  1.3244857350518728e+00  1.3754679277942974e+00  1.4390769178118219e+00  1.4539732568181780e+00  1.6317337578613720e+00  1.6002059443524845e+00  1.5196513490302956e+00  1.5333834749541855e+00  1.9309960731001476e+00  1.9091449111741543e+00  1.6522037143045643e+00  1.1544948702032392e+00  1.1358395843215698e+00  1.1387667844946505e+00  1.1277721621282895e+00  1.0852051019459570e+00  1.0740590297248256e+00  1.0631032277975867e+00  1.0602995240184154e+00  1.0470855125067615e+00  1.0430622859130501e+00  1.0460568747458583e+00  1.0451540921702598e+00  1.2131991535503015e+00  1.1890396207945384e+00  1.1502558514695029e+00  1.2235758548324032e+00  1.2808918438394212e+00  1.4401939404302768e+00  1.4793174587847040e+00  1.7064010897725534e+00  1.6750044306840552e+00  1.5039585091431857e+00  1.5358742712854065e+00  1.6083563368658602e+00  1.6032191586477269e+00  1.1667696688244118e+00  1.2363724091714734e+00  1.1459647158299775e+00  1.1488084410073780e+00  1.2165369257989898e+00  1.3060898822507410e+00  1.4232458838182005e+00  1.5757564869583831e+00  1.5035063574084184e+00  1.5805092572505510e+00  1.7349898019640730e+00  1.6372532300106852e+00  1.5756204975662236e+00  1.5822907615409083e+00  1.1607955502630876e+00  1.1499643106156112e+00  1.1556276607135809e+00  1.1165029635425023e+00  1.0903760124087212e+00  1.0687079606222576e+00  1.0557414716789417e+00  1.0475928443859208e+00  1.0377198690241340e+00  1.0378004772498077e+00  1.0377827772067743e+00  1.0466817272256983e+00  1.0615449816637896e+00  1.2201613804439047e+00  1.1848646547771278e+00  1.1759287399741707e+00  1.2179257084928126e+00  1.2518795015285642e+00  1.5660777148113814e+00  1.7287200859379455e+00  1.5997617744938479e+00  1.7808402591344186e+00  1.9803853038794041e+00  1.8432588505607346e+00  1.1550474015611221e+00  1.1692237287787139e+00  1.1642598380436457e+00  1.1490670040367379e+00  1.1145398527438215e+00  1.0940529929498415e+00  1.0710397243840442e+00  1.0517883009271922e+00  1.0453167347951346e+00  1.0424351538346566e+00  1.0394041084435444e+00  1.0382728039533471e+00  1.0454501016304547e+00  1.0358537285749454e+00  1.2077054686859097e+00  1.1592375327285616e+00  1.1404495574876168e+00  1.1541154262506061e+00  1.1804857213853066e+00  1.1632367436273106e+00  1.1026813875888097e+00  1.0602419006704997e+00  1.0476889703255203e+00  1.0418990396670720e+00  1.0413566365749256e+00  1.0450729811995927e+00  1.0434955525371921e+00  1.0420746668659133e+00  1.0430136956165046e+00  1.2675137800953933e+00  1.2997738844180620e+00  1.2761943089000656e+00  1.5100733027030022e+00  1.6449149641327194e+00  1.7175914379572619e+00  2.2984645050225607e+00  2.3694549505492968e+00  1.9086792078821557e+00  1.1842254100855771e+00  1.1758909674643250e+00  1.1418055329846144e+00  1.1744453375994341e+00  1.2215884964324959e+00  1.1740079071212646e+00  1.1545619737579280e+00  1.1152011846447507e+00  1.0670386672255225e+00  1.0602379587634994e+00  1.0499323902289441e+00  1.0437663600522387e+00  1.0362958262266033e+00  1.0356814191089261e+00  1.0378700477155494e+00  1.0409654872764500e+00  1.0328848462705005e+00  1.0342154641252881e+00  1.0398873048900532e+00  1.2742870629403691e+00  1.2766157270288105e+00  1.3174169808033072e+00  1.3389358386502912e+00  1.4155897557899253e+00  1.5769116368102296e+00  2.5424465881709328e+00  3.3342659112203132e+00  3.1152615771436345e+00  1.1395320000080258e+00  1.1667779264387912e+00  1.1351957820686176e+00  1.1603575619925710e+00  1.1453016882109912e+00  1.1070446210550535e+00  1.0753551331823457e+00  1.0623297745979363e+00  1.0558996490442845e+00  1.0570802313927974e+00  1.0406051082919758e+00  1.0352095556965124e+00  1.0335281116135071e+00  1.0363280731714279e+00  1.0384822067773698e+00  1.0303227342577281e+00  1.0249620956477523e+00  1.1987832439441111e+00  1.2015388795768029e+00  1.2597516349224174e+00  1.3918911567629657e+00  1.3692162442989297e+00  1.4755550609365491e+00  2.3797743318541689e+00  3.1729397084447930e+00  2.2916551283511963e+00  2.0974955139859914e+00  1.1552650001776350e+00  1.1593794812153402e+00  1.1907516577659110e+00  1.2008660728156990e+00  1.2586496721359612e+00  1.4738401683482707e+00  1.5516245544978893e+00  2.0133461721050305e+00  2.2440375511074846e+00  1.9701307384515581e+00  1.5480033644267344e+00  1.5749888402766345e+00  1.1694974434907246e+00  1.1221871238090553e+00  1.1122685334421121e+00  1.1132110010924769e+00  1.0866191704550010e+00  1.0652225372128126e+00  1.0709534080263337e+00  1.0533168998960967e+00  1.0482229952305016e+00  1.0589881481875398e+00  1.0499864057249650e+00  1.0454165903389978e+00  1.0412268830629694e+00  1.0299534823006211e+00  1.0309008959204060e+00  1.0275856030770818e+00  1.0237115971102007e+00  1.0221339264146394e+00  1.0408326208781529e+00  1.1626204797009838e+00  1.2044985190518418e+00  1.1542129785085657e+00  1.0990073172004013e+00  1.0902002842703689e+00  1.0699824739046835e+00  1.0501242177193537e+00  1.0484043801817104e+00  1.0418173193220732e+00  1.0402667538028061e+00  1.0448476172941887e+00  1.0429294258032564e+00  1.0447487171164733e+00  1.0360997960758869e+00  1.0331465168148364e+00  1.0288519677961272e+00  1.0274998429174989e+00  1.0265568230971474e+00  1.0205440249789495e+00  1.0197856607063100e+00  1.2179484754017784e+00  1.2250887353638875e+00  1.3340385307220328e+00  1.2824932630996659e+00  1.4014783620263160e+00  1.5076070542384865e+00  1.5626019557040407e+00  1.7872420747455202e+00  1.8010515975338290e+00  1.7061018964873251e+00  1.5076669979447588e+00  1.4015640706776689e+00  1.3532834179726219e+00  1.1557491295936593e+00  1.1515909405437017e+00  1.1968102859870835e+00  1.3105330626738461e+00  1.3700226939268310e+00  1.3602571139298110e+00  1.3806222908419528e+00  1.5985396208781111e+00  1.8192767428357823e+00  1.7405987698236183e+00  1.6368386481150987e+00  1.6415457753986473e+00  1.5456281032408037e+00  1.5675700711502589e+00  1.5782255086978376e+00  1.3595341436228658e+00  1.3143757919521608e+00  1.1002164419751377e+00  1.1211882893522378e+00  1.0831447346423300e+00  1.0639927280477166e+00  1.0559477245615443e+00  1.0447947807191913e+00  1.0407655788549139e+00  1.0430161657983112e+00  1.0476662765673759e+00  1.0398644399330639e+00  1.0401302568682764e+00  1.0390843645930532e+00  1.0359205295851881e+00  1.0320604779351523e+00  1.0295995794323525e+00  1.0280140066939967e+00  1.0269576737207842e+00  1.0255923412141355e+00  1.0215762720006407e+00  1.0194210172909945e+00  1.1251532148080592e+00  1.1357000354910991e+00  1.1728964067958838e+00  1.2101204331660527e+00  1.2400557804438912e+00  1.3273638297478083e+00  1.3175607269733167e+00  1.3336572181796054e+00  1.3872913601080086e+00  1.5318989199718269e+00  1.4790377675610384e+00  1.5525441509995084e+00  1.4818160533688309e+00  1.5670333337245252e+00  1.5539035569397861e+00  1.3599851980609063e+00  1.2230356767003174e+00  1.0992799944226095e+00  1.0773787025948793e+00  1.0861104904152674e+00  1.0539672750900084e+00  1.0439634181771940e+00  1.0503745287890880e+00  1.0580971128315362e+00  1.0581092396442529e+00  1.0428210731950860e+00  1.0463787020498960e+00  1.0346753927313632e+00  1.0346128034864115e+00  1.0294306054236488e+00  1.0263955446549677e+00  1.0241604701396947e+00  1.0233667695819728e+00  1.0209141144521545e+00  1.1137953254608475e+00  1.1106814132701810e+00  1.1320214576602936e+00  1.1599485567394736e+00  1.1938508225330848e+00  1.1913494716993136e+00  1.2280050663721285e+00  1.2866794569332618e+00  1.3141582542344812e+00  1.3421681091605169e+00  1.3671895557274607e+00  1.3358028850196069e+00  1.2785006056029984e+00  1.3010488574023078e+00  1.3689388193921392e+00  1.3243903310477290e+00  1.3213243708982869e+00  1.2258040416644345e+00  1.1932249695662112e+00  1.1030716022996723e+00  1.0811677977726704e+00  1.0762860019288176e+00  1.0574920941619192e+00  1.0589416778299905e+00  1.0525445160131748e+00  1.0436598756950093e+00  1.0390164059390008e+00  1.0316642665301339e+00  1.0314365480327525e+00  1.0295885666005398e+00  1.0220273007452416e+00  1.0195010044028854e+00  1.0233228032212396e+00  1.0231732715590900e+00  1.1050618377629569e+00  1.1291332936460607e+00  1.1452628672294165e+00  1.1329381989147589e+00  1.1117339820197967e+00  1.0798976284744428e+00  1.0707965260565229e+00  1.0767967410682495e+00  1.0740528084904173e+00  1.0746796594048069e+00  1.0734445771514203e+00  1.0588780772277129e+00  1.0546922812668660e+00  1.0434984180100633e+00  1.0365064159626001e+00  1.0296932772416336e+00  1.0295404225439222e+00  1.0351207332042134e+00  1.0254332732196418e+00  1.0187794850830938e+00  1.0164142599852184e+00  1.0159866712344416e+00  1.0191132062758141e+00  1.1678156911292059e+00  1.1872881143785821e+00  1.1726171284059124e+00  1.1885905676707984e+00  1.2051921070578548e+00  1.2178584129984815e+00  1.2502310857828800e+00  1.2673926032826410e+00  1.2790305567919471e+00  1.2626263681692096e+00  1.2249507081230873e+00  1.2057227245193094e+00  1.2351285829404022e+00  1.2897232556624656e+00  1.2724812384715871e+00  1.2273250270661191e+00  1.2186240474335608e+00  1.0353060224072828e+00  1.1547708225179225e+00  1.1023301068241596e+00  1.0642403320221197e+00  1.0620943752052896e+00  1.0658083830601746e+00  1.0648054637894950e+00  1.0630598644126055e+00  1.0623762538026542e+00  1.0678283004040983e+00  1.0674076064771099e+00  1.0574041926497022e+00  1.0459502785755201e+00  1.0334129645918779e+00  1.0239582606930333e+00  1.0236335109887771e+00  1.0236198961658258e+00  1.0272022967591334e+00  1.0233916521033490e+00  1.0238382496164102e+00  1.0186071408405251e+00  1.0158468416901418e+00  1.0142283472261897e+00  1.0149271563311597e+00  1.1840267464651586e+00  1.1582540927069913e+00  1.1288181453496491e+00  1.1606878057676306e+00  1.1818021511037138e+00  1.1833184944777384e+00  1.1978980000913966e+00  1.2198214146290880e+00  1.2650092322322091e+00  1.2809333679257786e+00  1.2381764686325629e+00  1.2081943036081899e+00  1.1987449564876844e+00  1.2183911049865608e+00  1.3307133696645765e+00  1.3082834749407897e+00  1.2791389399284778e+00  1.2619616827643745e+00  1.1401928835516144e+00  1.1202835456011986e+00  1.1379235892245405e+00  1.1275724151958038e+00  1.1044752646553893e+00  1.1226930148863181e+00  1.1571946767319821e+00  1