<?xml version="1.0"?>
<VTKFile type="UnstructuredGrid"  version="0.1"  >
<UnstructuredGrid>
<Piece  NumberOfPoints="1237" NumberOfCells="2335">
<Points>
<DataArray  type="Float64"  NumberOfComponents="3"  format="ascii">-1 3.09081664739187e-17 0  -0.9843750000000001 0.02706329386826373 0  -0.9586042096960951 -0.0236073080308172 0  -0.9687500000000001 -0.05412658773652738 0  -0.9687499999999999 0.05412658773652741 0  -0.9472957560052226 0.006184170637571083 0  -0.9267582714381279 -0.04141318421241193 0  -0.9316799261084423 -0.07502217834255943 0  -0.9375000000000001 -0.1082531754730548 0  -0.9304535526187879 0.02123269309792843 0  -0.9155919293475937 -0.02097532195701668 0  -0.8901898660228655 -0.05879793213392052 0  -0.8961407092258983 -0.08791682354371629 0  -0.9041593017321125 -0.1150769371767221 0  -0.9062500000000001 -0.1623797632095822 0  -0.9531250000000001 0.08118988160479108 0  -0.890147330991285 -0.0122086527191084 0  -0.8576709175674995 -0.04850009197978337 0  -0.8494979525438807 -0.09201284187231788 0  -0.8688087259335305 -0.1227339854926646 0  -0.8657397003544938 -0.1744307530448399 0  -0.875 -0.2165063509461097 0  -0.9191385500632976 0.05668682295204934 0  -0.9374999999999999 0.1082531754730548 0  -0.8414732086268925 -0.02979075402072296 0  -0.8838615846104741 0.03281364894932847 0  -0.9025993020289615 0.08399522279934024 0  -0.9218749999999999 0.1353164693413185 0  -0.8069091517126806 -0.1063797548106189 0  -0.8227041474082361 -0.1554136366367828 0  -0.8450362008579381 -0.1636153151676399 0  -0.824611073526637 -0.2087806554713395 0  -0.8432447828874938 -0.2299625171474235 0  -0.8437500000000001 -0.270632938682637 0  -0.8074688489602485 -0.04534311577063995 0  -0.7748599739446962 -0.09147609870793595 0  -0.7599743974004342 -0.1515693530204255 0  -0.7874243887323827 -0.1486997295560047 0  -0.7740096897566618 -0.1902442517032015 0  -0.7982566063220082 -0.2018609305277571 0  -0.7939958243211587 -0.243248178868526 0  -0.8033953092403587 -0.2739516347679044 0  -0.8125000000000002 -0.3247595264191645 0  -0.8481685757897792 0.03463580614500975 0  -0.8763526826359844 0.09829521691979071 0  -0.9062500000000001 0.1623797632095823 0  -0.7872217742390745 -0.03024195936296309 0  -0.7565548600439893 -0.06556774174670035 0  -0.7280367863186943 -0.1046281989307924 0  -0.7428557301118698 -0.1326576576268934 0  -0.7130575397441211 -0.2080743084118526 0  -0.7425045269468755 -0.2040970945489534 0  -0.7674851701419854 -0.2290293682917657 0  -0.7599986833552189 -0.2682349390602705 0  -0.7616526459078594 -0.3305135978123668 0  -0.7812500000000001 -0.378886114155692 0  -0.816253599818404 0.01031925268654644 0  -0.8190007077644565 0.05195524742955143 0  -0.8424384387483641 0.09512493014350837 0  -0.8689593925676488 0.1377994471097691 0  -0.890625 0.1894430570778459 0  -0.7410175419981699 -0.05005547045971393 0  -0.6820539222728559 -0.1168108160858607 0  -0.6757831681120814 -0.161343132024619 0  -0.7066615444436462 -0.1644905737066079 0  -0.6637898688950368 -0.220644916152676 0  -0.6744004859163939 -0.2587362859831477 0  -0.7325446303104611 -0.2447371505997974 0  -0.7216022609970536 -0.292027783035909 0  -0.7407903637588057 -0.3123505827564781 0  -0.7035881363438097 -0.356533874799312 0  -0.7288120197725808 -0.392133095104917 0  -0.75 -0.4330127018922193 0  -0.7897359628532806 0.006725954256448229 0  -0.7972623766874077 0.06341714755367762 0  -0.8304362309430872 0.1129567769931919 0  -0.8421684945059275 0.1611058176776091 0  -0.8750000000000001 0.2165063509461097 0  -0.7637447900489446 0.0084055150883772 0  -0.7027910536312951 -0.05387662733901926 0  -0.6399011514174923 -0.1176136647146791 0  -0.6199508075525719 -0.1685360793359413 0  -0.6333977552331249 -0.1967451137076092 0  -0.619216095826812 -0.2480485729726879 0  -0.6276040039072337 -0.2883488704175591 0  -0.6261231993592246 -0.3335289324385786 0  -0.6865068439078151 -0.2949080438254524 0  -0.6907604947283688 -0.3285687191624082 0  -0.6650087872471667 -0.3699552850214223 0  -0.6798435707998647 -0.4026405874050478 0  -0.7050830176678921 -0.447022367558788 0  -0.7187499999999999 -0.4871392896287467 0  -0.7723498686347566 0.07044317118097282 0  -0.8017262003913778 0.122128289958322 0  -0.8169126563784805 0.1693170073489986 0  -0.8593750000000001 0.2435696448143733 0  -0.7259809026153086 0.008482836968837627 0  -0.6740418109022589 -0.02450688559989462 0  -0.7223115334823216 0.04936346203485886 0  -0.7572899881178878 0.1097950588389946 0  -0.7734646598732114 0.1561617258837397 0  -0.8083562768108126 0.2049421991290764 0  -0.84375 0.270632938682637 0  -0.6660887510003569 -0.06759964205641175 0  -0.6171961871067949 -0.09908864551504318 0  -0.5833829368075305 -0.1731805645520128 0  -0.5851671105835449 -0.224515763015499 0  -0.5727138940289876 -0.2779087493001106 0  -0.5801058985757366 -0.3174797115370438 0  -0.57948544680462 -0.3632267691333948 0  -0.6267964734590343 -0.3775121834136309 0  -0.6398433230386719 -0.4169421315431633 0  -0.6616426493335408 -0.4488274832297308 0  -0.6803761222242836 -0.4915582867438201 0  -0.6875 -0.5412658773652741 0  -0.6566148164134606 -0.3360342982328451 0  -0.6542800869698886 0.003633874519227934 0  -0.6158214682809207 -0.05883418227773253 0  -0.5750967197363078 -0.0918766710651954 0  -0.5702619644256461 -0.1314570888217494 0  -0.5310796517017504 -0.1985334532999667 0  -0.5379237787887492 -0.2420866834293268 0  -0.5516118004787688 -0.2643356959406811 0  -0.5219299366261414 -0.3074188372821275 0  -0.5441569679299709 -0.3203940814531961 0  -0.544846265790987 -0.3611331944285065 0  -0.5114751055162018 -0.4066686830605467 0  -0.5298500409650213 -0.4384707797967484 0  -0.5794737256993363 -0.4086737180861368 0  -0.6054298025247353 -0.4197528954248557 0  -0.592710431245361 -0.4609848902618885 0  -0.6134133603589965 -0.4927681039827594 0  -0.6393590131426583 -0.5198261223711328 0  -0.6438736370520471 -0.5600300692022314 0  -0.65625 -0.5953924651018015 0  -0.6961199877549025 0.06467019448070167 0  -0.7322688722710476 0.1241970790870847 0  -0.7614677067674487 0.1843417562313635 0  -0.7982098286578407 0.241597904092872 0  -0.828125 0.2976962325509007 0  -0.6121569899603913 -0.02049935287448479 0  -0.5680093344887456 -0.06210558644879417 0  -0.5296938028141881 -0.1373067408269198 0  -0.4901525291003586 -0.1955789237044915 0  -0.4746183446720159 -0.2428634803524866 0  -0.4858590591960716 -0.2715088080329482 0  -0.4715952226353661 -0.3270718944547512 0  -0.4874270099800481 -0.3483793786947822 0  -0.480078652051836 -0.4044778124091272 0  -0.5107966792581313 -0.3607592194079098 0  -0.6351984073276686 0.03037645136060999 0  -0.6919512395101405 0.1148619971399276 0  -0.7371035741994222 0.1934824949257085 0  -0.7677243675294183 0.2452436239691324 0  -0.8125000000000001 0.3247595264191646 0  -0.5070956227453038 -0.2856926586873541 0  -0.4592753826052925 -0.4489578951960593 0  -0.4551538480224278 -0.4879280476876971 0  -0.4870834355975865 -0.4924138429753193 0  -0.5543645851211818 -0.4600201827899537 0  -0.5636063113133203 -0.5062314567180716 0  -0.5722394951023636 -0.540723915347752 0  -0.6004398475588687 -0.5639514773360513 0  -0.6165119354103209 -0.6003123312214718 0  -0.625 -0.6495190528383291 0  -0.5850968043587489 -0.01747042289921243 0  -0.5715475053296581 0.003755875240688324 0  -0.632542541699327 0.08118252107995054 0  -0.6715186710197373 0.1292199759178416 0  -0.6982974014086432 0.1789827939308964 0  -0.7309041627521532 0.2234419242184485 0  -0.760853516405614 0.2792464453234507 0  -0.7607023230601084 0.3093962646126385 0  -0.7968750000000001 0.3518228202874282 0  -0.5264933157473631 -0.08231084764042879 0  -0.493638060994832 -0.1339939179799725 0  -0.4589626054281711 -0.1957888821520802 0  -0.438352019728192 -0.2427967943470546 0  -0.4349603537871217 -0.2905998917905525 0  -0.4340727913783781 -0.3307406261902842 0  -0.3931940322566967 -0.3797355265396843 0  -0.4328932475453516 -0.4073381105917769 0  -0.415502513600294 -0.4580373266102869 0  -0.385415281901366 -0.511073437509846 0  -0.3881529845957117 -0.5477450464703199 0  -0.4322278898459536 -0.5328927439743946 0  -0.4708621541874918 -0.5447008496340244 0  -0.5212781730861482 -0.509033783025311 0  -0.5273194299998638 -0.5485603521097303 0  -0.5234826944144788 -0.5932528774620949 0  -0.5625853138775753 -0.5789028834579788 0  -0.5740199804033532 -0.6134996816985621 0  -0.5765847191201461 -0.6564593508420057 0  -0.59375 -0.7036456405748563 0  -0.5800862410227176 0.06953847272188511 0  -0.62345922728912 0.1087748024732029 0  -0.6592027535596012 0.1483415294528432 0  -0.7030117102084296 0.2220614128747072 0  -0.7211245865447338 0.2726260665754737 0  -0.7293612713284667 0.3214771290950779 0  -0.7890625000000001 0.3653544672215601 0  -0.5497332796675871 0.02526608106074905 0  -0.53018493643993 -0.01879708202667862 0  -0.5023738120312831 -0.06929095084794874 0  -0.4543086626793323 -0.1501783646722772 0  -0.4248556544311721 -0.2001778118037034 0  -0.3836034551939345 -0.2834399929263637 0  -0.3735195503155113 -0.3423773121212576 0  -0.3164083588907829 -0.4085503075097236 0  -0.3374441431234344 -0.4358308634994116 0  -0.3563643403403329 -0.4652367397589351 0  -0.3293009761387771 -0.5276556289563349 0  -0.3139040252508816 -0.5855140438576723 0  -0.366730554445017 -0.5948349816197472 0  -0.4217402740883738 -0.5900354366832488 0  -0.4753932323153703 -0.5864582514369745 0  -0.4778516850572023 -0.6318307895279576 0  -0.5087154203841168 -0.6499046400010015 0  -0.5448706663656597 -0.6492816546120687 0  -0.529090650986931 -0.6944022548983919 0  -0.5447409078977913 -0.7268187065901833 0  -0.5625000000000001 -0.7577722283113839 0  -0.5918572054463975 0.1338101643626165 0  -0.6347680448791199 0.1520640736039057 0  -0.6649299767989149 0.2164013530528183 0  -0.6741572651241856 0.2686102951723429 0  -0.6789476455262888 0.321375691006909 0  -0.7254508777365434 0.3530655186058727 0  -0.7812499999999999 0.3788861141556918 0  -0.5377716048704266 0.05272672813330151 0  -0.5104530844077947 -0.001526069099174808 0  -0.46319401157798
[...]
<PointData  Scalars="w"> 
<DataArray  type="Float64"  Name="w"  format="ascii">1.0145908123752683e+00  1.0135000387534148e+00  1.0145663944641417e+00  1.0151128685691344e+00  1.0120341345646000e+00  1.0143248081445722e+00  1.0169858853633169e+00  1.0163622995055224e+00  1.0167758174264567e+00  1.0161313401007086e+00  1.0206936024843019e+00  1.0250849564425737e+00  1.0214029600880630e+00  1.0198807144778212e+00  1.0230307562305048e+00  1.0124302463938557e+00  1.0318959680736477e+00  1.0402104846485798e+00  1.0378787593064616e+00  1.0270275235263511e+00  1.0275339548500491e+00  1.0269752652817712e+00  1.0165194888378066e+00  1.0153408787936560e+00  1.0439264298432129e+00  1.0299933516499005e+00  1.0201649626813836e+00  1.0222473368830249e+00  1.0465925310577975e+00  1.0381721532306623e+00  1.0334381828771593e+00  1.0321754585314704e+00  1.0314496899143961e+00  1.0414989174428333e+00  1.0446699079569364e+00  1.0465373370823299e+00  1.0443168935988356e+00  1.0424208323480835e+00  1.0415132705957024e+00  1.0391433451682857e+00  1.0443022116343748e+00  1.0551677109947353e+00  1.0963744038595507e+00  1.0419340184349588e+00  1.0294635828705541e+00  1.0331508463113650e+00  1.0483424774722339e+00  1.0537396700170192e+00  1.0586098929209249e+00  1.0495201102881084e+00  1.0617223501192130e+00  1.0490266079684742e+00  1.0457322012314154e+00  1.0597212029722474e+00  1.0987349152307611e+00  1.1293345723631718e+00  1.0446981683628291e+00  1.0434553058793017e+00  1.0377848364120215e+00  1.0391035871195118e+00  1.0452037077577152e+00  1.0645295754927084e+00  1.0860498697193999e+00  1.0844388613430849e+00  1.0652337660336364e+00  1.0885961388831353e+00  1.0982149431063315e+00  1.0594233277272787e+00  1.0641208626941452e+00  1.0807491936782458e+00  1.0950611364338345e+00  1.1350180166803552e+00  1.1370041016542711e+00  1.0539076473546922e+00  1.0540337489613714e+00  1.0461634045430395e+00  1.0551251295782993e+00  1.0514408203373355e+00  1.0681862406089568e+00  1.0857691095818696e+00  1.0957269298128656e+00  1.1111614955800111e+00  1.0996916287967295e+00  1.0856491193793572e+00  1.0877438600510219e+00  1.0804195237968781e+00  1.0713951557232544e+00  1.0683428165081259e+00  1.0799345267552991e+00  1.1217902383386158e+00  1.1441459371232989e+00  1.1403344118567686e+00  1.0759140946362000e+00  1.0694013563552105e+00  1.0707426600298335e+00  1.0489829605891186e+00  1.0954516816194837e+00  1.1053352237828822e+00  1.1171586005298204e+00  1.0922744626488365e+00  1.0907799476751401e+00  1.0697697478693495e+00  1.0434856230978817e+00  1.0942624385961255e+00  1.0932298539117440e+00  1.1045120361238072e+00  1.0817314522193668e+00  1.0711225743868134e+00  1.0844058183441920e+00  1.1048022405347306e+00  1.0793032324171110e+00  1.1017165207914426e+00  1.1386128651997189e+00  1.1556726316001100e+00  1.1600381146556975e+00  1.0668893697165123e+00  1.1230952603432240e+00  1.0982778920972471e+00  1.0962592739402488e+00  1.0922519848793832e+00  1.1009822540158773e+00  1.0755228766261724e+00  1.0682838596883588e+00  1.0672458914687297e+00  1.0701692056415453e+00  1.0896147539216479e+00  1.1416539609552903e+00  1.1699237365677497e+00  1.1200766110874987e+00  1.1023026168299583e+00  1.1186955357136865e+00  1.1414461393833162e+00  1.1587972387062528e+00  1.1442245824822763e+00  1.1341139944082346e+00  1.1269659099275238e+00  1.1027598145547597e+00  1.0946603544156892e+00  1.0537507139023170e+00  1.0359000470695627e+00  1.1055937709437174e+00  1.1022919634108934e+00  1.0964043086946209e+00  1.0934841314538035e+00  1.0936683472513786e+00  1.0818658562415122e+00  1.1239440837872468e+00  1.1019320229542668e+00  1.1767807527799776e+00  1.0857186567996877e+00  1.1235601441794432e+00  1.1217322850705373e+00  1.0794587382344272e+00  1.0506662905594584e+00  1.0389161101930575e+00  1.0717945632694581e+00  1.3004563018290325e+00  1.3427698752767172e+00  1.2726425270509669e+00  1.1417925789777206e+00  1.1452877752573878e+00  1.1482582856608103e+00  1.1545075306699322e+00  1.1427336958945435e+00  1.1529768683776569e+00  1.1119736744532405e+00  1.1066319671370330e+00  1.1334447510697430e+00  1.1125551363531887e+00  1.0814910180411657e+00  1.0647852625884415e+00  1.0523537423809788e+00  1.0516094696631328e+00  1.0460630377295885e+00  1.1026121133981663e+00  1.0928281168108649e+00  1.0917844293969210e+00  1.1085396080404215e+00  1.1442215785577938e+00  1.1877780005911340e+00  1.2949590155053612e+00  1.2621858476437013e+00  1.3249137452372128e+00  1.3639125024735763e+00  1.3623556546354929e+00  1.3259575644188384e+00  1.2549607320939822e+00  1.1848146727127735e+00  1.1665340653453311e+00  1.1832959423587162e+00  1.1614395530689396e+00  1.1892990062080779e+00  1.1782631586556349e+00  1.1985848744016603e+00  1.0935413793564472e+00  1.1105384278180148e+00  1.0980442434241315e+00  1.0762238305389789e+00  1.0671715882863995e+00  1.0611963838666021e+00  1.0504605188551663e+00  1.0875299904361777e+00  1.0968726156902109e+00  1.1178311215177410e+00  1.0966610466580928e+00  1.1016950356044222e+00  1.1664115213140602e+00  1.2381936607778956e+00  1.2477536685354116e+00  1.2250867030952006e+00  1.2398367208699277e+00  1.3071180881792457e+00  1.3753397071502882e+00  1.3501738342920371e+00  1.3027175377068314e+00  1.2353474404705238e+00  1.2675046084884471e+00  1.2610267855127562e+00  1.2289608659684514e+00  1.2506043367105351e+00  1.2362598995532801e+00  1.2524791487963842e+00  1.0957155902928954e+00  1.1096334185022600e+00  1.1099201678046038e+00  1.0928139703708286e+00  1.0844416560637484e+00  1.0692320600766507e+00  1.0548742487658658e+00  1.0824657192966296e+00  1.0992639826808737e+00  1.1525488410924951e+00  1.1175281223692275e+00  1.1221873818892893e+00  1.1755523955274225e+00  1.1745573517207426e+00  1.2068146808386626e+00  1.2272456085050851e+00  1.2572156774397789e+00  1.2638877732581015e+00  1.2570450376858899e+00  1.4930421380931866e+00  1.4650677537090091e+00  1.3815218369540896e+00  1.4410680826480806e+00  1.5355123175891894e+00  1.3392940711752144e+00  1.3489572427230847e+00  1.3142798591629568e+00  1.2903511593773411e+00  1.3307446060037382e+00  1.4139674039408299e+00  1.1075514491144705e+00  1.1239769741642094e+00  1.1250223557903274e+00  1.0898480718408674e+00  1.0806106339603889e+00  1.0641425295352245e+00  1.1034906286752044e+00  1.0913721736933055e+00  1.0912319091738074e+00  1.1075774482802765e+00  1.1884549106045978e+00  1.1873453666218243e+00  1.1257545337954462e+00  1.1326650239722194e+00  1.1989500071249057e+00  1.2016382458504684e+00  1.1923551028598018e+00  1.2079173120047471e+00  1.2445152532132526e+00  1.2507245594482912e+00  1.3510076777734628e+00  1.4166659449361922e+00  1.4843266028960322e+00  1.4238086598907556e+00  1.4079670024295381e+00  1.4646416129560522e+00  1.4138841584541422e+00  1.4013971599519324e+00  1.5648251212302076e+00  1.4858018014238004e+00  1.3846917722978425e+00  1.3392149243083495e+00  1.3512613717980972e+00  1.4674972194096350e+00  1.5280470854464876e+00  1.1115133955745640e+00  1.1304831390719667e+00  1.1691411067985527e+00  1.1528634675337752e+00  1.1045110873286661e+00  1.1055114267598947e+00  1.1501658510865793e+00  1.1664645400885587e+00  1.1774311127319281e+00  1.1426958077138394e+00  1.1594516143703857e+00  1.1023821542433914e+00  1.0706863220298521e+00  1.0735603364627806e+00  1.0682280966533593e+00  1.2184254308129610e+00  1.3443476346981909e+00  1.2375057816446224e+00  1.2414925137776887e+00  1.3804416164226803e+00  1.4816754844217435e+00  1.3763082601689172e+00  1.4074930395649492e+00  1.5055381842278672e+00  1.4880850810137380e+00  1.3938053763828162e+00  1.4284082442214974e+00  1.3640719356813258e+00  1.3739759533742333e+00  1.4682743618755103e+00  1.4417516902115954e+00  1.5172656994121376e+00  1.4053718769544077e+00  1.3652868939401048e+00  1.4040592698488130e+00  1.4643430500560253e+00  1.1734583260296134e+00  1.1261497454562748e+00  1.1002864296818611e+00  1.0733581140305672e+00  1.0643993415772053e+00  1.0592894398125223e+00  1.0582609568415455e+00  1.0525461676968306e+00  1.1492374086588684e+00  1.1049743798665814e+00  1.1271207310607401e+00  1.1469448684772690e+00  1.1605300641859202e+00  1.3895712695561859e+00  1.4277848094357923e+00  1.2998118834776280e+00  1.3266986410839767e+00  1.3881585976838962e+00  1.4272050650391765e+00  1.4206701685233871e+00  1.4213225107762217e+00  1.5755354248060840e+00  1.7179450942487398e+00  1.8296718793704658e+00  1.5418014842557017e+00  1.4416935744744652e+00  1.4487044234891613e+00  1.4528590121472331e+00  1.4554226840423135e+00  1.3832826226702297e+00  1.4973334808881515e+00  1.5658927093595323e+00  1.5650842805038963e+00  1.4754443449510422e+00  1.4488552803495214e+00  1.4168632894920288e+00  1.1323347246074413e+00  1.1314478593636732e+00  1.1006172331187594e+00  1.1272457174626154e+00  1.1562843768105999e+00  1.1799655197526073e+00  1.2336630448001407e+00  1.2374587990125003e+00  1.2961580912215165e+00  1.3438954699301346e+00  1.3349533245203486e+00  1.4921658747817677e+00  1.4465819391843091e+00  1.5388866314802896e+00  1.4540776696585933e+00  1.6001761839883151e+00  1.4281822162499431e+00  1.0992984422438190e+00  1.0806407828313720e+00  1.0815599687998159e+00  1.0694532044016867e+00  1.0658555514879864e+00  1.0489182652108229e+00  1.0425238051065557e+00  1.9547653743715394e+00  2.1112542126523395e+00  1.6468400645541064e+00  1.4737163484598328e+00  1.4190977341708169e+00  1.4953877627960428e+00  1.5205296003201763e+00  1.1239327866728839e+00  1.1357471672046324e+00  1.0999609316511194e+00  1.0788712332878152e+00  1.0718486421162292e+00  1.0728123327870023e+00  1.0697746831714252e+00  1.0618796299100486e+00  1.0507356238394137e+00  1.0411578658558884e+00  1.1205525069799875e+00  1.1670307463171412e+00  1.2003816680493471e+00  1.1791809438496792e+00  1.2534838522400578e+00  1.3187035953607669e+00  1.3683972947168386e+00  1.4241030675401460e+00  1.4347332568499223e+00  1.6019093165803238e+00  1.5665662107618938e+00  1.4970930151155748e+00  1.5109906276819578e+00  1.9066868647847610e+00  1.8771131320358285e+00  1.6349827004103326e+00  1.1576115401872167e+00  1.1386030217994896e+00  1.1425215062535938e+00  1.1323668381862173e+00  1.0890357667486088e+00  1.0774754781859204e+00  1.0660811068224016e+00  1.0633537396165491e+00  1.0494359799574073e+00  1.0451995111883079e+00  1.0484917243252290e+00  1.0479636553385003e+00  1.2157368750456850e+00  1.1890959650793305e+00  1.1482456057889563e+00  1.2201179009882623e+00  1.2751815391883590e+00  1.4259978197649266e+00  1.4552567084157266e+00  1.6658527461393682e+00  1.6318474136241468e+00  1.4720678288730380e+00  1.5062802401597171e+00  1.5830017032977821e+00  1.5716439625254783e+00  1.1698195464085768e+00  1.2383498826573702e+00  1.1446730746613634e+00  1.1462155659510318e+00  1.2111643166498738e+00  1.2973566438778634e+00  1.4092896786211311e+00  1.5570477049166154e+00  1.4806767568812331e+00  1.5482650528946476e+00  1.6900631113436786e+00  1.5834332558109381e+00  1.5164420051765053e+00  1.5424049361733903e+00  1.1633626469405798e+00  1.1534699677636320e+00  1.1602703323674282e+00  1.1201516784956249e+00  1.0926716984404452e+00  1.0716007182801115e+00  1.0586856869608561e+00  1.0501835933483137e+00  1.0397922813988811e+00  1.0398199875045742e+00  1.0400486701850444e+00  1.0498148743877949e+00  1.0646205628297223e+00  1.2222956943529133e+00  1.1851151268734157e+00  1.1737684801358612e+00  1.2130114003114685e+00  1.2440688704244021e+00  1.5476311718300904e+00  1.7060816216895534e+00  1.5714077494746586e+00  1.7295668844660448e+00  1.8915144851287027e+00  1.7494542928544818e+00  1.1547518339429066e+00  1.1725295522205130e+00  1.1671758647519868e+00  1.1527735165118920e+00  1.1173462086404065e+00  1.0963604194381409e+00  1.0728178811046238e+00  1.0540019577430351e+00  1.0476731259655785e+00  1.0447485460593227e+00  1.0418700408386576e+00  1.0408490951576144e+00  1.0486539740860499e+00  1.0380161350157240e+00  1.2083595504415585e+00  1.1581242097614932e+00  1.1390574365571795e+00  1.1552517586417010e+00  1.1831112367800640e+00  1.1670004111958734e+00  1.1056004269969331e+00  1.0619775893244345e+00  1.0495557017577406e+00  1.0439058642162231e+00  1.0435329072235695e+00  1.0477410834735055e+00  1.0462294868504176e+00  1.0449917997800151e+00  1.0461335653377808e+00  1.2638674892261947e+00  1.2941609198662734e+00  1.2679927145626873e+00  1.4931050086055677e+00  1.6239197715254965e+00  1.6938564337595843e+00  2.1937267971407786e+00  2.2055159990512738e+00  1.8622172017179246e+00  1.1832367341699130e+00  1.1736306998395862e+00  1.1398390984571942e+00  1.1753533190522816e+00  1.2254839336914025e+00  1.1752558629128087e+00  1.1594948286924089e+00  1.1195017028951435e+00  1.0694833871702574e+00  1.0622549703234159e+00  1.0519533284558644e+00  1.0459896242400284e+00  1.0382950760387628e+00  1.0375839968590592e+00  1.0398887928558462e+00  1.0433927255968654e+00  1.0349337687138693e+00  1.0365386125349665e+00  1.0419970162287631e+00  1.2701093261563612e+00  1.2712926185418871e+00  1.3096281518562911e+00  1.3277798677383175e+00  1.4005591088647134e+00  1.5595284636432549e+00  2.4630701576835325e+00  3.1187770008502680e+00  2.8895915167345261e+00  1.1383217276196906e+00  1.1676907863486055e+00  1.1363063849337096e+00  1.1624428832600537e+00  1.1495946870461440e+00  1.1107730244470342e+00  1.0782569619197933e+00  1.0651315438185212e+00  1.0582545552883502e+00  1.0597568742464516e+00  1.0427436820961096e+00  1.0371004785734068e+00  1.0352893287075300e+00  1.0381927751092113e+00  1.0403748422557035e+00  1.0319500090125413e+00  1.0264655491181998e+00  1.1957252395910010e+00  1.1983232911227555e+00  1.2547162325431995e+00  1.3806900064132859e+00  1.3557992917784323e+00  1.4603061412665532e+00  2.3147744546261979e+00  2.9755178919644951e+00  2.1645388361052262e+00  1.9820785962699892e+00  1.1532232920895380e+00  1.1589540964016509e+00  1.1895993941840715e+00  1.1988937549665482e+00  1.2538849578978624e+00  1.4624976520760242e+00  1.5351862988681539e+00  1.9778818052211011e+00  2.1672189478808939e+00  1.8840852703713180e+00  1.4941967385828114e+00  1.5174283415882706e+00  1.1714751433852946e+00  1.1250559598171956e+00  1.1137622359561214e+00  1.1151816932804710e+00  1.0885328985899685e+00  1.0672613212084141e+00  1.0734734108991069e+00  1.0554242192709176e+00  1.0504614212179626e+00  1.0617500954441530e+00  1.0525050537649963e+00  1.0478701532956920e+00  1.0434240143737632e+00  1.0314411170548101e+00  1.0324976460112592e+00  1.0289778740409345e+00  1.0249609731029925e+00  1.0233917831682038e+00  1.0430354183002775e+00  1.1608370298889843e+00  1.2061650712102467e+00  1.1578728969741827e+00  1.1015045307771101e+00  1.0921932987168883e+00  1.0718424021596158e+00  1.0519547216952667e+00  1.0503186901822970e+00  1.0438392009766855e+00  1.0423278617228757e+00  1.0470305364607995e+00  1.0450912897858140e+00  1.0471200970854551e+00  1.0378719706904318e+00  1.0347801002792698e+00  1.0302085951157205e+00  1.0287788891276013e+00  1.0279821629665991e+00  1.0216217931464939e+00  1.0208684891625774e+00  1.2172475943871051e+00  1.2241252437439327e+00  1.3341920382963708e+00  1.2790888872853439e+00  1.3937497364082116e+00  1.4955666699364083e+00  1.5459755816757994e+00  1.7593106741732560e+00  1.7610231227066948e+00  1.6515340406346319e+00  1.4638791497472725e+00  1.3634591103786227e+00  1.3155137076804986e+00  1.1575303587572909e+00  1.1520926977001129e+00  1.1965459388447872e+00  1.3118302447027419e+00  1.3690024990624627e+00  1.3566978340675184e+00  1.3752223628264328e+00  1.5849133014795127e+00  1.7913232317650039e+00  1.7149636670714552e+00  1.6088368586985557e+00  1.6053180034499461e+00  1.5047426499891208e+00  1.5250944306347887e+00  1.5316241116405167e+00  1.3227541566528882e+00  1.2799682167169015e+00  1.1024400276392572e+00  1.1235489927460531e+00  1.0853537958133264e+00  1.0658787450074119e+00  1.0578535982420323e+00  1.0467867152074688e+00  1.0428532610543031e+00  1.0454651418103518e+00  1.0504260848926659e+00  1.0419722755760590e+00  1.0422662961085991e+00  1.0412548875304888e+00  1.0378906321691961e+00  1.0335798826381690e+00  1.0309918023497342e+00  1.0292832014705193e+00  1.0281467870350829e+00  1.0268511061811332e+00  1.0226237315217130e+00  1.0203741636210939e+00  1.1271886946949734e+00  1.1370210125625446e+00  1.1740503378332798e+00  1.2130537043757048e+00  1.2414168361458844e+00  1.3264908273149545e+00  1.3160076787778796e+00  1.3301445175747038e+00  1.3801532735961834e+00  1.5210874368709855e+00  1.4619595982850127e+00  1.5250059091630730e+00  1.4554703568696432e+00  1.5291353495582918e+00  1.5124381950725745e+00  1.3250061406205986e+00  1.2021220392694947e+00  1.1020242001422875e+00  1.0795047588171260e+00  1.0891867735712131e+00  1.0564599995900108e+00  1.0463597884337568e+00  1.0535857551142982e+00  1.0617420961574182e+00  1.0616636006931826e+00  1.0452374904594859e+00  1.0492660476130051e+00  1.0365847833149975e+00  1.0363635755813132e+00  1.0307319889355855e+00  1.0274272712359576e+00  1.0251538434934058e+00  1.0244119523447257e+00  1.0218422987653668e+00  1.1160528594962718e+00  1.1133629046374069e+00  1.1348075728399789e+00  1.1636376004563818e+00  1.1987242726615253e+00  1.1943620776237087e+00  1.2291413156942796e+00  1.2870642059037321e+00  1.3121007518177414e+00  1.3365896552887229e+00  1.3546235087271628e+00  1.3210858129019822e+00  1.2646778404313559e+00  1.2845375988564693e+00  1.3475957555968625e+00  1.3018430604185960e+00  1.2941528395659210e+00  1.2077778896357392e+00  1.1782669813284850e+00  1.1067824223391576e+00  1.0855483602025133e+00  1.0805431832464727e+00  1.0609132127379457e+00  1.0626231327626838e+00  1.0554544269025630e+00  1.0459181899785972e+00  1.0412627656009348e+00  1.0333295962027034e+00  1.0329320454169211e+00  1.0307919155487342e+00  1.0228141869447749e+00  1.0201790361868737e+00  1.0242256579771936e+00  1.0241556651378954e+00  1.1090407155700197e+00  1.1327457716011273e+00  1.1496784280446726e+00  1.1370007521249832e+00  1.1166141498681637e+00  1.0838564296782343e+00  1.0742277067757868e+00  1.0811857263947240e+00  1.0784160280494375e+00  1.0789507560799225e+00  1.0777092951766138e+00  1.0623125373988400e+00  1.0579016899168494e+00  1.0456795496645197e+00  1.0380268767691743e+00  1.0310722265785683e+00  1.0309426749935657e+00  1.0367256245470817e+00  1.0264420690938012e+00  1.0193960782766962e+00  1.0169328513831586e+00  1.0164847683257190e+00  1.0197615996003220e+00  1.1742974684727021e+00  1.1933900414619849e+00  1.1769912507275921e+00  1.1914268963312233e+00  1.2085242833157110e+00  1.2202291831502052e+00  1.2493127012220779e+00  1.2629039373869961e+00  1.2701758831418919e+00  1.2520213992350915e+00  1.2145305557429991e+00  1.1967541652359113e+00  1.2244069318440689e+00  1.2738058420261333e+00  1.2542104277331554e+00  1.2112782062122107e+00  1.2053114286638549e+00  1.0370718842393889e+00  1.1618637580590387e+00  1.1080219156694535e+00  1.0677469334013903e+00  1.0658888167899156e+00  1.0699643760198767e+00  1.0689452328900937e+00  1.0669413918015049e+00  1.0666195927228352e+00  1.0722426389178914e+00  1.0716204576937738e+00  1.0612693956620729e+00  1.0485699322617721e+00  1.0350614786246486e+00  1.0250648421343103e+00  1.0246557805982650e+00  1.0247022479092471e+00  1.0283378554858160e+00  1.0242281992510753e+00  1.0245847594357025e+00  1.0191694057825307e+00  1.0163216040611325e+00  1.0146360778276873e+00  1.0153646722842893e+00  1.1940548610119022e+00  1.1654779940850335e+00  1.1333589114345350e+00  1.1647404935075101e+00  1.1857854297806505e+00  1.1858731875693327e+00  1.1984916304377966e+00  1.2182886594657063e+00  1.2598014194958143e+00  1.2769078446077797e+00  1.2295179334464501e+00  1.2002818213446562e+00  1.1907277081957828e+00  1.2088308962874907e+00  1.3113796074076707e+00  1.2890642094045646e+00  1.2642730165046541e+00  1.2476258069136708e+00  1.1482183009931570e+00  1.1273422581956891e+00  1.1449217127882243e+00  1.1338237712553234e+00  1.1089939060623424e+00  1.1266177165711935e+00  1.1612380989265796e+00  1