<?xml version="1.0"?>
<VTKFile type="UnstructuredGrid"  version="0.1"  >
<UnstructuredGrid>
<Piece  NumberOfPoints="1237" NumberOfCells="2335">
<Points>
<DataArray  type="Float64"  NumberOfComponents="3"  format="ascii">-1 3.09081664739187e-17 0  -0.9843750000000001 0.02706329386826373 0  -0.9586042096960951 -0.0236073080308172 0  -0.9687500000000001 -0.05412658773652738 0  -0.9687499999999999 0.05412658773652741 0  -0.9472957560052226 0.006184170637571083 0  -0.9267582714381279 -0.04141318421241193 0  -0.9316799261084423 -0.07502217834255943 0  -0.9375000000000001 -0.1082531754730548 0  -0.9304535526187879 0.02123269309792843 0  -0.9155919293475937 -0.02097532195701668 0  -0.8901898660228655 -0.05879793213392052 0  -0.8961407092258983 -0.08791682354371629 0  -0.9041593017321125 -0.1150769371767221 0  -0.9062500000000001 -0.1623797632095822 0  -0.9531250000000001 0.08118988160479108 0  -0.890147330991285 -0.0122086527191084 0  -0.8576709175674995 -0.04850009197978337 0  -0.8494979525438807 -0.09201284187231788 0  -0.8688087259335305 -0.1227339854926646 0  -0.8657397003544938 -0.1744307530448399 0  -0.875 -0.2165063509461097 0  -0.9191385500632976 0.05668682295204934 0  -0.9374999999999999 0.1082531754730548 0  -0.8414732086268925 -0.02979075402072296 0  -0.8838615846104741 0.03281364894932847 0  -0.9025993020289615 0.08399522279934024 0  -0.9218749999999999 0.1353164693413185 0  -0.8069091517126806 -0.1063797548106189 0  -0.8227041474082361 -0.1554136366367828 0  -0.8450362008579381 -0.1636153151676399 0  -0.824611073526637 -0.2087806554713395 0  -0.8432447828874938 -0.2299625171474235 0  -0.8437500000000001 -0.270632938682637 0  -0.8074688489602485 -0.04534311577063995 0  -0.7748599739446962 -0.09147609870793595 0  -0.7599743974004342 -0.1515693530204255 0  -0.7874243887323827 -0.1486997295560047 0  -0.7740096897566618 -0.1902442517032015 0  -0.7982566063220082 -0.2018609305277571 0  -0.7939958243211587 -0.243248178868526 0  -0.8033953092403587 -0.2739516347679044 0  -0.8125000000000002 -0.3247595264191645 0  -0.8481685757897792 0.03463580614500975 0  -0.8763526826359844 0.09829521691979071 0  -0.9062500000000001 0.1623797632095823 0  -0.7872217742390745 -0.03024195936296309 0  -0.7565548600439893 -0.06556774174670035 0  -0.7280367863186943 -0.1046281989307924 0  -0.7428557301118698 -0.1326576576268934 0  -0.7130575397441211 -0.2080743084118526 0  -0.7425045269468755 -0.2040970945489534 0  -0.7674851701419854 -0.2290293682917657 0  -0.7599986833552189 -0.2682349390602705 0  -0.7616526459078594 -0.3305135978123668 0  -0.7812500000000001 -0.378886114155692 0  -0.816253599818404 0.01031925268654644 0  -0.8190007077644565 0.05195524742955143 0  -0.8424384387483641 0.09512493014350837 0  -0.8689593925676488 0.1377994471097691 0  -0.890625 0.1894430570778459 0  -0.7410175419981699 -0.05005547045971393 0  -0.6820539222728559 -0.1168108160858607 0  -0.6757831681120814 -0.161343132024619 0  -0.7066615444436462 -0.1644905737066079 0  -0.6637898688950368 -0.220644916152676 0  -0.6744004859163939 -0.2587362859831477 0  -0.7325446303104611 -0.2447371505997974 0  -0.7216022609970536 -0.292027783035909 0  -0.7407903637588057 -0.3123505827564781 0  -0.7035881363438097 -0.356533874799312 0  -0.7288120197725808 -0.392133095104917 0  -0.75 -0.4330127018922193 0  -0.7897359628532806 0.006725954256448229 0  -0.7972623766874077 0.06341714755367762 0  -0.8304362309430872 0.1129567769931919 0  -0.8421684945059275 0.1611058176776091 0  -0.8750000000000001 0.2165063509461097 0  -0.7637447900489446 0.0084055150883772 0  -0.7027910536312951 -0.05387662733901926 0  -0.6399011514174923 -0.1176136647146791 0  -0.6199508075525719 -0.1685360793359413 0  -0.6333977552331249 -0.1967451137076092 0  -0.619216095826812 -0.2480485729726879 0  -0.6276040039072337 -0.2883488704175591 0  -0.6261231993592246 -0.3335289324385786 0  -0.6865068439078151 -0.2949080438254524 0  -0.6907604947283688 -0.3285687191624082 0  -0.6650087872471667 -0.3699552850214223 0  -0.6798435707998647 -0.4026405874050478 0  -0.7050830176678921 -0.447022367558788 0  -0.7187499999999999 -0.4871392896287467 0  -0.7723498686347566 0.07044317118097282 0  -0.8017262003913778 0.122128289958322 0  -0.8169126563784805 0.1693170073489986 0  -0.8593750000000001 0.2435696448143733 0  -0.7259809026153086 0.008482836968837627 0  -0.6740418109022589 -0.02450688559989462 0  -0.7223115334823216 0.04936346203485886 0  -0.7572899881178878 0.1097950588389946 0  -0.7734646598732114 0.1561617258837397 0  -0.8083562768108126 0.2049421991290764 0  -0.84375 0.270632938682637 0  -0.6660887510003569 -0.06759964205641175 0  -0.6171961871067949 -0.09908864551504318 0  -0.5833829368075305 -0.1731805645520128 0  -0.5851671105835449 -0.224515763015499 0  -0.5727138940289876 -0.2779087493001106 0  -0.5801058985757366 -0.3174797115370438 0  -0.57948544680462 -0.3632267691333948 0  -0.6267964734590343 -0.3775121834136309 0  -0.6398433230386719 -0.4169421315431633 0  -0.6616426493335408 -0.4488274832297308 0  -0.6803761222242836 -0.4915582867438201 0  -0.6875 -0.5412658773652741 0  -0.6566148164134606 -0.3360342982328451 0  -0.6542800869698886 0.003633874519227934 0  -0.6158214682809207 -0.05883418227773253 0  -0.5750967197363078 -0.0918766710651954 0  -0.5702619644256461 -0.1314570888217494 0  -0.5310796517017504 -0.1985334532999667 0  -0.5379237787887492 -0.2420866834293268 0  -0.5516118004787688 -0.2643356959406811 0  -0.5219299366261414 -0.3074188372821275 0  -0.5441569679299709 -0.3203940814531961 0  -0.544846265790987 -0.3611331944285065 0  -0.5114751055162018 -0.4066686830605467 0  -0.5298500409650213 -0.4384707797967484 0  -0.5794737256993363 -0.4086737180861368 0  -0.6054298025247353 -0.4197528954248557 0  -0.592710431245361 -0.4609848902618885 0  -0.6134133603589965 -0.4927681039827594 0  -0.6393590131426583 -0.5198261223711328 0  -0.6438736370520471 -0.5600300692022314 0  -0.65625 -0.5953924651018015 0  -0.6961199877549025 0.06467019448070167 0  -0.7322688722710476 0.1241970790870847 0  -0.7614677067674487 0.1843417562313635 0  -0.7982098286578407 0.241597904092872 0  -0.828125 0.2976962325509007 0  -0.6121569899603913 -0.02049935287448479 0  -0.5680093344887456 -0.06210558644879417 0  -0.5296938028141881 -0.1373067408269198 0  -0.4901525291003586 -0.1955789237044915 0  -0.4746183446720159 -0.2428634803524866 0  -0.4858590591960716 -0.2715088080329482 0  -0.4715952226353661 -0.3270718944547512 0  -0.4874270099800481 -0.3483793786947822 0  -0.480078652051836 -0.4044778124091272 0  -0.5107966792581313 -0.3607592194079098 0  -0.6351984073276686 0.03037645136060999 0  -0.6919512395101405 0.1148619971399276 0  -0.7371035741994222 0.1934824949257085 0  -0.7677243675294183 0.2452436239691324 0  -0.8125000000000001 0.3247595264191646 0  -0.5070956227453038 -0.2856926586873541 0  -0.4592753826052925 -0.4489578951960593 0  -0.4551538480224278 -0.4879280476876971 0  -0.4870834355975865 -0.4924138429753193 0  -0.5543645851211818 -0.4600201827899537 0  -0.5636063113133203 -0.5062314567180716 0  -0.5722394951023636 -0.540723915347752 0  -0.6004398475588687 -0.5639514773360513 0  -0.6165119354103209 -0.6003123312214718 0  -0.625 -0.6495190528383291 0  -0.5850968043587489 -0.01747042289921243 0  -0.5715475053296581 0.003755875240688324 0  -0.632542541699327 0.08118252107995054 0  -0.6715186710197373 0.1292199759178416 0  -0.6982974014086432 0.1789827939308964 0  -0.7309041627521532 0.2234419242184485 0  -0.760853516405614 0.2792464453234507 0  -0.7607023230601084 0.3093962646126385 0  -0.7968750000000001 0.3518228202874282 0  -0.5264933157473631 -0.08231084764042879 0  -0.493638060994832 -0.1339939179799725 0  -0.4589626054281711 -0.1957888821520802 0  -0.438352019728192 -0.2427967943470546 0  -0.4349603537871217 -0.2905998917905525 0  -0.4340727913783781 -0.3307406261902842 0  -0.3931940322566967 -0.3797355265396843 0  -0.4328932475453516 -0.4073381105917769 0  -0.415502513600294 -0.4580373266102869 0  -0.385415281901366 -0.511073437509846 0  -0.3881529845957117 -0.5477450464703199 0  -0.4322278898459536 -0.5328927439743946 0  -0.4708621541874918 -0.5447008496340244 0  -0.5212781730861482 -0.509033783025311 0  -0.5273194299998638 -0.5485603521097303 0  -0.5234826944144788 -0.5932528774620949 0  -0.5625853138775753 -0.5789028834579788 0  -0.5740199804033532 -0.6134996816985621 0  -0.5765847191201461 -0.6564593508420057 0  -0.59375 -0.7036456405748563 0  -0.5800862410227176 0.06953847272188511 0  -0.62345922728912 0.1087748024732029 0  -0.6592027535596012 0.1483415294528432 0  -0.7030117102084296 0.2220614128747072 0  -0.7211245865447338 0.2726260665754737 0  -0.7293612713284667 0.3214771290950779 0  -0.7890625000000001 0.3653544672215601 0  -0.5497332796675871 0.02526608106074905 0  -0.53018493643993 -0.01879708202667862 0  -0.5023738120312831 -0.06929095084794874 0  -0.4543086626793323 -0.1501783646722772 0  -0.4248556544311721 -0.2001778118037034 0  -0.3836034551939345 -0.2834399929263637 0  -0.3735195503155113 -0.3423773121212576 0  -0.3164083588907829 -0.4085503075097236 0  -0.3374441431234344 -0.4358308634994116 0  -0.3563643403403329 -0.4652367397589351 0  -0.3293009761387771 -0.5276556289563349 0  -0.3139040252508816 -0.5855140438576723 0  -0.366730554445017 -0.5948349816197472 0  -0.4217402740883738 -0.5900354366832488 0  -0.4753932323153703 -0.5864582514369745 0  -0.4778516850572023 -0.6318307895279576 0  -0.5087154203841168 -0.6499046400010015 0  -0.5448706663656597 -0.6492816546120687 0  -0.529090650986931 -0.6944022548983919 0  -0.5447409078977913 -0.7268187065901833 0  -0.5625000000000001 -0.7577722283113839 0  -0.5918572054463975 0.1338101643626165 0  -0.6347680448791199 0.1520640736039057 0  -0.6649299767989149 0.2164013530528183 0  -0.6741572651241856 0.2686102951723429 0  -0.6789476455262888 0.321375691006909 0  -0.7254508777365434 0.3530655186058727 0  -0.7812499999999999 0.3788861141556918 0  -0.5377716048704266 0.05272672813330151 0  -0.5104530844077947 -0.001526069099174808 0  -0.46319401157798
[...]
<PointData  Scalars="w"> 
<DataArray  type="Float64"  Name="w"  format="ascii">1.0145896027507844e+00  1.0134986924225922e+00  1.0145649011906990e+00  1.0151114526380549e+00  1.0120325607462577e+00  1.0143229760557873e+00  1.0169836663086462e+00  1.0163604553363759e+00  1.0167739940645861e+00  1.0161288912890056e+00  1.0206904566337254e+00  1.0250814085059425e+00  1.0214002740092816e+00  1.0198784952035325e+00  1.0230284015949218e+00  1.0124282299526539e+00  1.0318904763651362e+00  1.0402038977857169e+00  1.0378739790928730e+00  1.0270242232517088e+00  1.0275308768554183e+00  1.0269727421857731e+00  1.0165165046197093e+00  1.0153376159070195e+00  1.0439179176227271e+00  1.0299870360493797e+00  1.0201602702665851e+00  1.0222413107544326e+00  1.0465866390751779e+00  1.0381666970981016e+00  1.0334335506464758e+00  1.0321718071153168e+00  1.0314466274762257e+00  1.0414946568394330e+00  1.0446600829502644e+00  1.0465286655678361e+00  1.0443108587925434e+00  1.0424151782382389e+00  1.0415088073064034e+00  1.0391383392684417e+00  1.0442978218459813e+00  1.0551619293019316e+00  1.0963612405612293e+00  1.0419228041973914e+00  1.0294547827909171e+00  1.0331405264492568e+00  1.0483287764891676e+00  1.0537259265026544e+00  1.0585967429471741e+00  1.0495115389367740e+00  1.0617140286536728e+00  1.0490214856379705e+00  1.0457283800028885e+00  1.0597156433896160e+00  1.0987215772922776e+00  1.1293214959669275e+00  1.0446847850784564e+00  1.0434399626054454e+00  1.0377707834551675e+00  1.0390906041491654e+00  1.0451878017578462e+00  1.0645110138837943e+00  1.0860304537185705e+00  1.0844229441666453e+00  1.0652225426609128e+00  1.0885846190953241e+00  1.0982014796870099e+00  1.0594181111071634e+00  1.0641141673652921e+00  1.0807386241004078e+00  1.0950531502771732e+00  1.1350127733500612e+00  1.1370000149618928e+00  1.0538882945496455e+00  1.0540123589376278e+00  1.0461440394370276e+00  1.0551016650500231e+00  1.0514185269266800e+00  1.0681623347475693e+00  1.0857493262557010e+00  1.0957026351171404e+00  1.1111378910120262e+00  1.0996739562966729e+00  1.0856414839493573e+00  1.0877344943736906e+00  1.0804107297219343e+00  1.0713871057650577e+00  1.0683363009826814e+00  1.0799307115405783e+00  1.1217896045996947e+00  1.1441471969007924e+00  1.1403355226177321e+00  1.0758826456417476e+00  1.0693675392371753e+00  1.0707069290840785e+00  1.0489597487554954e+00  1.0954222361919863e+00  1.1053046316924546e+00  1.1171099297800700e+00  1.0922260680337772e+00  1.0907281578559269e+00  1.0697330431319649e+00  1.0434642297089278e+00  1.0942385770939178e+00  1.0932061263991479e+00  1.1044948926527420e+00  1.0817199047936004e+00  1.0711156896898215e+00  1.0843987603926204e+00  1.1047895976843567e+00  1.0792978957085988e+00  1.1017145771417585e+00  1.1386148964661498e+00  1.1556772137914120e+00  1.1600440725870014e+00  1.0668833004812253e+00  1.1230496687077607e+00  1.0982479592025993e+00  1.0962324506939125e+00  1.0922343645174393e+00  1.1009788663870252e+00  1.0755162980704636e+00  1.0682759618402604e+00  1.0672388121663818e+00  1.0701633396105574e+00  1.0896082577212594e+00  1.1416464376729571e+00  1.1699153087937533e+00  1.1200674360634868e+00  1.1022975357754232e+00  1.1186915975205889e+00  1.1414451429959029e+00  1.1588010883739008e+00  1.1442273884419787e+00  1.1341159291223932e+00  1.1269065329234049e+00  1.1027001055077337e+00  1.0946000902343413e+00  1.0537218221818876e+00  1.0358815670310617e+00  1.1055524648837043e+00  1.1022534857186670e+00  1.0963901492637007e+00  1.0934804290518598e+00  1.0936611227288797e+00  1.0818583619960922e+00  1.1239370349359248e+00  1.1019280043514534e+00  1.1767776834981221e+00  1.0857152454557153e+00  1.1235126094476753e+00  1.1216585318184678e+00  1.0794063311715114e+00  1.0506353424425123e+00  1.0388930059144914e+00  1.0717865130870581e+00  1.3004722016869013e+00  1.3427943873169534e+00  1.2726571022096185e+00  1.1417861696889784e+00  1.1452853729238870e+00  1.1482581012835162e+00  1.1545088120164426e+00  1.1427353318673570e+00  1.1529803809705876e+00  1.1119309496340872e+00  1.1065943403583192e+00  1.1333879208258066e+00  1.1124860069327105e+00  1.0814380961109815e+00  1.0647417703000543e+00  1.0523187145566248e+00  1.0515757576524651e+00  1.0460340651344442e+00  1.1025762909098076e+00  1.0928167666891779e+00  1.0917870142130559e+00  1.1085404761235842e+00  1.1442171408241282e+00  1.1877711564194375e+00  1.2949485639921441e+00  1.2621824118896363e+00  1.3249342118387881e+00  1.3639481724369653e+00  1.3623960721474409e+00  1.3259868950452303e+00  1.2549771008116462e+00  1.1848185463337801e+00  1.1665394622938763e+00  1.1833062150702096e+00  1.1614442741510809e+00  1.1893005203435283e+00  1.1782665644786021e+00  1.1985915775977318e+00  1.0935089150597843e+00  1.1104919575623862e+00  1.0979819124405579e+00  1.0761706859090594e+00  1.0671279770857391e+00  1.0611537914520304e+00  1.0504277216306994e+00  1.0874990974281371e+00  1.0968338482808673e+00  1.1177811535638225e+00  1.0966529930823812e+00  1.1016976684296902e+00  1.1664159863900747e+00  1.2381990187129666e+00  1.2477666896852770e+00  1.2251052820188886e+00  1.2398631619505389e+00  1.3071675738839441e+00  1.3754126491939507e+00  1.3502217255404532e+00  1.3027439908055187e+00  1.2353662173789219e+00  1.2675229574749085e+00  1.2610337091031318e+00  1.2289637199788914e+00  1.2506108723819285e+00  1.2362671307042015e+00  1.2524867761372880e+00  1.0956733277990101e+00  1.1095620698524034e+00  1.1098421337072719e+00  1.0927545239698346e+00  1.0843705941125399e+00  1.0691755797348408e+00  1.0548361548782308e+00  1.0824359581326299e+00  1.0992170856550134e+00  1.1524739855643094e+00  1.1175002638569360e+00  1.1221777440017677e+00  1.1755453365693480e+00  1.1745614772416304e+00  1.2068265736049038e+00  1.2272698223978526e+00  1.2572596296958982e+00  1.2639406952178778e+00  1.2570956916073694e+00  1.4931702194595888e+00  1.4651764706561308e+00  1.3815940386450887e+00  1.4411410081650724e+00  1.5355731215285242e+00  1.3393239463330664e+00  1.3489805489136621e+00  1.3142908591211171e+00  1.2903623336107342e+00  1.3307563558627289e+00  1.4139803570817446e+00  1.1074842153386315e+00  1.1238909702749544e+00  1.1249158814689950e+00  1.0897631536999977e+00  1.0805308836798579e+00  1.0640874724680047e+00  1.1034269318902930e+00  1.0913308572012885e+00  1.0911920278654961e+00  1.1075237475941806e+00  1.1883535025323795e+00  1.1872484810963810e+00  1.1257203350003855e+00  1.1326559667058456e+00  1.1989383747775666e+00  1.2016400438919985e+00  1.1923700968332644e+00  1.2079564478003832e+00  1.2445671110808652e+00  1.2507701895105832e+00  1.3511132793301150e+00  1.4167989603246984e+00  1.4844746878612278e+00  1.4239121706272351e+00  1.4080555948770255e+00  1.4647493686326445e+00  1.4139830766760251e+00  1.4014835075484444e+00  1.5648999932454528e+00  1.4858581016443888e+00  1.3847356216070681e+00  1.3392404614879252e+00  1.3512818979558638e+00  1.4675152205608499e+00  1.5280649515921312e+00  1.1114403594192870e+00  1.1303879395262038e+00  1.1690002724934563e+00  1.1527514517904509e+00  1.1044552018422074e+00  1.1054561218239178e+00  1.1500925328959384e+00  1.1664215444392378e+00  1.1774153400881904e+00  1.1426578700278813e+00  1.1593163686572270e+00  1.1022869804255346e+00  1.0706275203165261e+00  1.0734844362431981e+00  1.0681579232644514e+00  1.2184093690329831e+00  1.3443167601949972e+00  1.2375454843232381e+00  1.2415444422079058e+00  1.3805161322514485e+00  1.4818203401668115e+00  1.3764208612027999e+00  1.4076095856514799e+00  1.5056661060854424e+00  1.4881700562863247e+00  1.3938900492660671e+00  1.4285306802170836e+00  1.3641584918038021e+00  1.3740528880268574e+00  1.4683512536800301e+00  1.4418119884515694e+00  1.5173250834272927e+00  1.4054119678136010e+00  1.3653148476210917e+00  1.4040827737392760e+00  1.4643644574790997e+00  1.1733131838326412e+00  1.1260526138912417e+00  1.1001985990452547e+00  1.0733019957555818e+00  1.0643560444072688e+00  1.0592428598507988e+00  1.0582054616657626e+00  1.0524935422330268e+00  1.1491336567358650e+00  1.1049159222380880e+00  1.1270599278135791e+00  1.1469089949624707e+00  1.1605078424819519e+00  1.3895407407734675e+00  1.4277777220856416e+00  1.2998506924629845e+00  1.3267410549757768e+00  1.3881246609425213e+00  1.4273150215569956e+00  1.4208189092918249e+00  1.4214443238404053e+00  1.5756499678096294e+00  1.7180558198630178e+00  1.8297971949567031e+00  1.5419229625225339e+00  1.4418542171494109e+00  1.4488950161401457e+00  1.4529876499545853e+00  1.4555274707463512e+00  1.3833625121805329e+00  1.4974138121048222e+00  1.5659747038757541e+00  1.5651379879444061e+00  1.4754792086618354e+00  1.4488895305981953e+00  1.4169348454242672e+00  1.1322407972434059e+00  1.1313631699273110e+00  1.1005691294768851e+00  1.1271941102040157e+00  1.1562500241903204e+00  1.1799407851308905e+00  1.2336410625995131e+00  1.2374531232068628e+00  1.2961493571526832e+00  1.3438985343153831e+00  1.3349849722642635e+00  1.4922661635252139e+00  1.4467249758676075e+00  1.5391543793216274e+00  1.4543193474303959e+00  1.6003407600893180e+00  1.4283280511489715e+00  1.0992195878443602e+00  1.0805740743551226e+00  1.0814899492302243e+00  1.0694046661365966e+00  1.0658095943621910e+00  1.0488742719440318e+00  1.0424841895564452e+00  1.9549017613160455e+00  2.1114408906376161e+00  1.6469945819511616e+00  1.4738833936802216e+00  1.4192761406608456e+00  1.4955205475270263e+00  1.5206370765286938e+00  1.1238619687411937e+00  1.1356649056580808e+00  1.0998851314203180e+00  1.0788021951987101e+00  1.0717785470348511e+00  1.0727490650857370e+00  1.0697214348785984e+00  1.0618332842699001e+00  1.0506932229819492e+00  1.0411210317269319e+00  1.1204975830656059e+00  1.1669833331410067e+00  1.2003426672085447e+00  1.1791819014800959e+00  1.2534822194392814e+00  1.3187341919905351e+00  1.3684444300062699e+00  1.4242869583784612e+00  1.4349929460547621e+00  1.6023293008363186e+00  1.5670913584395754e+00  1.4973993778055399e+00  1.5112825237877612e+00  1.9068772261659497e+00  1.8774741408727487e+00  1.6351747982177656e+00  1.1575368961674390e+00  1.1385304460741954e+00  1.1424288699388494e+00  1.1322600027403349e+00  1.0889523942542243e+00  1.0774001202039365e+00  1.0660194863950627e+00  1.0632937024405760e+00  1.0493916418943914e+00  1.0451601466589178e+00  1.0484492711451536e+00  1.0479146873803260e+00  1.2156748398094852e+00  1.1890714688649582e+00  1.1482446347150428e+00  1.2201217160885882e+00  1.2752161040056653e+00  1.4261772251978246e+00  1.4556288489958962e+00  1.6665079783938486e+00  1.6325803637051621e+00  1.4726332924803063e+00  1.5067430647377114e+00  1.5833607560166021e+00  1.5721518083118953e+00  1.1697388868601295e+00  1.2382915005409061e+00  1.1446586910244203e+00  1.1462114357548228e+00  1.2112012860255907e+00  1.2974426718032561e+00  1.4094596848434995e+00  1.5572803489904168e+00  1.4810204451753051e+00  1.5487899854395544e+00  1.6908143629875463e+00  1.5844513911061460e+00  1.5176080000730461e+00  1.5431431580578476e+00  1.1632828849260248e+00  1.1533791991593099e+00  1.1601565221823040e+00  1.1200626981272501e+00  1.0926087439650942e+00  1.0715352439480872e+00  1.0586247081483207e+00  1.0501329092325320e+00  1.0397530726327255e+00  1.0397820622472946e+00  1.0400070781989177e+00  1.0497591352561109e+00  1.0645560396060190e+00  1.2222193355584579e+00  1.1850718050400966e+00  1.1737457722724880e+00  1.2130115084958175e+00  1.2441370834593211e+00  1.5478488860952304e+00  1.7063737749355492e+00  1.5718536138246355e+00  1.7304629550607380e+00  1.8932226305551332e+00  1.7513076204289506e+00  1.1547112840965525e+00  1.1724385470875276e+00  1.1670857680562121e+00  1.1526771746990871e+00  1.1172677825478126e+00  1.0962940349717964e+00  1.0727692856705884e+00  1.0539529279484463e+00  1.0476250583964459e+00  1.0447036548062347e+00  1.0418240176390530e+00  1.0408008452549011e+00  1.0485958408289888e+00  1.0379757354640153e+00  1.2082979074237037e+00  1.1580918767244506e+00  1.1390279022270224e+00  1.1551886793836159e+00  1.1830167330792469e+00  1.1668993680203019e+00  1.1055220152324940e+00  1.0619317130005856e+00  1.0495128565329048e+00  1.0438633302360822e+00  1.0434894267477659e+00  1.0476905541071191e+00  1.0461781822177967e+00  1.0449367430979692e+00  1.0460750371469194e+00  1.2638348630637408e+00  1.2941420279817317e+00  1.2680517861581369e+00  1.4932985336400217e+00  1.6241755428097582e+00  1.6941947542005251e+00  2.1957126703859693e+00  2.2087540046256469e+00  1.8630038702143905e+00  1.1831954726996925e+00  1.1736033318321932e+00  1.1398115585596291e+00  1.1752744604411727e+00  1.2253559726306507e+00  1.1751770018830159e+00  1.1593762773863150e+00  1.1194012291938515e+00  1.0694227544844188e+00  1.0622037476459107e+00  1.0519061879699261e+00  1.0459425562478708e+00  1.0382550026678661e+00  1.0375472075445245e+00  1.0398504886102737e+00  1.0433478012542978e+00  1.0348950709239244e+00  1.0364945104063201e+00  1.0419536308989421e+00  1.2700793726491064e+00  1.2712754742383703e+00  1.3096548125372780e+00  1.3278866364146158e+00  1.4007275349853061e+00  1.5597466954384116e+00  2.4644909360222562e+00  3.1229391798689594e+00  2.8940088578312642e+00  1.1382819897706795e+00  1.1676113222082163e+00  1.1362354267484107e+00  1.1623544379580086e+00  1.1494847578109673e+00  1.1106811259715632e+00  1.0781851746642404e+00  1.0650675044287892e+00  1.0581997070607945e+00  1.0596989407158179e+00  1.0426999021957584e+00  1.0370629216116589e+00  1.0352550647319065e+00  1.0381564943444639e+00  1.0403388910753442e+00  1.0319194151965292e+00  1.0264371207729128e+00  1.1956985372978952e+00  1.1982936324096625e+00  1.2547009242374918e+00  1.3807646974253811e+00  1.3559334417729143e+00  1.4604642701178387e+00  2.3158593157301941e+00  2.9792907022316739e+00  2.1669506563189858e+00  1.9843054707464132e+00  1.1531952606133349e+00  1.1588964122845564e+00  1.1895436336450036e+00  1.1988495377498716e+00  1.2538690442121427e+00  1.4625647142427649e+00  1.5353324513281574e+00  1.9783539135565282e+00  2.1685007426884155e+00  1.8856386716275551e+00  1.4951405185730904e+00  1.5185244109583009e+00  1.1713794523141621e+00  1.1249638121171375e+00  1.1136932008380094e+00  1.1151087277556011e+00  1.0884690632594130e+00  1.0672045204499199e+00  1.0734084519272653e+00  1.0553714043154805e+00  1.0504102032774185e+00  1.0616900470862876e+00  1.0524522901691542e+00  1.0478208955737367e+00  1.0433809626728821e+00  1.0314123041783489e+00  1.0324666237443592e+00  1.0289512257072431e+00  1.0249373130499391e+00  1.0233680002219097e+00  1.0429920291839727e+00  1.1608009816678337e+00  1.2060638736206801e+00  1.1577613067661574e+00  1.1014244680481957e+00  1.0921227645386753e+00  1.0717846246201519e+00  1.0519067255162655e+00  1.0502698641019541e+00  1.0437931153759830e+00  1.0422834420198874e+00  1.0469834655365655e+00  1.0450461213159397e+00  1.0470718074854022e+00  1.0378362040486322e+00  1.0347480584048019e+00  1.0301822872344117e+00  1.0287544146632257e+00  1.0279547705989940e+00  1.0216012430884736e+00  1.0208479386831106e+00  1.2171804982612091e+00  1.2240654368970298e+00  1.3340992271934295e+00  1.2790562552132745e+00  1.3937937236212936e+00  1.4956549945403228e+00  1.5461348656253573e+00  1.7596629349421851e+00  1.7616010569488327e+00  1.6524380502755074e+00  1.4645927875179388e+00  1.3640700319371148e+00  1.3161968409397411e+00  1.1574456826220845e+00  1.1520306353756871e+00  1.1964854585714679e+00  1.3117293712949551e+00  1.3689176826413065e+00  1.3566493712621466e+00  1.3751975296463794e+00  1.5849837119803001e+00  1.7916476821003628e+00  1.7152609352216643e+00  1.6092208085611051e+00  1.6058582133052841e+00  1.5053757840650630e+00  1.5257360954448560e+00  1.5323371674915256e+00  1.3233453647340778e+00  1.2805377853340050e+00  1.1023661763000046e+00  1.1234678332596391e+00  1.0852836019881393e+00  1.0658243860881691e+00  1.0578041049768909e+00  1.0467390856665755e+00  1.0428063120552347e+00  1.0454138836610192e+00  1.0503701974639208e+00  1.0419289380558321e+00  1.0422229706082047e+00  1.0412112931045157e+00  1.0378518625548667e+00  1.0335497204053827e+00  1.0309650017578174e+00  1.0292590790488816e+00  1.0281244036647064e+00  1.0268272448089051e+00  1.0226038585980977e+00  1.0203560431953231e+00  1.1271133779230718e+00  1.1369526531551795e+00  1.1739753307869514e+00  1.2129430941943915e+00  1.2413354589638756e+00  1.3264041649677856e+00  1.3159312102813250e+00  1.3301030395179905e+00  1.3801605670167292e+00  1.5211153974083198e+00  1.4621593432298496e+00  1.5254014046112183e+00  1.4558281003300326e+00  1.5296839206708881e+00  1.5130610159275883e+00  1.3255620766321849e+00  1.2024739828477105e+00  1.1019444979756317e+00  1.0794440354904937e+00  1.0891106484436466e+00  1.0564030276067180e+00  1.0463076106666824e+00  1.0535203906904484e+00  1.0616696798917398e+00  1.0615939032184518e+00  1.0451891949242225e+00  1.0492094326447026e+00  1.0365479840575911e+00  1.0363300090806760e+00  1.0307074158086056e+00  1.0274079780344048e+00  1.0251354143768912e+00  1.0243924406851883e+00  1.0218249069318368e+00  1.1159779898323778e+00  1.1132828023815591e+00  1.1347218044980327e+00  1.1635269823637546e+00  1.1985902716786894e+00  1.1942716487201508e+00  1.2290724438977123e+00  1.2869866748451544e+00  1.3120479091177195e+00  1.3365835644223760e+00  1.3547616516415986e+00  1.3212819841548968e+00  1.2648530146466184e+00  1.2847537188490983e+00  1.3478885763870965e+00  1.3021751659901741e+00  1.2945772238162379e+00  1.2080616668358957e+00  1.1785078118709638e+00  1.1066905693153835e+00  1.0854539694792669e+00  1.0804533839020654e+00  1.0608418400849555e+00  1.0625488862984040e+00  1.0553969488471926e+00  1.0458742922692186e+00  1.0412194354908988e+00  1.0332978375566761e+00  1.0329036971959298e+00  1.0307693415056165e+00  1.0227995214934447e+00  1.0201665087120817e+00  1.0242090274416189e+00  1.0241374754890011e+00  1.1089462929639005e+00  1.1326505771612259e+00  1.1495698249157931e+00  1.1369005683957791e+00  1.1165079960116608e+00  1.0837735668683521e+00  1.0741533566989239e+00  1.0810930974730038e+00  1.0783257297786248e+00  1.0788639221814795e+00  1.0776216774365062e+00  1.0622440881080313e+00  1.0578388372359095e+00  1.0456370181361867e+00  1.0379976223914487e+00  1.0310459196818518e+00  1.0309161092413546e+00  1.0366955297570331e+00  1.0264232034925693e+00  1.0193845867534463e+00  1.0169232579324461e+00  1.0164756202439416e+00  1.0197497055300717e+00  1.1741504931197224e+00  1.1932461707999642e+00  1.1768833778978540e+00  1.1913453108249838e+00  1.2084241503172792e+00  1.2201373188421907e+00  1.2492651128517047e+00  1.2629083379966561e+00  1.2702624438062278e+00  1.2521488551235014e+00  1.2146531336133815e+00  1.1968547868958355e+00  1.2245344639705260e+00  1.2740176420632383e+00  1.2544771557388841e+00  1.2115213784067347e+00  1.2055008513299326e+00  1.0370379397107798e+00  1.1617175139776863e+00  1.1079099006478581e+00  1.0676762700510334e+00  1.0658114309538820e+00  1.0698796850208945e+00  1.0688620594021583e+00  1.0668646754156983e+00  1.0665377090353612e+00  1.0721567697117520e+00  1.0715380639086736e+00  1.0611953755742101e+00  1.0485190973550209e+00  1.0350297227375946e+00  1.0250437061053150e+00  1.0246363004517316e+00  1.0246818310957526e+00  1.0283165904273068e+00  1.0242125310897745e+00  1.0245707363579712e+00  1.0191589141696686e+00  1.0163128009847233e+00  1.0146285805589388e+00  1.0153566689727536e+00  1.1938638321261861e+00  1.1653264915648669e+00  1.1332587131263074e+00  1.1646438236868868e+00  1.1856835512598429e+00  1.1857898900501178e+00  1.1984356939667509e+00  1.2182669097951675e+00  1.2598260193918347e+00  1.2769151153066602e+00  1.2296119611024630e+00  1.2003712689129651e+00  1.1908169681944822e+00  1.2089462192675611e+00  1.3116446187864759e+00  1.2893375950149379e+00  1.2644804460192041e+00  1.2478292987577679e+00  1.1480660439808317e+00  1.1272108756745953e+00  1.1447872865366546e+00  1.1337007868812594e+00  1.1089014334984277e+00  1.1265294586115073e+00  1.1611456015018042e+00  1