<?xml version="1.0"?>
<VTKFile type="UnstructuredGrid"  version="0.1"  >
<UnstructuredGrid>
<Piece  NumberOfPoints="1237" NumberOfCells="2335">
<Points>
<DataArray  type="Float64"  NumberOfComponents="3"  format="ascii">-1 3.09081664739187e-17 0  -0.9843750000000001 0.02706329386826373 0  -0.9586042096960951 -0.0236073080308172 0  -0.9687500000000001 -0.05412658773652738 0  -0.9687499999999999 0.05412658773652741 0  -0.9472957560052226 0.006184170637571083 0  -0.9267582714381279 -0.04141318421241193 0  -0.9316799261084423 -0.07502217834255943 0  -0.9375000000000001 -0.1082531754730548 0  -0.9304535526187879 0.02123269309792843 0  -0.9155919293475937 -0.02097532195701668 0  -0.8901898660228655 -0.05879793213392052 0  -0.8961407092258983 -0.08791682354371629 0  -0.9041593017321125 -0.1150769371767221 0  -0.9062500000000001 -0.1623797632095822 0  -0.9531250000000001 0.08118988160479108 0  -0.890147330991285 -0.0122086527191084 0  -0.8576709175674995 -0.04850009197978337 0  -0.8494979525438807 -0.09201284187231788 0  -0.8688087259335305 -0.1227339854926646 0  -0.8657397003544938 -0.1744307530448399 0  -0.875 -0.2165063509461097 0  -0.9191385500632976 0.05668682295204934 0  -0.9374999999999999 0.1082531754730548 0  -0.8414732086268925 -0.02979075402072296 0  -0.8838615846104741 0.03281364894932847 0  -0.9025993020289615 0.08399522279934024 0  -0.9218749999999999 0.1353164693413185 0  -0.8069091517126806 -0.1063797548106189 0  -0.8227041474082361 -0.1554136366367828 0  -0.8450362008579381 -0.1636153151676399 0  -0.824611073526637 -0.2087806554713395 0  -0.8432447828874938 -0.2299625171474235 0  -0.8437500000000001 -0.270632938682637 0  -0.8074688489602485 -0.04534311577063995 0  -0.7748599739446962 -0.09147609870793595 0  -0.7599743974004342 -0.1515693530204255 0  -0.7874243887323827 -0.1486997295560047 0  -0.7740096897566618 -0.1902442517032015 0  -0.7982566063220082 -0.2018609305277571 0  -0.7939958243211587 -0.243248178868526 0  -0.8033953092403587 -0.2739516347679044 0  -0.8125000000000002 -0.3247595264191645 0  -0.8481685757897792 0.03463580614500975 0  -0.8763526826359844 0.09829521691979071 0  -0.9062500000000001 0.1623797632095823 0  -0.7872217742390745 -0.03024195936296309 0  -0.7565548600439893 -0.06556774174670035 0  -0.7280367863186943 -0.1046281989307924 0  -0.7428557301118698 -0.1326576576268934 0  -0.7130575397441211 -0.2080743084118526 0  -0.7425045269468755 -0.2040970945489534 0  -0.7674851701419854 -0.2290293682917657 0  -0.7599986833552189 -0.2682349390602705 0  -0.7616526459078594 -0.3305135978123668 0  -0.7812500000000001 -0.378886114155692 0  -0.816253599818404 0.01031925268654644 0  -0.8190007077644565 0.05195524742955143 0  -0.8424384387483641 0.09512493014350837 0  -0.8689593925676488 0.1377994471097691 0  -0.890625 0.1894430570778459 0  -0.7410175419981699 -0.05005547045971393 0  -0.6820539222728559 -0.1168108160858607 0  -0.6757831681120814 -0.161343132024619 0  -0.7066615444436462 -0.1644905737066079 0  -0.6637898688950368 -0.220644916152676 0  -0.6744004859163939 -0.2587362859831477 0  -0.7325446303104611 -0.2447371505997974 0  -0.7216022609970536 -0.292027783035909 0  -0.7407903637588057 -0.3123505827564781 0  -0.7035881363438097 -0.356533874799312 0  -0.7288120197725808 -0.392133095104917 0  -0.75 -0.4330127018922193 0  -0.7897359628532806 0.006725954256448229 0  -0.7972623766874077 0.06341714755367762 0  -0.8304362309430872 0.1129567769931919 0  -0.8421684945059275 0.1611058176776091 0  -0.8750000000000001 0.2165063509461097 0  -0.7637447900489446 0.0084055150883772 0  -0.7027910536312951 -0.05387662733901926 0  -0.6399011514174923 -0.1176136647146791 0  -0.6199508075525719 -0.1685360793359413 0  -0.6333977552331249 -0.1967451137076092 0  -0.619216095826812 -0.2480485729726879 0  -0.6276040039072337 -0.2883488704175591 0  -0.6261231993592246 -0.3335289324385786 0  -0.6865068439078151 -0.2949080438254524 0  -0.6907604947283688 -0.3285687191624082 0  -0.6650087872471667 -0.3699552850214223 0  -0.6798435707998647 -0.4026405874050478 0  -0.7050830176678921 -0.447022367558788 0  -0.7187499999999999 -0.4871392896287467 0  -0.7723498686347566 0.07044317118097282 0  -0.8017262003913778 0.122128289958322 0  -0.8169126563784805 0.1693170073489986 0  -0.8593750000000001 0.2435696448143733 0  -0.7259809026153086 0.008482836968837627 0  -0.6740418109022589 -0.02450688559989462 0  -0.7223115334823216 0.04936346203485886 0  -0.7572899881178878 0.1097950588389946 0  -0.7734646598732114 0.1561617258837397 0  -0.8083562768108126 0.2049421991290764 0  -0.84375 0.270632938682637 0  -0.6660887510003569 -0.06759964205641175 0  -0.6171961871067949 -0.09908864551504318 0  -0.5833829368075305 -0.1731805645520128 0  -0.5851671105835449 -0.224515763015499 0  -0.5727138940289876 -0.2779087493001106 0  -0.5801058985757366 -0.3174797115370438 0  -0.57948544680462 -0.3632267691333948 0  -0.6267964734590343 -0.3775121834136309 0  -0.6398433230386719 -0.4169421315431633 0  -0.6616426493335408 -0.4488274832297308 0  -0.6803761222242836 -0.4915582867438201 0  -0.6875 -0.5412658773652741 0  -0.6566148164134606 -0.3360342982328451 0  -0.6542800869698886 0.003633874519227934 0  -0.6158214682809207 -0.05883418227773253 0  -0.5750967197363078 -0.0918766710651954 0  -0.5702619644256461 -0.1314570888217494 0  -0.5310796517017504 -0.1985334532999667 0  -0.5379237787887492 -0.2420866834293268 0  -0.5516118004787688 -0.2643356959406811 0  -0.5219299366261414 -0.3074188372821275 0  -0.5441569679299709 -0.3203940814531961 0  -0.544846265790987 -0.3611331944285065 0  -0.5114751055162018 -0.4066686830605467 0  -0.5298500409650213 -0.4384707797967484 0  -0.5794737256993363 -0.4086737180861368 0  -0.6054298025247353 -0.4197528954248557 0  -0.592710431245361 -0.4609848902618885 0  -0.6134133603589965 -0.4927681039827594 0  -0.6393590131426583 -0.5198261223711328 0  -0.6438736370520471 -0.5600300692022314 0  -0.65625 -0.5953924651018015 0  -0.6961199877549025 0.06467019448070167 0  -0.7322688722710476 0.1241970790870847 0  -0.7614677067674487 0.1843417562313635 0  -0.7982098286578407 0.241597904092872 0  -0.828125 0.2976962325509007 0  -0.6121569899603913 -0.02049935287448479 0  -0.5680093344887456 -0.06210558644879417 0  -0.5296938028141881 -0.1373067408269198 0  -0.4901525291003586 -0.1955789237044915 0  -0.4746183446720159 -0.2428634803524866 0  -0.4858590591960716 -0.2715088080329482 0  -0.4715952226353661 -0.3270718944547512 0  -0.4874270099800481 -0.3483793786947822 0  -0.480078652051836 -0.4044778124091272 0  -0.5107966792581313 -0.3607592194079098 0  -0.6351984073276686 0.03037645136060999 0  -0.6919512395101405 0.1148619971399276 0  -0.7371035741994222 0.1934824949257085 0  -0.7677243675294183 0.2452436239691324 0  -0.8125000000000001 0.3247595264191646 0  -0.5070956227453038 -0.2856926586873541 0  -0.4592753826052925 -0.4489578951960593 0  -0.4551538480224278 -0.4879280476876971 0  -0.4870834355975865 -0.4924138429753193 0  -0.5543645851211818 -0.4600201827899537 0  -0.5636063113133203 -0.5062314567180716 0  -0.5722394951023636 -0.540723915347752 0  -0.6004398475588687 -0.5639514773360513 0  -0.6165119354103209 -0.6003123312214718 0  -0.625 -0.6495190528383291 0  -0.5850968043587489 -0.01747042289921243 0  -0.5715475053296581 0.003755875240688324 0  -0.632542541699327 0.08118252107995054 0  -0.6715186710197373 0.1292199759178416 0  -0.6982974014086432 0.1789827939308964 0  -0.7309041627521532 0.2234419242184485 0  -0.760853516405614 0.2792464453234507 0  -0.7607023230601084 0.3093962646126385 0  -0.7968750000000001 0.3518228202874282 0  -0.5264933157473631 -0.08231084764042879 0  -0.493638060994832 -0.1339939179799725 0  -0.4589626054281711 -0.1957888821520802 0  -0.438352019728192 -0.2427967943470546 0  -0.4349603537871217 -0.2905998917905525 0  -0.4340727913783781 -0.3307406261902842 0  -0.3931940322566967 -0.3797355265396843 0  -0.4328932475453516 -0.4073381105917769 0  -0.415502513600294 -0.4580373266102869 0  -0.385415281901366 -0.511073437509846 0  -0.3881529845957117 -0.5477450464703199 0  -0.4322278898459536 -0.5328927439743946 0  -0.4708621541874918 -0.5447008496340244 0  -0.5212781730861482 -0.509033783025311 0  -0.5273194299998638 -0.5485603521097303 0  -0.5234826944144788 -0.5932528774620949 0  -0.5625853138775753 -0.5789028834579788 0  -0.5740199804033532 -0.6134996816985621 0  -0.5765847191201461 -0.6564593508420057 0  -0.59375 -0.7036456405748563 0  -0.5800862410227176 0.06953847272188511 0  -0.62345922728912 0.1087748024732029 0  -0.6592027535596012 0.1483415294528432 0  -0.7030117102084296 0.2220614128747072 0  -0.7211245865447338 0.2726260665754737 0  -0.7293612713284667 0.3214771290950779 0  -0.7890625000000001 0.3653544672215601 0  -0.5497332796675871 0.02526608106074905 0  -0.53018493643993 -0.01879708202667862 0  -0.5023738120312831 -0.06929095084794874 0  -0.4543086626793323 -0.1501783646722772 0  -0.4248556544311721 -0.2001778118037034 0  -0.3836034551939345 -0.2834399929263637 0  -0.3735195503155113 -0.3423773121212576 0  -0.3164083588907829 -0.4085503075097236 0  -0.3374441431234344 -0.4358308634994116 0  -0.3563643403403329 -0.4652367397589351 0  -0.3293009761387771 -0.5276556289563349 0  -0.3139040252508816 -0.5855140438576723 0  -0.366730554445017 -0.5948349816197472 0  -0.4217402740883738 -0.5900354366832488 0  -0.4753932323153703 -0.5864582514369745 0  -0.4778516850572023 -0.6318307895279576 0  -0.5087154203841168 -0.6499046400010015 0  -0.5448706663656597 -0.6492816546120687 0  -0.529090650986931 -0.6944022548983919 0  -0.5447409078977913 -0.7268187065901833 0  -0.5625000000000001 -0.7577722283113839 0  -0.5918572054463975 0.1338101643626165 0  -0.6347680448791199 0.1520640736039057 0  -0.6649299767989149 0.2164013530528183 0  -0.6741572651241856 0.2686102951723429 0  -0.6789476455262888 0.321375691006909 0  -0.7254508777365434 0.3530655186058727 0  -0.7812499999999999 0.3788861141556918 0  -0.5377716048704266 0.05272672813330151 0  -0.5104530844077947 -0.001526069099174808 0  -0.46319401157798
[...]
<PointData  Scalars="w"> 
<DataArray  type="Float64"  Name="w"  format="ascii">1.0000460422224668e+00  1.0000417312276468e+00  1.0000421660309753e+00  1.0000437887781952e+00  1.0000355216182533e+00  1.0000393781685990e+00  1.0000421002802955e+00  1.0000420864796238e+00  1.0000424039263307e+00  1.0000407230984831e+00  1.0000464798648245e+00  1.0000529662105797e+00  1.0000483607531212e+00  1.0000468837086616e+00  1.0000520514123306e+00  1.0000358731258412e+00  1.0000622999587607e+00  1.0000751240351455e+00  1.0000743529399996e+00  1.0000566876953521e+00  1.0000572673980552e+00  1.0000564063885653e+00  1.0000426698005247e+00  1.0000412517730750e+00  1.0000813361989804e+00  1.0000650267939870e+00  1.0000499906494316e+00  1.0000546901592879e+00  1.0000893876133203e+00  1.0000678056358232e+00  1.0000625586155263e+00  1.0000592780397297e+00  1.0000584355654250e+00  1.0000639451097471e+00  1.0000827473783795e+00  1.0000848568845353e+00  1.0000790383435365e+00  1.0000755164818926e+00  1.0000712839807619e+00  1.0000665766701644e+00  1.0000700353753085e+00  1.0000763693411761e+00  1.0001007106778597e+00  1.0000846612594489e+00  1.0000660138237203e+00  1.0000767034071265e+00  1.0000845103818568e+00  1.0000916309597885e+00  1.0000952501027558e+00  1.0000860995247927e+00  1.0001006925662217e+00  1.0000829214673777e+00  1.0000755186971046e+00  1.0000883292179770e+00  1.0000987615556727e+00  1.0001222338785676e+00  1.0000832044080497e+00  1.0000798751401034e+00  1.0000736987968490e+00  1.0000858025470520e+00  1.0000992937889590e+00  1.0001060288938077e+00  1.0001264493655833e+00  1.0001253377391026e+00  1.0001056564307547e+00  1.0001285290649040e+00  1.0001330951126894e+00  1.0000922366976805e+00  1.0000809247409463e+00  1.0000877858539037e+00  1.0000932227148362e+00  1.0001242651061668e+00  1.0001239704486136e+00  1.0000898533347613e+00  1.0000924388775549e+00  1.0000850886923198e+00  1.0001052250872058e+00  1.0001013767338156e+00  1.0001110019468211e+00  1.0001410593502726e+00  1.0001371845394036e+00  1.0001619800491102e+00  1.0001434690335813e+00  1.0001276136211685e+00  1.0001229145024593e+00  1.0001002988929910e+00  1.0000907295812491e+00  1.0000766617754520e+00  1.0000872769463207e+00  1.0001157163973726e+00  1.0001260557357314e+00  1.0001151596806563e+00  1.0001234764138374e+00  1.0001130600212429e+00  1.0001176279726116e+00  1.0000967006208075e+00  1.0001536677627165e+00  1.0001592529589753e+00  1.0001709435038060e+00  1.0001378841486537e+00  1.0001384553847996e+00  1.0001199536469034e+00  1.0000928659236075e+00  1.0001440104574479e+00  1.0001452251637590e+00  1.0001848827465436e+00  1.0001322148690837e+00  1.0001114932636423e+00  1.0001234004903174e+00  1.0001243546339860e+00  1.0000928810361431e+00  1.0001081457586203e+00  1.0001248668956506e+00  1.0001299370832930e+00  1.0001289221792329e+00  1.0000802805048712e+00  1.0001784282498105e+00  1.0001605277632508e+00  1.0001747273106081e+00  1.0001731804529570e+00  1.0002236645271949e+00  1.0001437958999555e+00  1.0001143373305825e+00  1.0001017950192137e+00  1.0001028326706181e+00  1.0001086920279971e+00  1.0001244545120123e+00  1.0001368126915200e+00  1.0001176191233143e+00  1.0001076913152633e+00  1.0001094299123416e+00  1.0001143862168986e+00  1.0001264942187111e+00  1.0001094696263859e+00  1.0001023947344481e+00  1.0001797193898101e+00  1.0001522423761438e+00  1.0001461943755996e+00  1.0001009492181034e+00  1.0000791814870305e+00  1.0001717418499179e+00  1.0001902976987227e+00  1.0002023626098588e+00  1.0001968755843615e+00  1.0001765443647246e+00  1.0001403482347779e+00  1.0001630506614554e+00  1.0001255572766494e+00  1.0001478074632493e+00  1.0001049621628229e+00  1.0001898766579720e+00  1.0001798567950195e+00  1.0001253399517340e+00  1.0000929679335364e+00  1.0000872306324116e+00  1.0001152743232791e+00  1.0002228056532714e+00  1.0002614821446663e+00  1.0001995211854280e+00  1.0001164808819485e+00  1.0001087399101516e+00  1.0001039891267409e+00  1.0001094437589915e+00  1.0001135648424402e+00  1.0001328571346422e+00  1.0002046875252402e+00  1.0002181362572289e+00  1.0002289283331729e+00  1.0001778193757069e+00  1.0001328281636914e+00  1.0001074727788140e+00  1.0000997466883264e+00  1.0001039734128438e+00  1.0000986052634835e+00  1.0002210228455346e+00  1.0002170092960074e+00  1.0002101552119367e+00  1.0002208032733100e+00  1.0002280278590658e+00  1.0002485792272475e+00  1.0003608665337138e+00  1.0002353734419114e+00  1.0002800137451224e+00  1.0004116292397773e+00  1.0001969100043939e+00  1.0002211933374501e+00  1.0001948945226704e+00  1.0001381309542847e+00  1.0001326272552480e+00  1.0001855597195957e+00  1.0001122332927084e+00  1.0001629782256076e+00  1.0001663882449245e+00  1.0003657550306155e+00  1.0002039961005207e+00  1.0002229686508148e+00  1.0001644462151360e+00  1.0001224614426656e+00  1.0001216398302943e+00  1.0001215120160081e+00  1.0001066322686725e+00  1.0001955878151809e+00  1.0002177531799166e+00  1.0002432362415030e+00  1.0002193316444323e+00  1.0002263097920845e+00  1.0002952685858215e+00  1.0003440084773376e+00  1.0003799604444423e+00  1.0003385082676193e+00  1.0003644880686791e+00  1.0013649375991183e+00  1.0004425724782058e+00  9.9978249537168773e-01  9.9985700861871218e-01  1.0002229733153971e+00  9.9982645847173279e-01  1.0004916463865481e+00  1.0004276641851479e+00  1.0004362287248081e+00  1.0012138109894255e+00  1.0028036548949189e+00  1.0002168530947151e+00  1.0001884280904421e+00  1.0001711124574535e+00  1.0001636571778632e+00  1.0001573677155891e+00  1.0001387674512987e+00  1.0001149372409497e+00  1.0001884893772046e+00  1.0002178097855756e+00  1.0002762618070384e+00  1.0002319149749035e+00  1.0002399622928173e+00  1.0003325220274519e+00  1.0003261711933344e+00  1.0003455727991581e+00  1.0004272210741425e+00  1.0006537595484124e+00  1.0008793672309735e+00  1.0013534035373555e+00  9.8695568762154751e-01  9.6427787331401182e-01  9.9619838295608398e-01  1.0007776782241049e+00  9.9977716267811667e-01  9.9768101925506181e-01  9.9230484696338761e-01  9.9920313275189043e-01  1.0073130232864520e+00  1.0170959101167945e+00  1.0182004003667797e+00  1.0002011039073306e+00  1.0002090938376080e+00  1.0002093604540350e+00  1.0001756635235839e+00  1.0001640343088340e+00  1.0001339397841298e+00  1.0002088531928224e+00  1.0002013845759603e+00  1.0002048528542196e+00  1.0002492822135607e+00  1.0003580438357327e+00  1.0003374343217861e+00  1.0002469361637263e+00  1.0002803544913346e+00  1.0004074063221706e+00  1.0004441300484248e+00  1.0003725064289815e+00  1.0004378203605044e+00  1.0005308936383757e+00  1.0004579286904494e+00  9.9977408576741489e-01  9.9918405787787279e-01  9.9683710992888641e-01  1.0209622236049902e+00  1.0768801596428403e+00  1.0065121934664103e+00  1.3745264898688496e+00  1.0692217097329315e+00  1.0862030149101454e+00  1.0385173511438037e+00  1.2198573268238448e+00  1.0193931702340773e+00  1.0755086099819184e+00  1.0796122763936473e+00  1.0482092044507962e+00  1.0001872515397474e+00  1.0002289661698114e+00  1.0002666424155400e+00  1.0002748888592279e+00  1.0002216183122270e+00  1.0002517390799188e+00  1.0003269937263377e+00  1.0004080605557235e+00  1.0004163923048333e+00  1.0003085495958219e+00  1.0002585391372159e+00  1.0001864271907515e+00  1.0001614859947623e+00  1.0001601231300719e+00  1.0001472071961821e+00  1.0004553260749112e+00  1.0007239810384532e+00  1.0005600086054944e+00  1.0006594790651071e+00  1.0010579273480473e+00  1.0008423064994580e+00  9.9943219475222922e-01  1.0022764037920231e+00  1.0012429538500813e+00  1.1416189947962827e+00  1.4945884662944937e+00  4.3659760729118773e+00  2.1018086069482687e+00  1.3458048219118184e+00  1.3558943258539842e+00  1.4799828305558964e+00  3.1258587498469796e+00  2.0254812626647039e+00  1.4125167366672344e+00  1.4714761057889292e+00  1.3297155621572732e+00  1.0002875895928682e+00  1.0002698334079747e+00  1.0001925635732198e+00  1.0001617586608291e+00  1.0001593201105730e+00  1.0001515323246049e+00  1.0001403668759916e+00  1.0001247787592691e+00  1.0003076766090451e+00  1.0002504641475785e+00  1.0003245812319013e+00  1.0003937880607570e+00  1.0004428123433589e+00  1.0008376644747876e+00  1.0010088030576227e+00  1.0010171541908317e+00  1.0007962462139512e+00  1.0007928531053369e+00  1.0013246093906130e+00  1.0021468705047694e+00  1.0103242843368450e+00  1.0864523575493081e+00  1.1761828464187380e+00  2.0704926609305416e+00  2.9611407491906596e+00  6.4179444283152325e+00  7.4065469935735173e+00  5.0242964230779039e+00  3.7546320202280072e+00  1.9770921354426632e+00  2.2545231932404635e+00  3.5687574242086200e+00  3.7585920649354070e+00  2.6596628919478684e+00  2.4135168842132400e+00  1.0014372833119149e+00  1.0002769430013596e+00  1.0002911412243016e+00  1.0002775328933766e+00  1.0003539436519870e+00  1.0004334895112508e+00  1.0004937929654794e+00  1.0006234712987518e+00  1.0006907092919346e+00  1.0008243931673868e+00  1.0010233942305984e+00  1.0011731247776563e+00  1.0019999467153922e+00  1.0016785219176996e+00  1.0024817245389737e+00  1.0141431446674709e+00  1.0920837185803722e+00  1.0274482583050577e+00  1.0002208553781538e+00  1.0002018892390276e+00  1.0001754466803536e+00  1.0001621116148653e+00  1.0001637770051346e+00  1.0001287288655627e+00  1.0001112132309378e+00  1.3519951077907444e+00  2.4793799821678641e+00  4.3799493143278418e+00  6.4994277455869840e+00  7.6464112207077761e+00  5.2407552678443787e+00  4.1045720835912354e+00  1.0003082972593127e+00  1.0003483904145338e+00  1.0002430415397292e+00  1.0002032939695213e+00  1.0001984238596728e+00  1.0001790701693380e+00  1.0001703908410706e+00  1.0001532497110015e+00  1.0001291170913638e+00  1.0001057520105230e+00  1.0003355567985297e+00  1.0004444900996985e+00  1.0005129088466418e+00  1.0005512228801143e+00  1.0009552839502653e+00  1.0012385165494573e+00  1.0015268126834467e+00  1.0023732869846744e+00  1.0022161550896516e+00  1.0028803837939642e+00  1.0206640509916887e+00  1.0452034476297518e+00  1.1563127480467117e+00  1.5672979462642740e+00  2.6225925230693572e+00  4.9092995851543355e+00  1.0004098591970514e+00  1.0003889493635016e+00  1.0003696637388888e+00  1.0003132013724161e+00  1.0002329819854514e+00  1.0002230668999028e+00  1.0001803525087076e+00  1.0001588734996534e+00  1.0001242481869645e+00  1.0001148880079684e+00  1.0001222935711649e+00  1.0001119031836527e+00  1.0005331713231274e+00  1.0005743971082324e+00  1.0006892829512020e+00  1.0010394018014082e+00  1.0013332112140032e+00  1.0031436662583026e+00  1.0016321095397829e+00  1.0018741549736923e+00  1.0579694991459467e+00  1.3371552092129093e+00  1.0889568129773861e+00  1.6199866906206126e+00  2.2797578333965203e+00  1.0004632422591537e+00  1.0006529550038663e+00  1.0006908734888804e+00  1.0009566715043703e+00  1.0015296214225489e+00  1.0022529451076057e+00  1.0034378580814585e+00  1.0067491121326366e+00  1.0040196330521596e+00  1.0031895054564097e+00  1.0142497060965816e+00  1.2244710151143143e+00  1.4812322956725894e+00  1.9188052897422907e+00  1.0005090969082056e+00  1.0004136711479341e+00  1.0003859682557921e+00  1.0003088777306446e+00  1.0002764895429626e+00  1.0002016726123828e+00  1.0001501976549383e+00  1.0001255163547444e+00  1.0000997161857537e+00  1.0001008068939263e+00  1.0000973962667103e+00  1.0001110375059501e+00  1.0001694711249787e+00  1.0007133976349221e+00  1.0007132361164495e+00  1.0010454995867626e+00  1.0020562304649330e+00  1.0023419785128957e+00  1.0053232225031234e+00  1.0090167338798983e+00  1.0041367241856847e+00  1.0903952092132605e+00  1.2713690139229614e+00  1.4235409402939359e+00  1.0006600490641999e+00  1.0004959974306955e+00  1.0004838473372097e+00  1.0003908796879768e+00  1.0003107789369194e+00  1.0002625007377792e+00  1.0002223237452659e+00  1.0001536697599340e+00  1.0001249492334496e+00  1.0001126379689904e+00  1.0000979944199064e+00  1.0000926819267346e+00  1.0001053356867780e+00  1.0000921830214440e+00  1.0007844096305756e+00  1.0007406582523724e+00  1.0006917134692459e+00  1.0005594146240335e+00  1.0005649540160266e+00  1.0004338866560130e+00  1.0002663934560558e+00  1.0001787511538311e+00  1.0001461473461910e+00  1.0001232699175109e+00  1.0001140984853885e+00  1.0001135332186917e+00  1.0001057726424942e+00  1.0000981411127841e+00  1.0000985148097656e+00  1.0016535527539385e+00  1.0025148208286956e+00  1.0029960613644924e+00  1.0051889271829106e+00  1.0070945233846618e+00  1.0117591244768311e+00  1.2355724874930769e+00  1.5963897983133806e+00  1.0763916285160029e+00  1.0008685683874805e+00  1.0009831775699480e+00  1.0008069686710144e+00  1.0006818339174384e+00  1.0006714856276178e+00  1.0006536768393555e+00  1.0003754862773273e+00  1.0002751764525788e+00  1.0001899711199327e+00  1.0001750943941976e+00  1.0001512643950659e+00  1.0001250767995182e+00  1.0000977217407834e+00  1.0000948424529343e+00  1.0000989827563167e+00  1.0001017306070663e+00  1.0000824828476764e+00  1.0000828905927230e+00  1.0001117713787033e+00  1.0017711221896739e+00  1.0022947115430090e+00  1.0035676996235738e+00  1.0046317184236064e+00  1.0068822008510392e+00  1.0030630973014276e+00  1.0992076295133484e+00  1.2850498174231324e+00  1.5903953306808234e+00  1.0007603768292246e+00  1.0006762407725374e+00  1.0005328392579533e+00  1.0005590477605024e+00  1.0003915816251026e+00  1.0002870084737123e+00  1.0002238541917281e+00  1.0001846200302287e+00  1.0001673015084089e+00  1.0001635725280855e+00  1.0001100242209200e+00  1.0000922780418413e+00  1.0000878601882468e+00  1.0000950008246343e+00  1.0001033010766804e+00  1.0000814811804075e+00  1.0000671263370806e+00  1.0012519553750026e+00  1.0014685275107420e+00  1.0021623221643294e+00  1.0051803273057542e+00  1.0067311415776619e+00  1.0056476448339027e+00  1.0535924504661711e+00  1.2225972632854365e+00  1.3771493424208261e+00  1.9393897286841502e+00  1.0008952193261640e+00  1.0007975501744371e+00  1.0010799834988280e+00  1.0013672145438575e+00  1.0020910385341069e+00  1.0049894321090727e+00  1.0066304932873813e+00  1.0220937500959821e+00  1.0793783738410738e+00  1.1432506880624047e+00  1.3603167816478106e+00  1.7462105948177613e+00  1.0006500119147987e+00  1.0004150513290728e+00  1.0004377741275523e+00  1.0004081485362926e+00  1.0003166920165467e+00  1.0002272883975853e+00  1.0002246806408650e+00  1.0001783993955553e+00  1.0001495601958719e+00  1.0001680585082704e+00  1.0001343222812058e+00  1.0001149355314372e+00  1.0001035632865856e+00  1.0000815425314136e+00  1.0000833706332903e+00  1.0000772939192806e+00  1.0000671370696901e+00  1.0000621025687699e+00  1.0001031139791015e+00  1.0009488335316217e+00  1.0009126555370300e+00  1.0005152803635722e+00  1.0003549465409862e+00  1.0003456362979755e+00  1.0002601450899835e+00  1.0001764273350331e+00  1.0001700759042293e+00  1.0001329702948649e+00  1.0001191651979955e+00  1.0001295036555127e+00  1.0001167147772727e+00  1.0001133508238838e+00  1.0000951608972271e+00  1.0000882952763623e+00  1.0000793809021062e+00  1.0000779425720472e+00  1.0000751608392602e+00  1.0000608160067133e+00  1.0000577232962169e+00  1.0011839834249354e+00  1.0012693597073365e+00  1.0015189965072102e+00  1.0020268486632207e+00  1.0032860112277164e+00  1.0050791418499518e+00  1.0074050185560131e+00  1.0084281324781981e+00  1.0088537485734086e+00  1.0651444975817512e+00  1.2570691556842484e+00  1.6811503351617290e+00  2.1366953360177261e+00  1.0006748414332833e+00  1.0007521590097672e+00  1.0009908375166978e+00  1.0011715638094563e+00  1.0018140875714958e+00  1.0021078756292709e+00  1.0024368260330252e+00  1.0058504400250654e+00  1.0087036378834902e+00  1.0072798409843671e+00  1.0049931391765439e+00  1.0097509982536348e+00  1.0629558615930086e+00  1.3036815942995563e+00  2.2157171537078009e+00  2.8751918305293356e+00  3.9223964750986418e+00  1.0003691207779624e+00  1.0004477440147743e+00  1.0003043381646717e+00  1.0002245366988074e+00  1.0001848903441271e+00  1.0001471853066828e+00  1.0001274874751325e+00  1.0001198032767764e+00  1.0001207965782331e+00  1.0001069543093959e+00  1.0001026435133933e+00  1.0000968886013284e+00  1.0000895505264507e+00  1.0000862192825308e+00  1.0000794118668921e+00  1.0000771718925932e+00  1.0000764022226867e+00  1.0000752077300592e+00  1.0000659897297268e+00  1.0000599562668735e+00  1.0004880655680526e+00  1.0006066155534041e+00  1.0007514837483511e+00  1.0007444293805807e+00  1.0008752191770134e+00  1.0014843919543970e+00  1.0013890394703588e+00  1.0017206144756161e+00  1.0026169553935285e+00  1.0044906093822330e+00  1.0051365442966771e+00  1.0032944833033013e+00  9.9125008624325905e-01  1.0513999681515640e+00  2.5810559030179907e+00  4.8210919329770485e+00  9.7447305650275613e+00  1.0003308527140575e+00  1.0002578690312904e+00  1.0002620326557079e+00  1.0001554045946397e+00  1.0001233323155856e+00  1.0001196102168943e+00  1.0001335189910947e+00  1.0001301684676378e+00  1.0001051933043401e+00  1.0001061859284783e+00  1.0000874662084127e+00  1.0000891551639599e+00  1.0000795217519463e+00  1.0000766173800180e+00  1.0000736219153930e+00  1.0000717491426250e+00  1.0000656363565941e+00  1.0004165024667173e+00  1.0003808452997487e+00  1.0004654094985994e+00  1.0005540334247884e+00  1.0005879831293434e+00  1.0005999503691079e+00  1.0007991335771969e+00  1.0009853331841814e+00  1.0012291013325783e+00  1.0017996965712119e+00  1.0033546102940250e+00  1.0048193175820961e+00  9.9860890193502849e-01  1.0116484376240655e+00  1.3678758992693105e+00  3.7066508194495933e+00  6.3783549441506713e+00  9.5991157607690329e+00  1.5098923976126464e+01  1.0003188626537418e+00  1.0002011986147110e+00  1.0001791679262304e+00  1.0001367797139089e+00  1.0001319534739843e+00  1.0001238289808405e+00  1.0001105909115542e+00  1.0000957695456771e+00  1.0000831435081770e+00  1.0000828524092353e+00  1.0000824787369964e+00  1.0000676399591948e+00  1.0000621437152988e+00  1.0000741989324922e+00  1.0000725286017444e+00  1.0003059516720121e+00  1.0004047303765715e+00  1.0004419577249657e+00  1.0004073879476314e+00  1.0003039777694465e+00  1.0002181495627682e+00  1.0002096468827812e+00  1.0002006746810836e+00  1.0001791886566844e+00  1.0001737161900368e+00  1.0001647585344595e+00  1.0001321624357697e+00  1.0001215257264908e+00  1.0001117962066637e+00  1.0001115884439049e+00  1.0000854809568398e+00  1.0000805551521637e+00  1.0000932167847592e+00  1.0000740643884314e+00  1.0000606935808818e+00  1.0000540141046141e+00  1.0000534410350241e+00  1.0000630410371194e+00  1.0004340510486898e+00  1.0004914380350147e+00  1.0004810674798843e+00  1.0005596888545507e+00  1.0005740313086759e+00  1.0006461411094434e+00  1.0008585692355163e+00  1.0010946957201146e+00  1.0015998773148227e+00  1.0027882216253863e+00  1.0003283183854577e+00  1.0008767491936883e+00  1.0022594567385767e+00  1.3074177750722344e+00  5.3207795527507811e+00  1.3255718926714575e+01  2.3190675418170567e+01  1.0000958015553507e+00  1.0003835264639602e+00  1.0002353554732444e+00  1.0001764198799257e+00  1.0001680295849225e+00  1.0001675116794462e+00  1.0001565910454597e+00  1.0001484825086338e+00  1.0001343318956288e+00  1.0001421430292141e+00  1.0001414178828614e+00  1.0001209068276127e+00  1.0001094502819028e+00  1.0000955955689421e+00  1.0000760572011047e+00  1.0000735665368492e+00  1.0000697048992384e+00  1.0000802351198357e+00  1.0000728863639949e+00  1.0000778142280407e+00  1.0000619537150925e+00  1.0000532370397293e+00  1.0000486011742691e+00  1.0000509335417997e+00  1.0003729232797243e+00  1.0003622387071940e+00  1.0003276916532604e+00  1.0004387263078387e+00  1.0004602153120015e+00  1.0005196517690462e+00  1.0006129949885807e+00  1.0007056959710376e+00  1.0009487866140752e+00  1.0008055354744185e+00  1.0016037654406296e+00  1.0010677834391486e+00  1.0022746777205993e+00  1.0153950128666156e+00  1.2851042861812243e+00  7.2688515254940249e+00  5.6970330328673402e+00  1.9521859308160447e+01  1.0002871901611119e+00  1.0002438101589106e+00  1.0003053651392193e+00  1.0002792134014002e+00  1.0002569670810526e+00  1.0003323995589246e+00  1.0004148872001111e+00  1