<?xml version="1.0"?>
<VTKFile type="UnstructuredGrid"  version="0.1"  >
<UnstructuredGrid>
<Piece  NumberOfPoints="29717" NumberOfCells="57888">
<Points>
<DataArray  type="Float64"  NumberOfComponents="3"  format="ascii">3 0.3378215821452335 0  2.833441594912761 0.3337663796510457 0  3 0.5329865384474093 0  2.661503918807094 0.3230078376141886 0  2.842489777594233 0.5274693327827005 0  3 0.7176341807104085 0  2.481388254524131 0.3085176726988411 0  2.675936639001904 0.5139049585028559 0  2.854783967522197 0.709567935044394 0  3 0.8839527516772595 0  2.292893218813257 0.2928932188132569 0  2.497472710738964 0.4974727107389642 0  2.692797973444407 0.6927979734444063 0  2.871431999438945 0.8714319994389447 0  3 1 0  2.308517672698841 0.4813882545241308 0  2.513904958502856 0.6759366390019039 0  2.709567935044394 0.854783967522197 0  2.883952751677259 1 0  3 1.116047248322741 0  3.128568000561055 1.128568000561055 0  3.116047248322741 1 0  2.323007837614188 0.6615039188070941 0  2.5274693327827 0.8424897775942335 0  2.717634180710409 1 0  2.871431999438945 1.128568000561055 0  3 1.282365819289591 0  3.145216032477803 1.290432064955606 0  3.307202026555593 1.307202026555594 0  3.290432064955606 1.145216032477803 0  3.282365819289591 1 0  2.333766379651045 0.8334415949127614 0  2.53298653844741 1 0  2.709567935044394 1.145216032477803 0  2.854783967522197 1.290432064955606 0  3 1.467013461552591 0  3.157510222405767 1.4725306672173 0  3.324063360998096 1.486095041497144 0  3.502527289261036 1.502527289261036 0  3.486095041497144 1.324063360998096 0  3.4725306672173 1.157510222405767 0  3.46701346155259 1 0  2.337821582145233 1 0  2.5274693327827 1.157510222405767 0  2.692797973444407 1.307202026555594 0  2.842489777594233 1.4725306672173 0  3 1.662178417854766 0  3.166558405087239 1.666233620348955 0  3.338496081192906 1.676992162385812 0  3.518611745475869 1.691482327301159 0  3.707106781186743 1.707106781186743 0  3.691482327301159 1.518611745475869 0  3.676992162385812 1.338496081192906 0  3.666233620348955 1.166558405087239 0  3.662178417854767 1 0  2.333766379651045 1.166558405087239 0  2.513904958502856 1.324063360998096 0  2.675936639001904 1.486095041497144 0  2.833441594912761 1.666233620348955 0  2.323007837614188 1.338496081192906 0  2.497472710738964 1.502527289261036 0  2.661503918807094 1.676992162385812 0  2.308517672698841 1.518611745475869 0  2.481388254524131 1.691482327301159 0  2.292893218813257 1.707106781186743 0  2 4.662178417854767 0  1.833441594912761 4.666233620348955 0  2 4.46701346155259 0  1.661503918807094 4.676992162385812 0  1.842489777594233 4.472530667217299 0  2 4.282365819289591 0  1.481388254524131 4.691482327301159 0  1.675936639001904 4.486095041497144 0  1.854783967522197 4.290432064955606 0  2 4.11604724832274 0  1.292893218813257 4.707106781186743 0  1.497472710738964 4.502527289261036 0  1.692797973444406 4.307202026555593 0  1.871431999438945 4.128568000561056 0  2 4 0  1.308517672698841 4.518611745475869 0  1.513904958502856 4.324063360998096 0  1.709567935044394 4.145216032477803 0  1.883952751677259 4 0  2 3.883952751677259 0  2.128568000561055 3.871431999438945 0  2.116047248322741 4 0  1.323007837614188 4.338496081192906 0  1.5274693327827 4.157510222405767 0  1.717634180710409 4 0  1.871431999438945 3.871431999438945 0  2 3.717634180710409 0  2.145216032477803 3.709567935044394 0  2.307202026555593 3.692797973444407 0  2.290432064955606 3.854783967522197 0  2.282365819289591 4 0  1.333766379651045 4.166558405087239 0  1.532986538447409 4 0  1.709567935044394 3.854783967522197 0  1.854783967522197 3.709567935044394 0  2 3.53298653844741 0  2.157510222405767 3.5274693327827 0  2.324063360998096 3.513904958502856 0  2.502527289261036 3.497472710738964 0  2.486095041497144 3.675936639001904 0  2.4725306672173 3.842489777594233 0  2.46701346155259 4 0  1.337821582145234 4 0  1.5274693327827 3.842489777594233 0  1.692797973444406 3.692797973444407 0  1.842489777594233 3.5274693327827 0  2 3.337821582145233 0  2.166558405087239 3.333766379651045 0  2.338496081192906 3.323007837614188 0  2.518611745475869 3.308517672698841 0  2.707106781186743 3.292893218813257 0  2.691482327301159 3.481388254524131 0  2.676992162385812 3.661503918807094 0  2.666233620348955 3.833441594912761 0  2.662178417854767 4 0  1.333766379651045 3.833441594912761 0  1.513904958502856 3.675936639001904 0  1.675936639001904 3.513904958502856 0  1.833441594912761 3.333766379651045 0  1.323007837614188 3.661503918807094 0  1.497472710738964 3.497472710738964 0  1.661503918807094 3.323007837614188 0  1.308517672698841 3.481388254524131 0  1.481388254524131 3.308517672698841 0  1.292893218813257 3.292893218813257 0  -6 5.662178417854767 0  -5.833441594912761 5.666233620348955 0  -6 5.46701346155259 0  -5.661503918807094 5.676992162385812 0  -5.842489777594234 5.472530667217299 0  -6 5.282365819289591 0  -5.481388254524131 5.691482327301159 0  -5.675936639001904 5.486095041497144 0  -5.854783967522197 5.290432064955606 0  -6 5.11604724832274 0  -5.292893218813257 5.707106781186743 0  -5.497472710738964 5.502527289261036 0  -5.692797973444407 5.307202026555593 0  -5.871431999438944 5.128568000561056 0  -6 5 0  -5.308517672698841 5.518611745475869 0  -5.513904958502856 5.324063360998096 0  -5.709567935044394 5.145216032477803 0  -5.88395275167726 5 0  -6 4.88395275167726 0  -6.128568000561056 4.871431999438944 0  -6.11604724832274 5 0  -5.323007837614188 5.338496081192906 0  -5.527469332782701 5.157510222405767 0  -5.717634180710409 5 0  -5.871431999438944 4.871431999438944 0  -6 4.717634180710409 0  -6.145216032477803 4.709567935044394 0  -6.307202026555593 4.692797973444407 0  -6.290432064955606 4.854783967522197 0  -6.282365819289591 5 0  -5.333766379651045 5.166558405087239 0  -5.53298653844741 5 0  -5.709567935044394 4.854783967522197 0  -5.854783967522197 4.709567935044394 0  -6 4.53298653844741 0  -6.157510222405766 4.527469332782701 0  -6.324063360998096 4.513904958502856 0  -6.502527289261036 4.497472710738964 0  -6.486095041497144 4.675936639001904 0  -6.472530667217299 4.842489777594234 0  -6.46701346155259 5 0  -5.337821582145233 5 0  -5.527469332782701 4.842489777594234 0  -5.692797973444407 4.692797973444407 0  -5.842489777594234 4.527469332782701 0  -6 4.337821582145233 0  -6.166558405087239 4.333766379651045 0  -6.338496081192906 4.323007837614188 0  -6.518611745475869 4.308517672698841 0  -6.707106781186743 4.292893218813257 0  -6.691482327301159 4.481388254524131 0  -6.676992162385812 4.661503918807094 0  -6.666233620348955 4.833441594912761 0  -6.662178417854767 5 0  -5.333766379651045 4.833441594912761 0  -5.513904958502856 4.675936639001904 0  -5.675936639001904 4.513904958502856 0  -5.833441594912761 4.333766379651045 0  -5.323007837614188 4.661503918807094 0  -5.497472710738964 4.497472710738964 0  -5.661503918807094 4.323007837614188 0  -5.308517672698841 4.481388254524131 0  -5.481388254524131 4.308517672698841 0  -5.292893218813257 4.292893218813257 0  -5 2.337821582145233 0  -4.833441594912761 2.333766379651045 0  -5 2.53298653844741 0  -4.661503918807094 2.323007837614189 0  -4.842489777594234 2.5274693327827 0  -5 2.717634180710409 0  -4.481388254524131 2.308517672698841 0  -4.675936639001904 2.513904958502856 0  -4.854783967522197 2.709567935044394 0  -5 2.883952751677259 0  -4.292893218813257 2.292893218813257 0  -4.497472710738964 2.497472710738964 0  -4.692797973444407 2.692797973444407 0  -4.871431999438944 2.871431999438945 0  -5 3 0  -4.308517672698841 2.481388254524131 0  -4.513904958502856 2.675936639001904 0  -4.709567935044394 2.854783967522197 0  -4.88395275167726 3 0  -5 3.116047248322741 0  -5.128568000561056 3.128568000561055 0  -5.11604724832274 3 0  -4.323007837614188 2.661503918807094 0  -4.527469332782701 2.842489777594233 0  -4.717634180710409 3 0  -4.871431999438944 3.128568000561055 0  -5 3.282365819289591 0  -5.145216032477803 3.290432064955606 0  -5.307202026555593 3.307202026555593 0  -5.290432064955606 3.145216032477803 0  -5.282365819289591 3 0  -4.333766379651045 2.833441594912761 0  -4.53298653844741 3 0  -4.709567935044394 3.145216032477803 0  -4.854783967522197 3.290432064955606 0  -5 3.46701346155259 0  -5.157510222405766 3.4725306672173 0  -5.324063360998096 3.486095041497144 0  -5.502527289261036 3.502527289261036 0  -5.486095041497144 3.324063360998096 0  -5.472530667217299 3.157510222405767 0  -5.46701346155259 3 0  -4.337821582145233 3 0  -4.527469332782701 3.157510222405767 0  -4.692797973444407 3.307202026555593 0  -4.842489777594234 3.4725306672173 0  -5 3.662178417854767 0  -5.166558405087239 3.666233620348955 0  -5.338496081192906 3.676992162385812 0  -5.518611745475869 3.691482327301159 0  -5.707106781186743 3.707106781186743 0  -5.691482327301159 3.518611745475869 0  -5.676992162385812 3.338496081192906 0  -5.666233620348955 3.166558405087239 0  -5.662178417854767 3 0  -4.333766379651045 3.166558405087239 0  -4.513904958502856 3.324063360998096 0  -4.675936639001904 3.486095041497144 0  -4.833441594912761 3.666233620348955 0  -4.323007837614188 3.338496081192906 0  -4.497472710738964 3.502527289261036 0  -4.661503918807094 3.676992162385812 0  -4.308517672698841 3.518611745475869 0  -4.481388254524131 3.691482327301159 0  -4.292893218813257 3.707106781186743 0  5 4 0  5 3.8125 0  4.853886151115923 4 0  5 3.625 0  4.80632430795117 3.775436298854279 0  4.707772302231846 4 0  4.79366141355045 3.578587735402333 0  4.673383251713283 3.680732660129706 0  4.561658453347769 3.792168701394072 0  4.56165845334777 4 0  5 3.4375 0  4.600014989010139 3.541027542505437 0  4.789717798409911 3.381371727615638 0  5 3.25 0  4.458472067662114 3.674611746363634 0  4.342487680021653 3.850039194045292 0  4.415544604463692 4 0  4.407847296295088 3.526611069368785 0  4.609194292726674 3.359404168011995 0  4.643840673849824 3.180879833384543 0  4.832283973092349 3.162038632311764 0  5 3.0625 0  4.302631777076505 3.688060601225307 0  4.165321303746107 3.81663748
[...]
<CellData  Scalars="f_6748"> 
<DataArray  type="Float64"  Name="f_6748"  format="ascii">2.3176589915263304e-01   2.3176589915263304e-01   2.3176589915244725e-01   2.3176589915281978e-01   2.3176589915263551e-01   2.3176589915244916e-01   2.3176589915263274e-01   2.3176589915244916e-01   2.3176589915263274e-01   2.3176589915244644e-01   2.3176589915263310e-01   2.3176589915263304e-01   2.3176589915244725e-01   2.3176589915281939e-01   2.3176589915263354e-01   2.3176589915263354e-01   2.3146832357512850e-01   2.3146832357493274e-01   2.3146832357493277e-01   2.3146832357493274e-01   2.3146832357512737e-01   2.3146832357493274e-01   2.3146832357512664e-01   2.3146832357493277e-01   2.3146832357493199e-01   2.3146832357493555e-01   2.3146832357512701e-01   2.3146832357512701e-01   2.3146832357473851e-01   2.3146832357512739e-01   2.3146832357512737e-01   2.3146832357512737e-01   2.3146832357493399e-01   2.3146832357493313e-01   2.3146832357512895e-01   2.3146832357493430e-01   2.3146832357512859e-01   2.3146832357493385e-01   2.3146832357493277e-01   2.3146832357493502e-01   2.3146832357493310e-01   2.3146832357512737e-01   2.3146832357512856e-01   2.3146832357512739e-01   2.3146832357512775e-01   2.3146832357473809e-01   2.3146832357493399e-01   2.3146832357493274e-01   2.3243958695832312e-01   2.3243958695850883e-01   2.3243958695850880e-01   2.3243958695832243e-01   2.3243958695850961e-01   2.3243958695850880e-01   2.3243958695851227e-01   2.3243958695850997e-01   2.3243958695869515e-01   2.3243958695850880e-01   2.3243958695850880e-01   2.3243958695832245e-01   2.3243958695850880e-01   2.3243958695832243e-01   2.3243958695850880e-01   2.3243958695850883e-01   2.1533742438635475e-01   1.9496236584794518e-01   2.1533742438654466e-01   1.9496236584777391e-01   1.9496236584777521e-01   2.1533742438635706e-01   1.9496236584777468e-01   2.1533742438635470e-01   2.1533742438654396e-01   1.9496236584777327e-01   2.1533742438635406e-01   1.9496236584777391e-01   1.9496236584768795e-01   2.1533742438635475e-01   1.9496236584785986e-01   2.1533742438635406e-01   2.3265130630370534e-01   2.3265130630370409e-01   2.3265130630370531e-01   2.3265130630392894e-01   2.3265130630392694e-01   2.3265130630392628e-01   2.3265130630392775e-01   2.3265130630370331e-01   2.3265130630370531e-01   2.3265130630392811e-01   2.3265130630370531e-01   2.3265130630392900e-01   2.3265130630392894e-01   2.3265130630370451e-01   2.3265130630392900e-01   2.3265130630370531e-01   2.2639948548994798e-01   2.2639948548994798e-01   2.2639948548994798e-01   2.2639948548994798e-01   2.2639948548975103e-01   2.2639948548994798e-01   2.2639948548994798e-01   2.2639948548994798e-01   2.2639948548994798e-01   2.2639948548994798e-01   2.2639948548994798e-01   2.2639948548994798e-01   2.2639948548994798e-01   2.2639948548994798e-01   2.2639948548975103e-01   2.2639948548994798e-01   2.2374072828278899e-01   1.8699925676071891e-01   2.2374072828278896e-01   1.8699925676071724e-01   1.8699925676071724e-01   2.2374072828278932e-01   1.8699925676071749e-01   2.2374072828259142e-01   2.2374072828278899e-01   1.8699925676071913e-01   2.2374072828278896e-01   1.8699925676071749e-01   1.8699925676055212e-01   2.2374072828259145e-01   1.8699925676055187e-01   2.2374072828298713e-01   2.1533742438635406e-01   1.9496236584811780e-01   2.1533742438635406e-01   1.9496236584760196e-01   1.9496236584794585e-01   2.1533742438635406e-01   1.9496236584794585e-01   2.1533742438616499e-01   2.1533742438635489e-01   1.9496236584777391e-01   2.1533742438635525e-01   1.9496236584777391e-01   1.9496236584794488e-01   2.1533742438635656e-01   1.9496236584777238e-01   2.1533742438635423e-01   2.2639948548975103e-01   2.2639948548975103e-01   2.2639948548994798e-01   2.2639948548975103e-01   2.2639948548975103e-01   2.2639948548994798e-01   2.2639948548975103e-01   2.2639948548975103e-01   2.2639948548994798e-01   2.2639948549014499e-01   2.2639948548994798e-01   2.2639948549014499e-01   2.2639948548975103e-01   2.2639948549014499e-01   2.2639948548994798e-01   2.2639948548994798e-01   2.3265130630370531e-01   2.3265130630392894e-01   2.3265130630392805e-01   2.3265130630370531e-01   2.3265130630370442e-01   2.3265130630370476e-01   2.3265130630370570e-01   2.3265130630370481e-01   2.3265130630392691e-01   2.3265130630348166e-01   2.3265130630370290e-01   2.3265130630415021e-01   2.3265130630370442e-01   2.3265130630392936e-01   2.3265130630370481e-01   2.3265130630392844e-01   2.2374072828298974e-01   1.8699925676055393e-01   2.2374072828279115e-01   1.8699925676088322e-01   1.8699925676071902e-01   2.2374072828259145e-01   1.8699925676071877e-01   2.2374072828278926e-01   2.2374072828298536e-01   1.8699925676071902e-01   2.2374072828258965e-01   1.8699925676071710e-01   1.8699925676071877e-01   2.2374072828278932e-01   1.8699925676071902e-01   2.2374072828278926e-01   2.3155311629447134e-01   2.3155311629427677e-01   2.3155311629427572e-01   2.3155311629447134e-01   2.3155311629427677e-01   2.3155311629427566e-01   2.3155311629447134e-01   2.3155311629447134e-01   2.3155311629447026e-01   2.3155311629427566e-01   2.3155311629427852e-01   2.3155311629447026e-01   2.3155311629427572e-01   2.3155311629427677e-01   2.3155311629427566e-01   2.3155311629447026e-01   2.3519918701499196e-01   2.3519918701520232e-01   2.3519918701520232e-01   2.3519918701520232e-01   2.3519918701520232e-01   2.3519918701541309e-01   2.3519918701541309e-01   2.3519918701520232e-01   2.3519918701520232e-01   2.3519918701520232e-01   2.3519918701541309e-01   2.3519918701520232e-01   2.3519918701520232e-01   2.3519918701541309e-01   2.3519918701541309e-01   2.3519918701520232e-01   2.3155311629447134e-01   2.3155311629447217e-01   2.3155311629466585e-01   2.3155311629427677e-01   2.3155311629427766e-01   2.3155311629446987e-01   2.3155311629447062e-01   2.3155311629427691e-01   2.3155311629427677e-01   2.3155311629466668e-01   2.3155311629427677e-01   2.3155311629427677e-01   2.3155311629427766e-01   2.3155311629427763e-01   2.3155311629427677e-01   2.3155311629466674e-01   2.3454034584083988e-01   2.3454034584084030e-01   2.3454034584084030e-01   2.3454034584084030e-01   2.3454034584084030e-01   2.3454034584062960e-01   2.3454034584084071e-01   2.3454034584084066e-01   2.3454034584084030e-01   2.3454034584062960e-01   2.3454034584062960e-01   2.3454034584084066e-01   2.3454034584062955e-01   2.3454034584084030e-01   2.3454034584062919e-01   2.3454034584084030e-01   2.0710678118663467e-01   2.0710678118619597e-01   2.0710678118663467e-01   2.0710678118663467e-01   2.0710678118663467e-01   2.0710678118619441e-01   2.0710678118707171e-01   2.0710678118619597e-01   2.0710678118663306e-01   2.0710678118663467e-01   2.0710678118663306e-01   2.0710678118663306e-01   2.0710678118619597e-01   2.0710678118663306e-01   2.0710678118663306e-01   2.0710678118663467e-01   2.1508454529586299e-01   1.8823595992409631e-01   2.1508454529586299e-01   1.8823595992409631e-01   1.8823595992409631e-01   2.1508454529586443e-01   1.8823595992409631e-01   2.1508454529586299e-01   2.1508454529557711e-01   1.8823595992409631e-01   2.1508454529586299e-01   1.8823595992409631e-01   1.8823595992434458e-01   2.1508454529557711e-01   1.8823595992409439e-01   2.1508454529586049e-01   2.1508454529557589e-01   1.8823595992409631e-01   2.1508454529557675e-01   1.8823595992409720e-01   1.8823595992409536e-01   2.1508454529557711e-01   1.8823595992409595e-01   2.1508454529557786e-01   2.1508454529557910e-01   1.8823595992409689e-01   2.1508454529557997e-01   1.8823595992409778e-01   1.8823595992434650e-01   2.1508454529557711e-01   1.8823595992409631e-01   2.1508454529586174e-01   2.3614758639081390e-01   2.3614758639080871e-01   2.3614758639081285e-01   2.3614758639122280e-01   2.3614758639081218e-01   2.3614758639081046e-01   2.3614758639040118e-01   2.3614758639081110e-01   2.3614758639081390e-01   2.3614758639081390e-01   2.3614758639081215e-01   2.3614758639122385e-01   2.3614758639080871e-01   2.3614758639080977e-01   2.3614758639081390e-01   2.3614758639080977e-01   2.0806632924771107e-01   1.9822388342903544e-01   2.0806632924809548e-01   1.9822388342903469e-01   1.9822388342903499e-01   2.0806632924771157e-01   1.9822388342903469e-01   2.0806632924809548e-01   2.0806632924790505e-01   1.9822388342903571e-01   2.0806632924809743e-01   1.9822388342866842e-01   1.9822388342903752e-01   2.0806632924809662e-01   1.9822388342903752e-01   2.0806632924790619e-01   2.3106366304390935e-01   2.3106366304368553e-01   2.3106366304368553e-01   2.3106366304368553e-01   2.3106366304390843e-01   2.3106366304368511e-01   2.3106366304413223e-01   2.3106366304368384e-01   2.3106366304368511e-01   2.3106366304390771e-01   2.3106366304391010e-01   2.3106366304368589e-01   2.3106366304390935e-01   2.3106366304390935e-01   2.3106366304390935e-01   2.3106366304368511e-01   2.0991831524744542e-01   1.9447635860596321e-01   2.0991831524766832e-01   1.9447635860617049e-01   1.9447635860596321e-01   2.0991831524744542e-01   1.9447635860596293e-01   2.0991831524766671e-01   2.0991831524744420e-01   1.9447635860616908e-01   2.0991831524766705e-01   1.9447635860596404e-01   1.9447635860575821e-01   2.0991831524744581e-01   1.9447635860617019e-01   2.0991831524744453e-01   2.2006446554344936e-01   1.9063682411363295e-01   2.2006446554301218e-01   1.9063682411363109e-01   1.9063682411363109e-01   2.2006446554344711e-01   1.9063682411363139e-01   2.2006446554322984e-01   2.2006446554344561e-01   1.9063682411344304e-01   2.2006446554344489e-01   1.9063682411344124e-01   1.9063682411363109e-01   2.2006446554344711e-01   1.9063682411325267e-01   2.2006446554344808e-01   2.0806632924790605e-01   1.9822388342894334e-01   2.0806632924790605e-01   1.9822388342885255e-01   1.9822388342903582e-01   2.0806632924809579e-01   1.9822388342903582e-01   2.0806632924809842e-01   2.0806632924799900e-01   1.9822388342894334e-01   2.0806632924790344e-01   1.9822388342903582e-01   1.9822388342894282e-01   2.0806632924799962e-01   1.9822388342903438e-01   2.0806632924790380e-01   2.0991831524766916e-01   1.9447635860596435e-01   2.0991831524744667e-01   1.9447635860596210e-01   1.9447635860596435e-01   2.0991831524766916e-01   1.9447635860596435e-01   2.0991831524744420e-01   2.0991831524722171e-01   1.9447635860617049e-01   2.0991831524744420e-01   1.9447635860596210e-01   1.9447635860596210e-01   2.0991831524744667e-01   1.9447635860596210e-01   2.0991831524744420e-01   2.3106366304368553e-01   2.3106366304390891e-01   2.3106366304368553e-01   2.3106366304368553e-01   2.3106366304390771e-01   2.3106366304390896e-01   2.3106366304368173e-01   2.3106366304390771e-01   2.3106366304368553e-01   2.3106366304390977e-01   2.3106366304390855e-01   2.3106366304368553e-01   2.3106366304390977e-01   2.3106366304390855e-01   2.3106366304413395e-01   2.3106366304390977e-01   2.2006446554344719e-01   1.9063682411363145e-01   2.2006446554344786e-01   1.9063682411363173e-01   1.9063682411344296e-01   2.2006446554344750e-01   1.9063682411363200e-01   2.2006446554344936e-01   2.2006446554344786e-01   1.9063682411363173e-01   2.2006446554344719e-01   1.9063682411344207e-01   1.9063682411363200e-01   2.2006446554344675e-01   1.9063682411363228e-01   2.2006446554344936e-01   2.2922542571829244e-01   2.2922542571801327e-01   2.2922542571829199e-01   2.2922542571829199e-01   2.2922542571829244e-01   2.2922542571829327e-01   2.2922542571829069e-01   2.2922542571829335e-01   2.2922542571829352e-01   2.2922542571829393e-01   2.2922542571857119e-01   2.2922542571801516e-01   2.2922542571829244e-01   2.2922542571829244e-01   2.2922542571801366e-01   2.2922542571829244e-01   2.3800920879528181e-01   2.3800920879502160e-01   2.3800920879528217e-01   2.3800920879528217e-01   2.3800920879502160e-01   2.3800920879528217e-01   2.3800920879502160e-01   2.3800920879528217e-01   2.3800920879502160e-01   2.3800920879502255e-01   2.3800920879528217e-01   2.3800920879528217e-01   2.3800920879528217e-01   2.3800920879528217e-01   2.3800920879528217e-01   2.3800920879528217e-01   2.2922542571857074e-01   2.2922542571829199e-01   2.2922542571801238e-01   2.2922542571829199e-01   2.2922542571801319e-01   2.2922542571829199e-01   2.2922542571829116e-01   2.2922542571857077e-01   2.2922542571829416e-01   2.2922542571801319e-01   2.2922542571829416e-01   2.2922542571829407e-01   2.2922542571829116e-01   2.2922542571829202e-01   2.2922542571801238e-01   2.2922542571829116e-01   2.3780434379722210e-01   2.3780434379696458e-01   2.3780434379696236e-01   2.3780434379696175e-01   2.3780434379670162e-01   2.3780434379696191e-01   2.3780434379696191e-01   2.3780434379696191e-01   2.3780434379696191e-01   2.3780434379696191e-01   2.3780434379670259e-01   2.3780434379670118e-01   2.3780434379696191e-01   2.3780434379696330e-01   2.3780434379696191e-01   2.3780434379696191e-01   2.0143595574141870e-01   2.0840654987920379e-01   2.0143595574150619e-01   2.0840654987920215e-01   2.0840654987920379e-01   2.0143595574159481e-01   2.0840654987920315e-01   2.0143595574150530e-01   2.0143595574150530e-01   2.0840654987920315e-01   2.0143595574141665e-01   2.0840654987920157e-01   2.0840654987920215e-01   2.0143595574150619e-01   2.0840654987911048e-01   2.0143595574150472e-01   1.9024543863443996e-01   2.2182651540568038e-01   1.9024543863443996e-01   2.2182651540577530e-01   2.2182651540558546e-01   1.9024543863443996e-01   2.2182651540568038e-01   1.9024543863444182e-01   1.9024543863443996e-01   2.2182651540568038e-01   1.9024543863443996e-01   2.2182651540568038e-01   2.2182651540577530e-01   1.9024543863435855e-01   2.2182651540568038e-01   1.9024543863435855e-01   1.9991202556723375e-01   2.0993805147804734e-01   1.9991202556723375e-01   2.0993805147794542e-01   2.0993805147794542e-01   1.9991202556713666e-01   2.0993805147784220e-01   1.9991202556723434e-01   1.9991202556723217e-01   2.0993805147784220e-01   1.9991202556723217e-01   2.0993805147794478e-01   2.0993805147784050e-01   1.9991202556723375e-01   2.0993805147794248e-01   1.9991202556723156e-01   1.9192278500081819e-01   2.1494260590133379e-01   1.9192278500072812e-01   2.1494260590133385e-01   2.1494260590123287e-01   1.9192278500081625e-01   2.1494260590133316e-01   1.9192278500063911e-01   1.9192278500072812e-01   2.1494260590143413e-01   1.9192278500063911e-01   2.1494260590133385e-01   2.1494260590113259e-01   1.9192278500081625e-01   2.1494260590133316e-01   1.9192278500072812e-01   2.3210186755623965e-01   2.3210186755619350e-01   2.3210186755619533e-01   2.3210186755624035e-01   2.3210186755624196e-01   1.8296385375398305e-01   2.3210186755619461e-01   1.8296385375387175e-01   2.3210186755624176e-01   2.3210186755619280e-01   2.3210186755614798e-01   2.3210186755619439e-01   2.3210186755619350e-01   1.8296385375394589e-01   2.3210186755619280e-01   1.8296385375394486e-01   2.3486888360679184e-01   2.3486888360679170e-01   2.3486888360679170e-01   2.3486888360689717e-01   2.3486888360689734e-01   1.8039228766412438e-01   2.3486888360689734e-01   1.8039228766412449e-01   2.3486888360689728e-01   2.3486888360689734e-01   2.3486888360679190e-01   2.3486888360679184e-01   2.3486888360689734e-01   1.8039228766412482e-01   2.3486888360679170e-01   1.8039228766404231e-01   2.2992518470119977e-01   2.2992518470119977e-01   2.2992518470120032e-01   2.2992518470119977e-01   2.2992518470119977e-01   1.8441595198958585e-01   2.2992518470119977e-01   1.8441595198958538e-01   2.2992518470120032e-01   2.2992518470129536e-01   2.2992518470120032e-01   2.2992518470120032e-01   2.2992518470115253e-01   1.8441595198958585e-01   2.2992518470120032e-01   1.8441595198962502e-01   2.3311825928516042e-01   2.3311825928516086e-01   2.3311825928516272e-01   2.3311825928516042e-01   2.3311825928516139e-01   1.8145563545211119e-01   2.3311825928516161e-01   1.8145563545211163e-01   2.3311825928516089e-01   2.3311825928516100e-01   2.3311825928516344e-01   2.3311825928516097e-01   2.3311825928516061e-01   1.8145563545211280e-01   2.3311825928521027e-01   1.8145563545211152e-01   1.9215208208107146e-01   2.2029878585808230e-01   1.9215208208107221e-01   2.2029878585850388e-01   2.2029878585808532e-01   1.9215208208070814e-01   2.2029878585808532e-01   1.9215208208107415e-01   1.9215208208107343e-01   2.2029878585850299e-01   1.9215208208070814e-01   2.2029878585850499e-01   2.2029878585808338e-01   1.9215208208107148e-01   2.2029878585829427e-01   1.9215208208089118e-01   1.9757069164100888e-01   2.1356222863820370e-01   1.9757069164100888e-01   2.1356222863845503e-01   2.1356222863845503e-01   1.9757069164100888e-01   2.1356222863820370e-01   1.9757069164124372e-01   1.9757069164100888e-01   2.1356222863820370e-01   1.9757069164100888e-01   2.1356222863820370e-01   2.1356222863820370e-01   1.9757069164100888e-01   2.1356222863820370e-01   1.9757069164112562e-01   2.3790668581004762e-01   2.3790668580978674e-01   2.3790668580978744e-01   2.3790668580991711e-01   2.3790668581005087e-01   1.7759233135597138e-01   2.3790668580992086e-01   1.7759233135597005e-01   2.3790668580991803e-01   2.3790668580991728e-01   2.3790668580991803e-01   2.3790668581004834e-01   2.3790668580991728e-01   1.7759233135596991e-01   2.3790668580991728e-01   1.7759233135606722e-01   1.7498304652445562e-01   2.3069429316072027e-01   1.7498304652445523e-01   2.3069429316040008e-01   2.3069429316072074e-01   1.7498304652445579e-01   2.3069429316040158e-01   1.7498304652445421e-01   1.7498304652457472e-01   2.3069429316055995e-01   1.7498304652457433e-01   2.3069429316039913e-01   2.3069429316039938e-01   1.7498304652445407e-01   2.3069429316039913e-01   1.7498304652445365e-01   2.2838354036110875e-01   2.2838354036110872e-01   2.2838354036110875e-01   2.2838354036110875e-01   2.2838354036110875e-01   1.8321915963813284e-01   2.2838354036110872e-01   1.8321915963813154e-01   2.2838354036110875e-01   2.2838354036110872e-01   2.2838354036110875e-01   2.2838354036121147e-01   2.2838354036121147e-01   1.8321915963813154e-01   2.2838354036110872e-01   1.8321915963813154e-01   2.3544453141688057e-01   2.3544453141664737e-01   2.3544453141664737e-01   2.3544453141676397e-01   2.3544453141664803e-01   1.7815244776611566e-01   2.3544453141699784e-01   1.7815244776620426e-01   2.3544453141676350e-01   2.3544453141688076e-01   2.3544453141676397e-01   2.3544453141676350e-01   2.3544453141676416e-01   1.7815244776611605e-01   2.3544453141676397e-01   1.7815244776611605e-01   1.8558707691020146e-01   2.1995321388150621e-01   1.8558707691030174e-01   2.1995321388150663e-01   2.1995321388162470e-01   1.8558707691020115e-01   2.1995321388150602e-01   1.8558707691010107e-01   1.8558707691020088e-01   2.1995321388138739e-01   1.8558707691020088e-01   2.1995321388150640e-01   2.1995321388162470e-01   1.8558707691019910e-01   2.1995321388150602e-01   1.8558707691020118e-01   2.2836827360756987e-01   2.2836827360756731e-01   2.2836827360756987e-01   2.2836827360767747e-01   2.2836827360767747e-01   1.8510290538368807e-01   2.2836827360746212e-01   1.8510290538368765e-01   2.2836827360756987e-01   2.2836827360756812e-01   2.2836827360756987e-01   2.2836827360756987e-01   2.2836827360756987e-01   1.8510290538368807e-01   2.2836827360746226e-01   1.8510290538368807e-01   2.0143595574150625e-01   2.0840654987911209e-01   2.0143595574150625e-01   2.0840654987915766e-01   2.0840654987920321e-01   2.0143595574150625e-01   2.0840654987920321e-01   2.0143595574146225e-01   2.0143595574150625e-01   2.0840654987915766e-01   2.0143595574146225e-01   2.0840654987915766e-01   2.0840654987915766e-01   2.0143595574150625e-01   2.0840654987911209e-01   2.0143595574150625e-01   1.9991202556723356e-01   2.0993805147794456e-01   1.9991202556713589e-01   2.0993805147794498e-01   2.0993805147784197e-01   1.9991202556723356e-01   2.0993805147794456e-01   1.9991202556723317e-01   1.9991202556713550e-01   2.0993805147794456e-01   1.9991202556713550e-01   2.0993805147784239e-01   2.0993805147