<?xml version="1.0"?>
<VTKFile type="UnstructuredGrid"  version="0.1"  >
<UnstructuredGrid>
<Piece  NumberOfPoints="27483" NumberOfCells="53456">
<Points>
<DataArray  type="Float64"  NumberOfComponents="3"  format="ascii">3 0.3578783626580142 0  2.837980074580334 0.3519202983213376 0  3 0.562360081589721 0  2.668095006086507 0.3361900121730148 0  2.851377214834756 0.5541316445042701 0  3 0.7513957619668947 0  2.486405553557287 0.3152074047430488 0  2.689313205761768 0.5339698086426523 0  2.869719245232929 0.7394384904658591 0  3 0.9113080676370099 0  2.292893218813248 0.2928932188132478 0  2.509760203133004 0.509760203133004 0  2.714421710057237 0.7144217100572372 0  2.89402123560811 0.8940212356081096 0  3 1 0  2.315207404743049 0.4864055535572865 0  2.533969808642652 0.6893132057617682 0  2.739438490465859 0.8697192452329295 0  2.91130806763701 1 0  3 1.08869193236299 0  3.10597876439189 1.10597876439189 0  3.08869193236299 1 0  2.336190012173015 0.6680950060865074 0  2.55413164450427 0.8513772148347567 0  2.751395761966895 1 0  2.89402123560811 1.10597876439189 0  3 1.248604238033105 0  3.130280754767071 1.260561509534141 0  3.285578289942763 1.285578289942763 0  3.260561509534141 1.130280754767071 0  3.248604238033105 1 0  2.351920298321338 0.8379800745803344 0  2.562360081589721 1 0  2.739438490465859 1.130280754767071 0  2.869719245232929 1.260561509534141 0  3 1.437639918410279 0  3.148622785165244 1.44586835549573 0  3.310686794238232 1.466030191357348 0  3.490239796866996 1.490239796866996 0  3.466030191357348 1.310686794238232 0  3.44586835549573 1.148622785165243 0  3.437639918410279 1 0  2.357878362658014 1 0  2.55413164450427 1.148622785165243 0  2.714421710057237 1.285578289942763 0  2.851377214834756 1.44586835549573 0  3 1.642121637341986 0  3.162019925419666 1.648079701678662 0  3.331904993913493 1.663809987826985 0  3.513594446442713 1.684792595256951 0  3.707106781186752 1.707106781186752 0  3.684792595256951 1.513594446442713 0  3.663809987826985 1.331904993913493 0  3.648079701678662 1.162019925419666 0  3.642121637341986 1 0  2.351920298321338 1.162019925419666 0  2.533969808642652 1.310686794238232 0  2.689313205761768 1.466030191357348 0  2.837980074580334 1.648079701678662 0  2.336190012173015 1.331904993913493 0  2.509760203133004 1.490239796866996 0  2.668095006086507 1.663809987826985 0  2.315207404743049 1.513594446442713 0  2.486405553557287 1.684792595256951 0  2.292893218813248 1.707106781186752 0  2 4.642121637341986 0  1.837980074580335 4.648079701678663 0  2 4.437639918410279 0  1.668095006086507 4.663809987826985 0  1.851377214834757 4.44586835549573 0  2 4.248604238033105 0  1.486405553557287 4.684792595256951 0  1.689313205761768 4.466030191357348 0  1.869719245232929 4.260561509534141 0  2 4.08869193236299 0  1.292893218813248 4.707106781186752 0  1.509760203133004 4.490239796866996 0  1.714421710057237 4.285578289942762 0  1.89402123560811 4.105978764391891 0  2 4 0  1.315207404743049 4.513594446442713 0  1.533969808642652 4.310686794238232 0  1.739438490465859 4.13028075476707 0  1.91130806763701 4 0  2 3.91130806763701 0  2.10597876439189 3.89402123560811 0  2.08869193236299 4 0  1.336190012173015 4.331904993913493 0  1.55413164450427 4.148622785165244 0  1.751395761966895 4 0  1.89402123560811 3.89402123560811 0  2 3.751395761966895 0  2.130280754767071 3.739438490465859 0  2.285578289942763 3.714421710057237 0  2.260561509534141 3.869719245232929 0  2.248604238033105 4 0  1.351920298321338 4.162019925419665 0  1.562360081589721 4 0  1.739438490465859 3.869719245232929 0  1.869719245232929 3.739438490465859 0  2 3.562360081589721 0  2.148622785165244 3.55413164450427 0  2.310686794238232 3.533969808642652 0  2.490239796866996 3.509760203133004 0  2.466030191357348 3.689313205761768 0  2.44586835549573 3.851377214834756 0  2.437639918410279 4 0  1.357878362658014 4 0  1.55413164450427 3.851377214834756 0  1.714421710057237 3.714421710057237 0  1.851377214834757 3.55413164450427 0  2 3.357878362658014 0  2.162019925419666 3.351920298321338 0  2.331904993913493 3.336190012173015 0  2.513594446442713 3.315207404743049 0  2.707106781186752 3.292893218813248 0  2.684792595256951 3.486405553557287 0  2.663809987826985 3.668095006086507 0  2.648079701678662 3.837980074580334 0  2.642121637341986 4 0  1.351920298321338 3.837980074580334 0  1.533969808642652 3.689313205761768 0  1.689313205761768 3.533969808642652 0  1.837980074580334 3.351920298321338 0  1.336190012173015 3.668095006086507 0  1.509760203133004 3.509760203133004 0  1.668095006086507 3.336190012173015 0  1.315207404743049 3.486405553557287 0  1.486405553557287 3.315207404743049 0  1.292893218813248 3.292893218813248 0  -6 5.642121637341986 0  -5.837980074580335 5.648079701678663 0  -6 5.437639918410279 0  -5.668095006086507 5.663809987826985 0  -5.851377214834756 5.44586835549573 0  -6 5.248604238033105 0  -5.486405553557287 5.684792595256951 0  -5.689313205761768 5.466030191357348 0  -5.86971924523293 5.260561509534141 0  -6 5.08869193236299 0  -5.292893218813248 5.707106781186752 0  -5.509760203133004 5.490239796866996 0  -5.714421710057238 5.285578289942762 0  -5.894021235608109 5.105978764391891 0  -6 5 0  -5.315207404743049 5.513594446442713 0  -5.533969808642652 5.310686794238232 0  -5.739438490465859 5.13028075476707 0  -5.91130806763701 5 0  -6 4.91130806763701 0  -6.105978764391891 4.894021235608109 0  -6.08869193236299 5 0  -5.336190012173015 5.331904993913493 0  -5.55413164450427 5.148622785165244 0  -5.751395761966895 5 0  -5.894021235608109 4.894021235608109 0  -6 4.751395761966895 0  -6.13028075476707 4.739438490465859 0  -6.285578289942762 4.714421710057238 0  -6.260561509534141 4.86971924523293 0  -6.248604238033105 5 0  -5.351920298321337 5.162019925419665 0  -5.562360081589721 5 0  -5.739438490465859 4.86971924523293 0  -5.86971924523293 4.739438490465859 0  -6 4.562360081589721 0  -6.148622785165244 4.55413164450427 0  -6.310686794238232 4.533969808642652 0  -6.490239796866996 4.509760203133004 0  -6.466030191357348 4.689313205761768 0  -6.44586835549573 4.851377214834756 0  -6.437639918410279 5 0  -5.357878362658014 5 0  -5.55413164450427 4.851377214834756 0  -5.714421710057238 4.714421710057238 0  -5.851377214834756 4.55413164450427 0  -6 4.357878362658014 0  -6.162019925419665 4.351920298321337 0  -6.331904993913493 4.336190012173015 0  -6.513594446442713 4.315207404743049 0  -6.707106781186752 4.292893218813248 0  -6.684792595256951 4.486405553557287 0  -6.663809987826985 4.668095006086507 0  -6.648079701678663 4.837980074580335 0  -6.642121637341986 5 0  -5.351920298321337 4.837980074580335 0  -5.533969808642652 4.689313205761768 0  -5.689313205761768 4.533969808642652 0  -5.837980074580335 4.351920298321337 0  -5.336190012173015 4.668095006086507 0  -5.509760203133004 4.509760203133004 0  -5.668095006086507 4.336190012173015 0  -5.315207404743049 4.486405553557287 0  -5.486405553557287 4.315207404743049 0  -5.292893218813248 4.292893218813248 0  -5 2.357878362658014 0  -4.837980074580335 2.351920298321338 0  -5 2.562360081589721 0  -4.668095006086507 2.336190012173015 0  -4.851377214834756 2.55413164450427 0  -5 2.751395761966895 0  -4.486405553557287 2.315207404743049 0  -4.689313205761768 2.533969808642652 0  -4.86971924523293 2.739438490465859 0  -5 2.91130806763701 0  -4.292893218813248 2.292893218813248 0  -4.509760203133004 2.509760203133004 0  -4.714421710057238 2.714421710057237 0  -4.894021235608109 2.89402123560811 0  -5 3 0  -4.315207404743049 2.486405553557287 0  -4.533969808642652 2.689313205761768 0  -4.739438490465859 2.869719245232929 0  -4.91130806763701 3 0  -5 3.08869193236299 0  -5.105978764391891 3.10597876439189 0  -5.08869193236299 3 0  -4.336190012173015 2.668095006086507 0  -4.55413164450427 2.851377214834756 0  -4.751395761966895 3 0  -4.894021235608109 3.10597876439189 0  -5 3.248604238033105 0  -5.13028075476707 3.260561509534141 0  -5.285578289942762 3.285578289942763 0  -5.260561509534141 3.130280754767071 0  -5.248604238033105 3 0  -4.351920298321337 2.837980074580334 0  -4.562360081589721 3 0  -4.739438490465859 3.130280754767071 0  -4.86971924523293 3.260561509534141 0  -5 3.437639918410279 0  -5.148622785165244 3.44586835549573 0  -5.310686794238232 3.466030191357348 0  -5.490239796866996 3.490239796866996 0  -5.466030191357348 3.310686794238232 0  -5.44586835549573 3.148622785165244 0  -5.437639918410279 3 0  -4.357878362658014 3 0  -4.55413164450427 3.148622785165244 0  -4.714421710057238 3.285578289942763 0  -4.851377214834756 3.44586835549573 0  -5 3.642121637341986 0  -5.162019925419665 3.648079701678662 0  -5.331904993913493 3.663809987826985 0  -5.513594446442713 3.684792595256951 0  -5.707106781186752 3.707106781186752 0  -5.684792595256951 3.513594446442713 0  -5.663809987826985 3.331904993913493 0  -5.648079701678663 3.162019925419666 0  -5.642121637341986 3 0  -4.351920298321337 3.162019925419666 0  -4.533969808642652 3.310686794238232 0  -4.689313205761768 3.466030191357348 0  -4.837980074580335 3.648079701678662 0  -4.336190012173015 3.331904993913493 0  -4.509760203133004 3.490239796866996 0  -4.668095006086507 3.663809987826985 0  -4.315207404743049 3.513594446442713 0  -4.486405553557287 3.684792595256951 0  -4.292893218813248 3.707106781186752 0  5 1 0  5 1.1875 0  4.830265204667748 1 0  4.77562324865802 1.192679506345228 0  4.787911267192283 1.348081986778286 0  5 1.375 0  4.660530409335497 1 0  4.633059348939607 1.366021042988467 0  4.541978946488643 1.175143747516595 0  4.490795614003245 1 0  4.795362838541691 1.50379133270418 0  5 1.5625 0  4.359954284754179 1.282832206312045 0  4.321060818670993 1 0  4.457676687866868 1.451904123929002 0  4.607881543291101 1.536622050583134 0  4.689532883909252 1.688515711625484 0  4.856235702683054 1.661343413014644 0  5 1.75 0  4.238111322001059 1.40000554689391 0  4.378421381089813 1.630379830243528 0  4.52610451519947 1.664149318775792 0  4.505222861494965 1.814198120819483 0  4.659530852044655
[...]
<CellData  Scalars="f_6991"> 
<DataArray  type="Float64"  Name="f_6991"  format="ascii">2.4158999046743163e-01   2.4158999046761775e-01   2.4158999046761775e-01   2.4158999046761775e-01   2.4158999046761775e-01   2.4158999046761775e-01   2.4158999046761775e-01   2.4158999046761775e-01   2.4158999046780363e-01   2.4158999046780363e-01   2.4158999046761775e-01   2.4158999046761775e-01   2.4158999046743193e-01   2.4158999046780363e-01   2.4158999046780363e-01   2.4158999046761775e-01   2.4173052930208916e-01   2.4173052930189207e-01   2.4173052930208916e-01   2.4173052930208916e-01   2.4173052930208916e-01   2.4173052930208916e-01   2.4173052930208916e-01   2.4173052930208916e-01   2.4173052930208916e-01   2.4173052930189168e-01   2.4173052930209002e-01   2.4173052930208880e-01   2.4173052930208916e-01   2.4173052930189207e-01   2.4173052930208916e-01   2.4173052930208916e-01   2.4173052930189332e-01   2.4173052930228506e-01   2.4173052930189251e-01   2.4173052930208960e-01   2.4173052930189332e-01   2.4173052930208669e-01   2.4173052930208960e-01   2.4173052930208960e-01   2.4173052930208797e-01   2.4173052930228583e-01   2.4173052930209041e-01   2.4173052930189165e-01   2.4173052930208797e-01   2.4173052930228583e-01   2.4173052930209041e-01   2.4173052930228583e-01   2.4303065569842161e-01   2.4303065569842197e-01   2.4303065569842197e-01   2.4303065569823681e-01   2.4303065569860713e-01   2.4303065569842197e-01   2.4303065569842197e-01   2.4303065569842197e-01   2.4303065569842197e-01   2.4303065569842197e-01   2.4303065569823681e-01   2.4303065569842197e-01   2.4303065569842197e-01   2.4303065569842197e-01   2.4303065569842197e-01   2.4303065569823681e-01   2.1729446139369910e-01   1.8847088024789485e-01   2.1729446139388872e-01   1.8847088024773231e-01   1.8847088024756706e-01   2.1729446139388808e-01   1.8847088024773145e-01   2.1729446139388911e-01   2.1729446139389158e-01   1.8847088024773145e-01   2.1729446139398564e-01   1.8847088024789674e-01   1.8847088024773256e-01   2.1729446139398392e-01   1.8847088024765063e-01   2.1729446139388975e-01   2.4501565759492572e-01   2.4501565759516800e-01   2.4501565759468338e-01   2.4501565759492572e-01   2.4501565759492572e-01   2.4501565759492785e-01   2.4501565759516888e-01   2.4501565759468427e-01   2.4501565759516800e-01   2.4501565759492661e-01   2.4501565759492661e-01   2.4501565759468427e-01   2.4501565759516888e-01   2.4501565759492572e-01   2.4501565759492572e-01   2.4501565759492572e-01   2.3410746889800441e-01   2.3410746889780401e-01   2.3410746889800402e-01   2.3410746889800402e-01   2.3410746889800402e-01   2.3410746889800366e-01   2.3410746889800627e-01   2.3410746889780365e-01   2.3410746889780401e-01   2.3410746889800441e-01   2.3410746889800441e-01   2.3410746889820441e-01   2.3410746889800441e-01   2.3410746889800402e-01   2.3410746889800402e-01   2.3410746889800402e-01   2.3007811576348045e-01   1.7673164830404237e-01   2.3007811576348122e-01   1.7673164830404339e-01   1.7673164830404209e-01   2.3007811576348300e-01   1.7673164830419666e-01   2.3007811576348300e-01   2.3007811576348558e-01   1.7673164830419713e-01   2.3007811576348552e-01   1.7673164830404381e-01   1.7673164830419835e-01   2.3007811576368417e-01   1.7673164830404381e-01   2.3007811576348552e-01   2.1729446139388733e-01   1.8847088024789435e-01   2.1729446139388697e-01   1.8847088024773095e-01   1.8847088024773287e-01   2.1729446139370065e-01   1.8847088024773240e-01   2.1729446139369898e-01   2.1729446139407710e-01   1.8847088024789513e-01   2.1729446139407710e-01   1.8847088024773068e-01   1.8847088024789349e-01   2.1729446139370115e-01   1.8847088024756545e-01   2.1729446139388733e-01   2.3410746889820441e-01   2.3410746889800441e-01   2.3410746889800535e-01   2.3410746889780440e-01   2.3410746889780440e-01   2.3410746889800366e-01   2.3410746889800460e-01   2.3410746889820366e-01   2.3410746889780534e-01   2.3410746889780365e-01   2.3410746889780454e-01   2.3410746889780454e-01   2.3410746889780454e-01   2.3410746889800441e-01   2.3410746889800535e-01   2.3410746889800535e-01   2.4501565759492827e-01   2.4501565759468480e-01   2.4501565759492744e-01   2.4501565759492744e-01   2.4501565759517110e-01   2.4501565759492572e-01   2.4501565759492744e-01   2.4501565759492744e-01   2.4501565759541177e-01   2.4501565759541213e-01   2.4501565759492613e-01   2.4501565759492758e-01   2.4501565759468480e-01   2.4501565759492847e-01   2.4501565759492877e-01   2.4501565759517074e-01   2.3007811576368417e-01   1.7673164830435206e-01   2.3007811576348300e-01   1.7673164830404423e-01   1.7673164830389054e-01   2.3007811576368531e-01   1.7673164830404484e-01   2.3007811576368659e-01   2.3007811576348300e-01   1.7673164830388821e-01   2.3007811576348300e-01   1.7673164830404398e-01   1.7673164830388854e-01   2.3007811576348375e-01   1.7673164830435267e-01   2.3007811576348500e-01   2.4221058806396606e-01   2.4221058806396567e-01   2.4221058806377022e-01   2.4221058806376897e-01   2.4221058806396692e-01   2.4221058806396567e-01   2.4221058806396606e-01   2.4221058806396692e-01   2.4221058806396567e-01   2.4221058806396692e-01   2.4221058806396606e-01   2.4221058806376936e-01   2.4221058806396567e-01   2.4221058806396606e-01   2.4221058806396692e-01   2.4221058806376936e-01   2.4886279655780844e-01   2.4886279655780758e-01   2.4886279655780705e-01   2.4886279655802909e-01   2.4886279655780574e-01   2.4886279655780705e-01   2.4886279655802726e-01   2.4886279655802726e-01   2.4886279655780980e-01   2.4886279655803048e-01   2.4886279655780574e-01   2.4886279655780894e-01   2.4886279655780705e-01   2.4886279655780844e-01   2.4886279655780791e-01   2.4886279655802940e-01   2.4221058806377216e-01   2.4221058806376980e-01   2.4221058806416401e-01   2.4221058806396886e-01   2.4221058806396487e-01   2.4221058806396650e-01   2.4221058806396401e-01   2.4221058806396487e-01   2.4221058806376816e-01   2.4221058806377060e-01   2.4221058806376816e-01   2.4221058806396487e-01   2.4221058806377216e-01   2.4221058806377060e-01   2.4221058806376980e-01   2.4221058806416557e-01   2.4754460310231671e-01   2.4754460310231630e-01   2.4754460310231630e-01   2.4754460310231630e-01   2.4754460310253987e-01   2.4754460310231671e-01   2.4754460310231802e-01   2.4754460310231802e-01   2.4754460310253856e-01   2.4754460310253942e-01   2.4754460310232035e-01   2.4754460310231716e-01   2.4754460310231671e-01   2.4754460310253856e-01   2.4754460310253856e-01   2.4754460310253856e-01   2.0710678118705980e-01   2.0710678118631565e-01   2.0710678118631151e-01   2.0710678118631151e-01   2.0710678118706191e-01   2.0710678118631151e-01   2.0710678118631359e-01   2.0710678118631767e-01   2.0710678118631565e-01   2.0710678118631565e-01   2.0710678118705980e-01   2.0710678118706394e-01   2.0710678118631565e-01   2.0710678118706394e-01   2.0710678118631151e-01   2.0710678118631565e-01   2.1433724460166698e-01   1.7325080630999867e-01   2.1433724460166698e-01   1.7325080631028919e-01   1.7325080630999867e-01   2.1433724460166698e-01   1.7325080630999867e-01   2.1433724460130751e-01   2.1433724460130751e-01   1.7325080630999867e-01   2.1433724460166698e-01   1.7325080631028919e-01   1.7325080631000042e-01   2.1433724460166698e-01   1.7325080631000042e-01   2.1433724460131018e-01   2.1433724460130643e-01   1.7325080631029016e-01   2.1433724460130643e-01   1.7325080631029016e-01   1.7325080631028825e-01   2.1433724460130774e-01   1.7325080630999767e-01   2.1433724460130871e-01   2.1433724460166589e-01   1.7325080630999959e-01   2.1433724460166589e-01   1.7325080631029016e-01   1.7325080631000159e-01   2.1433724460166687e-01   1.7325080631000214e-01   2.1433724460130968e-01   2.5621688830699479e-01   2.5621688830766337e-01   2.5621688830699718e-01   2.5621688830699402e-01   2.5621688830766332e-01   2.5621688830699235e-01   2.5621688830766171e-01   2.5621688830699557e-01   2.5621688830699807e-01   2.5621688830699235e-01   2.5621688830699879e-01   2.5621688830766487e-01   2.5621688830699235e-01   2.5621688830766559e-01   2.5621688830766254e-01   2.5621688830699313e-01   2.0591677569667866e-01   1.9111207277220485e-01   2.0591677569706349e-01   1.9111207277238451e-01   1.9111207277238382e-01   2.0591677569706465e-01   1.9111207277238382e-01   2.0591677569706651e-01   2.0591677569687475e-01   1.9111207277238382e-01   2.0591677569687475e-01   1.9111207277238473e-01   1.9111207277220602e-01   2.0591677569706465e-01   1.9111207277220602e-01   2.0591677569706732e-01   2.4230499143096099e-01   2.4230499143096315e-01   2.4230499143096232e-01   2.4230499143096057e-01   2.4230499143096487e-01   2.4230499143096487e-01   2.4230499143096232e-01   2.4230499143096487e-01   2.4230499143096232e-01   2.4230499143096232e-01   2.4230499143096376e-01   2.4230499143096232e-01   2.4230499143096232e-01   2.4230499143096232e-01   2.4230499143071912e-01   2.4230499143120551e-01   2.0756797526196835e-01   1.8380807706997013e-01   2.0756797526196835e-01   1.8380807707018229e-01   1.8380807706997013e-01   2.0756797526172882e-01   1.8380807706997015e-01   2.0756797526196835e-01   2.0756797526196835e-01   1.8380807706997015e-01   2.0756797526172882e-01   1.8380807706997015e-01   1.8380807706997015e-01   2.0756797526173085e-01   1.8380807706997015e-01   2.0756797526196835e-01   2.2452535097351195e-01   1.8141839819259667e-01   2.2452535097327897e-01   1.8141839819278416e-01   1.8141839819240765e-01   2.2452535097327858e-01   1.8141839819278491e-01   2.2452535097327858e-01   2.2452535097304735e-01   1.8141839819278463e-01   2.2452535097328033e-01   1.8141839819278491e-01   1.8141839819259789e-01   2.2452535097327933e-01   1.8141839819278638e-01   2.2452535097328150e-01   2.0591677569687378e-01   1.9111207277220518e-01   2.0591677569668121e-01   1.9111207277229456e-01   1.9111207277220754e-01   2.0591677569687378e-01   1.9111207277220751e-01   2.0591677569687308e-01   2.0591677569687378e-01   1.9111207277220518e-01   2.0591677569687378e-01   1.9111207277211581e-01   1.9111207277238393e-01   2.0591677569687378e-01   1.9111207277220518e-01   2.0591677569687378e-01   2.0756797526172979e-01   1.8380807706996843e-01   2.0756797526172979e-01   1.8380807706997099e-01   1.8380807706997099e-01   2.0756797526172882e-01   1.8380807706997099e-01   2.0756797526196935e-01   2.0756797526172882e-01   1.8380807706996791e-01   2.0756797526196835e-01   1.8380807706997099e-01   1.8380807707007618e-01   2.0756797526184859e-01   1.8380807706997015e-01   2.0756797526172979e-01   2.4230499143096276e-01   2.4230499143120593e-01   2.4230499143096276e-01   2.4230499143096276e-01   2.4230499143120771e-01   2.4230499143071957e-01   2.4230499143096401e-01   2.4230499143096401e-01   2.4230499143120682e-01   2.4230499143096276e-01   2.4230499143096276e-01   2.4230499143096276e-01   2.4230499143096276e-01   2.4230499143096365e-01   2.4230499143096365e-01   2.4230499143096368e-01   2.2452535097327966e-01   1.8141839819278369e-01   2.2452535097328000e-01   1.8141839819278516e-01   1.8141839819278396e-01   2.2452535097327922e-01   1.8141839819278369e-01   2.2452535097327858e-01   2.2452535097327922e-01   1.8141839819278369e-01   2.2452535097304738e-01   1.8141839819278566e-01   1.8141839819278396e-01   2.2452535097327966e-01   1.8141839819278369e-01   2.2452535097327858e-01   2.4022357587658336e-01   2.4022357587692439e-01   2.4022357587692628e-01   2.4022357587658230e-01   2.4022357587658336e-01   2.4022357587623641e-01   2.4022357587658230e-01   2.4022357587658230e-01   2.4022357587658044e-01   2.4022357587658036e-01   2.4022357587658036e-01   2.4022357587623644e-01   2.4022357587692444e-01   2.4022357587658144e-01   2.4022357587658336e-01   2.4022357587658144e-01   2.5559387975640302e-01   2.5559387975640407e-01   2.5559387975609477e-01   2.5559387975609477e-01   2.5559387975609377e-01   2.5559387975609377e-01   2.5559387975609377e-01   2.5559387975609377e-01   2.5559387975640635e-01   2.5559387975609654e-01   2.5559387975640196e-01   2.5559387975640580e-01   2.5559387975609377e-01   2.5559387975640302e-01   2.5559387975578451e-01   2.5559387975609377e-01   2.4022357587623464e-01   2.4022357587623611e-01   2.4022357587657867e-01   2.4022357587692258e-01   2.4022357587657922e-01   2.4022357587623366e-01   2.4022357587658122e-01   2.4022357587657767e-01   2.4022357587692761e-01   2.4022357587692461e-01   2.4022357587623874e-01   2.4022357587692816e-01   2.4022357587658008e-01   2.4022357587658061e-01   2.4022357587657922e-01   2.4022357587658061e-01   2.5440205275635880e-01   2.5440205275604905e-01   2.5440205275636318e-01   2.5440205275604905e-01   2.5440205275604966e-01   2.5440205275635985e-01   2.5440205275604966e-01   2.5440205275635991e-01   2.5440205275604855e-01   2.5440205275604905e-01   2.5440205275605293e-01   2.5440205275604905e-01   2.5440205275605293e-01   2.5440205275635880e-01   2.5440205275636268e-01   2.5440205275605243e-01   1.9731843744660055e-01   2.0757591630702982e-01   1.9731843744651589e-01   2.0757591630711886e-01   2.0757591630711886e-01   1.9731843744651589e-01   2.0757591630711886e-01   1.9731843744668515e-01   1.9731843744668515e-01   2.0757591630694081e-01   1.9731843744660055e-01   2.0757591630702982e-01   2.0757591630703187e-01   1.9731843744659944e-01   2.0757591630712091e-01   1.9731843744660055e-01   1.8220308931658608e-01   2.2741268236088860e-01   1.8220308931666201e-01   2.2741268236079154e-01   2.2741268236088844e-01   1.8220308931658619e-01   2.2741268236088860e-01   1.8220308931658466e-01   1.8220308931658308e-01   2.2741268236079323e-01   1.8220308931665841e-01   2.2741268236079085e-01   2.2741268236069676e-01   1.8220308931658433e-01   2.2741268236079154e-01   1.8220308931666052e-01   1.9448990852126163e-01   2.0987937169877408e-01   1.9448990852116327e-01   2.0987937169877188e-01   2.0987937169866572e-01   1.9448990852116207e-01   2.0987937169877188e-01   1.9448990852096432e-01   1.9448990852116044e-01   2.0987937169877341e-01   1.9448990852135664e-01   2.0987937169866505e-01   2.0987937169877235e-01   1.9448990852116149e-01   2.0987937169877235e-01   1.9448990852116160e-01   1.8270188132671997e-01   2.1536483993019873e-01   1.8270188132663318e-01   2.1536483993019687e-01   2.1536483993019895e-01   1.8270188132671847e-01   2.1536483993040331e-01   1.8270188132671861e-01   1.8270188132663073e-01   2.1536483993040265e-01   1.8270188132654355e-01   2.1536483993040081e-01   2.1536483993019692e-01   1.8270188132671797e-01   2.1536483993029859e-01   1.8270188132663023e-01   2.4230545075011725e-01   2.4230545075011711e-01   2.4230545075016349e-01   2.4230545075016349e-01   2.4230545075021001e-01   1.7357091523885637e-01   2.4230545075016363e-01   1.7357091523888965e-01   2.4230545075011725e-01   2.4230545075016349e-01   2.4230545075016349e-01   2.4230545075011717e-01   2.4230545075011725e-01   1.7357091523888965e-01   2.4230545075021001e-01   1.7357091523888957e-01   2.4819912347308909e-01   2.4819912347319978e-01   2.4819912347308884e-01   2.4819912347319978e-01   2.4819912347309175e-01   1.6826567042676685e-01   2.4819912347297998e-01   1.6826567042676616e-01   2.4819912347320000e-01   2.4819912347319978e-01   2.4819912347308884e-01   2.4819912347308884e-01   2.4819912347308909e-01   1.6826567042676546e-01   2.4819912347308909e-01   1.6826567042676577e-01   2.3951546100355159e-01   2.3951546100364687e-01   2.3951546100364729e-01   2.3951546100374321e-01   2.3951546100364712e-01   1.7486531730217594e-01   2.3951546100364712e-01   1.7486531730217603e-01   2.3951546100364707e-01   2.3951546100364712e-01   2.3951546100364748e-01   2.3951546100374299e-01   2.3951546100364712e-01   1.7486531730210600e-01   2.3951546100374305e-01   1.7486531730210592e-01   2.4447543637184307e-01   2.4447543637184346e-01   2.4447543637184307e-01   2.4447543637184307e-01   2.4447543637184307e-01   1.7051043741061883e-01   2.4447543637184302e-01   1.7051043741054844e-01   2.4447543637179245e-01   2.4447543637174238e-01   2.4447543637184285e-01   2.4447543637179228e-01   2.4447543637184327e-01   1.7051043741061897e-01   2.4447543637184319e-01   1.7051043741061897e-01   1.8128354576891914e-01   2.2711656928479279e-01   1.8128354576946809e-01   2.2711656928479160e-01   2.2711656928479304e-01   1.8128354576892067e-01   2.2711656928479304e-01   1.8128354576837100e-01   1.8128354576892300e-01   2.2711656928479421e-01   1.8128354576892300e-01   2.2711656928479304e-01   2.2711656928479421e-01   1.8128354576837483e-01   2.2711656928479279e-01   1.8128354576864508e-01   1.9075608403936295e-01   2.1660927809278904e-01   1.9075608403988342e-01   2.1660927809279190e-01   2.1660927809249353e-01   1.9075608403936295e-01   2.1660927809249353e-01   1.9075608403988342e-01   1.9075608403936295e-01   2.1660927809278904e-01   1.9075608403949307e-01   2.1660927809249550e-01   2.1660927809249422e-01   1.9075608403962369e-01   2.1660927809249422e-01   1.9075608403936295e-01   2.5499368759561053e-01   2.5499368759576491e-01   2.5499368759560975e-01   2.5499368759545565e-01   2.5499368759560942e-01   1.6225216816454693e-01   2.5499368759591989e-01   1.6225216816444926e-01   2.5499368759561053e-01   2.5499368759560975e-01   2.5499368759561003e-01   2.5499368759576541e-01   2.5499368759561053e-01   1.6225216816454702e-01   2.5499368759561158e-01   1.6225216816454835e-01   1.5434782522439833e-01   2.3587171160610965e-01   1.5434782522467255e-01   2.3587171160589560e-01   2.3587171160547585e-01   1.5434782522494742e-01   2.3587171160631581e-01   1.5434782522494753e-01   1.5434782522467344e-01   2.3587171160568879e-01   1.5434782522453555e-01   2.3587171160610582e-01   2.3587171160610557e-01   1.5434782522453516e-01   2.3587171160589582e-01   1.5434782522467297e-01   2.3689809226603675e-01   2.3689809226593064e-01   2.3689809226593089e-01   2.3689809226593025e-01   2.3689809226624689e-01   1.7165150556000841e-01   2.3689809226592839e-01   1.7165150556008699e-01   2.3689809226603672e-01   2.3689809226603734e-01   2.3689809226593070e-01   2.3689809226603675e-01   2.3689809226603770e-01   1.7165150556024034e-01   2.3689809226603750e-01   1.7165150556008579e-01   2.4918169728959250e-01   2.4918169728933717e-01   2.4918169728959469e-01   2.4918169728933401e-01   2.4918169728946857e-01   1.6346770076683173e-01   2.4918169728946765e-01   1.6346770076691569e-01   2.4918169728946324e-01   2.4918169728959469e-01   2.4918169728959569e-01   2.4918169728946324e-01   2.4918169728959250e-01   1.6346770076683143e-01   2.4918169728946324e-01   1.6346770076683051e-01   1.7172653043065081e-01   2.2150196172634062e-01   1.7172653043044667e-01   2.2150196172607450e-01   2.2150196172634062e-01   1.7172653043054692e-01   2.2150196172634082e-01   1.7172653043044483e-01   1.7172653043074931e-01   2.2150196172633985e-01   1.7172653043064690e-01   2.2150196172633682e-01   2.2150196172620903e-01   1.7172653043044445e-01   2.2150196172634082e-01   1.7172653043054720e-01   2.3834398605225057e-01   2.3834398605236207e-01   2.3834398605236284e-01   2.3834398605213641e-01   2.3834398605213042e-01   1.7413842952353614e-01   2.3834398605224544e-01   1.7413842952362096e-01   2.3834398605213641e-01   2.3834398605213444e-01   2.3834398605224785e-01   2.3834398605225057e-01   2.3834398605225124e-01   1.7413842952362013e-01   2.3834398605213683e-01   1.7413842952362149e-01   1.9731843744660027e-01   2.0757591630707495e-01   1.9731843744660027e-01   2.0757591630703043e-01   2.0757591630694147e-01   1.9731843744668484e-01   2.0757591630703068e-01   1.9731843744660055e-01   1.9731843744668490e-01   2.0757591630711947e-01   1.9731843744660027e-01   2.0757591630703043e-01   2.0757591630707309e-01   1.9731843744660027e-01   2.0757591630707309e-01   1.9731843744664088e-01   1.9448990852116116e-01   2.0987937169877210e-01   1.9448990852116116e-01   2.0987937169877419e-01   2.0987937169877210e-01   1.9448990852116116e-01   2.0987937169877210e-01   1.9448990852116291e-01   1.9448990852116294e-01   2.0987937169866594e-01   1.9448990852116291e-01   2.0987937169877419e-01   2.0987937169