<?xml version="1.0"?>
<VTKFile type="UnstructuredGrid"  version="0.1"  >
<UnstructuredGrid>
<Piece  NumberOfPoints="1244" NumberOfCells="2155">
<Points>
<DataArray  type="Float64"  NumberOfComponents="3"  format="ascii">3 0.4505813909508334 0  2.858706694155233 0.4348267766209324 0  3 0.7083486900555757 0  2.697160447111943 0.3943208942238857 0  2.895262666184017 0.6857879985520519 0  3 0.9065018226950635 0  2.507383127572992 0.3431775034306555 0  2.753392185228413 0.6300882778426198 0  2.941422924974046 0.8828458499480929 0  3 0.990182154601809 0  2.292893218813706 0.292893218813706 0  2.565213330712254 0.565213330712254 0  2.822205042701531 0.8222050427015308 0  2.978182683361986 0.9781826833619861 0  3 1 0  2.343177503430655 0.5073831275729916 0  2.63008827784262 0.7533921852284131 0  2.882845849948093 0.9414229249740464 0  2.990182154601809 1 0  3 1.009817845398191 0  3.021817316638014 1.021817316638014 0  3.009817845398191 1 0  2.394320894223886 0.6971604471119428 0  2.685787998552052 0.8952626661840173 0  2.906501822695064 1 0  2.978182683361986 1.021817316638014 0  3 1.093498177304937 0  3.058577075025954 1.117154150051907 0  3.177794957298469 1.177794957298469 0  3.117154150051907 1.058577075025954 0  3.093498177304936 1 0  2.434826776620932 0.858706694155233 0  2.708348690055576 1 0  2.882845849948093 1.058577075025954 0  2.941422924974046 1.117154150051907 0  3 1.291651309944424 0  3.104737333815983 1.314212001447948 0  3.246607814771587 1.36991172215738 0  3.434786669287746 1.434786669287746 0  3.36991172215738 1.246607814771587 0  3.314212001447948 1.104737333815983 0  3.291651309944424 1 0  2.450581390950833 1 0  2.685787998552052 1.104737333815983 0  2.822205042701531 1.177794957298469 0  2.895262666184017 1.314212001447948 0  3 1.549418609049167 0  3.141293305844767 1.565173223379068 0  3.302839552888057 1.605679105776114 0  3.492616872427008 1.656822496569345 0  3.707106781186294 1.707106781186294 0  3.656822496569345 1.492616872427008 0  3.605679105776114 1.302839552888057 0  3.565173223379068 1.141293305844767 0  3.549418609049167 1 0  2.434826776620932 1.141293305844767 0  2.63008827784262 1.246607814771587 0  2.753392185228413 1.36991172215738 0  2.858706694155233 1.565173223379068 0  2.394320894223886 1.302839552888057 0  2.565213330712254 1.434786669287746 0  2.697160447111943 1.605679105776114 0  2.343177503430655 1.492616872427008 0  2.507383127572992 1.656822496569345 0  2.292893218813706 1.707106781186294 0  2 4.549418609049167 0  1.858706694155233 4.565173223379068 0  2 4.291651309944425 0  1.697160447111943 4.605679105776114 0  1.895262666184017 4.314212001447948 0  2 4.093498177304936 0  1.507383127572992 4.656822496569345 0  1.753392185228413 4.36991172215738 0  1.941422924974046 4.117154150051907 0  2 4.009817845398191 0  1.292893218813706 4.707106781186294 0  1.565213330712254 4.434786669287746 0  1.822205042701531 4.177794957298469 0  1.978182683361986 4.021817316638014 0  2 4 0  1.343177503430655 4.492616872427009 0  1.63008827784262 4.246607814771587 0  1.882845849948093 4.058577075025953 0  1.990182154601809 4 0  2 3.990182154601809 0  2.021817316638014 3.978182683361986 0  2.009817845398191 4 0  1.394320894223886 4.302839552888058 0  1.685787998552052 4.104737333815983 0  1.906501822695063 4 0  1.978182683361986 3.978182683361986 0  2 3.906501822695064 0  2.058577075025954 3.882845849948093 0  2.177794957298469 3.822205042701531 0  2.117154150051907 3.941422924974046 0  2.093498177304936 4 0  1.434826776620932 4.141293305844767 0  1.708348690055576 4 0  1.882845849948093 3.941422924974046 0  1.941422924974046 3.882845849948093 0  2 3.708348690055576 0  2.104737333815983 3.685787998552052 0  2.246607814771587 3.63008827784262 0  2.434786669287746 3.565213330712254 0  2.36991172215738 3.753392185228413 0  2.314212001447948 3.895262666184017 0  2.291651309944424 4 0  1.450581390950833 4 0  1.685787998552052 3.895262666184017 0  1.822205042701531 3.822205042701531 0  1.895262666184017 3.685787998552052 0  2 3.450581390950833 0  2.141293305844767 3.434826776620932 0  2.302839552888057 3.394320894223886 0  2.492616872427008 3.343177503430655 0  2.707106781186294 3.292893218813706 0  2.656822496569345 3.507383127572992 0  2.605679105776114 3.697160447111943 0  2.565173223379068 3.858706694155233 0  2.549418609049167 4 0  1.434826776620932 3.858706694155233 0  1.63008827784262 3.753392185228413 0  1.753392185228413 3.63008827784262 0  1.858706694155233 3.434826776620932 0  1.394320894223886 3.697160447111943 0  1.565213330712254 3.565213330712254 0  1.697160447111943 3.394320894223886 0  1.343177503430655 3.507383127572992 0  1.507383127572992 3.343177503430655 0  1.292893218813706 3.292893218813706 0  -6 5.549418609049167 0  -5.858706694155233 5.565173223379068 0  -6 5.291651309944425 0  -5.697160447111943 5.605679105776114 0  -5.895262666184017 5.314212001447948 0  -6 5.093498177304936 0  -5.507383127572992 5.656822496569345 0  -5.753392185228413 5.36991172215738 0  -5.941422924974047 5.117154150051907 0  -6 5.009817845398191 0  -5.292893218813706 5.707106781186294 0  -5.565213330712254 5.434786669287746 0  -5.822205042701531 5.177794957298469 0  -5.978182683361986 5.021817316638014 0  -6 5 0  -5.343177503430655 5.492616872427009 0  -5.63008827784262 5.246607814771587 0  -5.882845849948093 5.058577075025953 0  -5.990182154601809 5 0  -6 4.990182154601809 0  -6.021817316638014 4.978182683361986 0  -6.009817845398191 5 0  -5.394320894223886 5.302839552888058 0  -5.685787998552052 5.104737333815983 0  -5.906501822695064 5 0  -5.978182683361986 4.978182683361986 0  -6 4.906501822695064 0  -6.058577075025953 4.882845849948093 0  -6.177794957298469 4.822205042701531 0  -6.117154150051907 4.941422924974047 0  -6.093498177304936 5 0  -5.434826776620932 5.141293305844767 0  -5.708348690055575 5 0  -5.882845849948093 4.941422924974047 0  -5.941422924974047 4.882845849948093 0  -6 4.708348690055575 0  -6.104737333815983 4.685787998552052 0  -6.246607814771587 4.63008827784262 0  -6.434786669287746 4.565213330712254 0  -6.36991172215738 4.753392185228413 0  -6.314212001447948 4.895262666184017 0  -6.291651309944425 5 0  -5.450581390950833 5 0  -5.685787998552052 4.895262666184017 0  -5.822205042701531 4.822205042701531 0  -5.895262666184017 4.685787998552052 0  -6 4.450581390950833 0  -6.141293305844767 4.434826776620932 0  -6.302839552888058 4.394320894223886 0  -6.492616872427009 4.343177503430655 0  -6.707106781186294 4.292893218813706 0  -6.656822496569345 4.507383127572991 0  -6.605679105776114 4.697160447111942 0  -6.565173223379068 4.858706694155233 0  -6.549418609049167 5 0  -5.434826776620932 4.858706694155233 0  -5.63008827784262 4.753392185228413 0  -5.753392185228413 4.63008827784262 0  -5.858706694155233 4.434826776620932 0  -5.394320894223886 4.697160447111942 0  -5.565213330712254 4.565213330712254 0  -5.697160447111942 4.394320894223886 0  -5.343177503430655 4.507383127572991 0  -5.507383127572991 4.343177503430655 0  -5.292893218813706 4.292893218813706 0  -5 2.450581390950833 0  -4.858706694155233 2.434826776620932 0  -5 2.708348690055576 0  -4.697160447111943 2.394320894223886 0  -4.895262666184017 2.685787998552052 0  -5 2.906501822695064 0  -4.507383127572992 2.343177503430655 0  -4.753392185228413 2.63008827784262 0  -4.941422924974047 2.882845849948093 0  -5 2.990182154601809 0  -4.292893218813706 2.292893218813706 0  -4.565213330712254 2.565213330712254 0  -4.822205042701531 2.822205042701531 0  -4.978182683361986 2.978182683361986 0  -5 3 0  -4.343177503430655 2.507383127572992 0  -4.63008827784262 2.753392185228413 0  -4.882845849948093 2.941422924974046 0  -4.990182154601809 3 0  -5 3.009817845398191 0  -5.021817316638014 3.021817316638014 0  -5.009817845398191 3 0  -4.394320894223886 2.697160447111943 0  -4.685787998552052 2.895262666184017 0  -4.906501822695064 3 0  -4.978182683361986 3.021817316638014 0  -5 3.093498177304936 0  -5.058577075025953 3.117154150051907 0  -5.177794957298469 3.177794957298469 0  -5.117154150051907 3.058577075025954 0  -5.093498177304936 3 0  -4.434826776620932 2.858706694155233 0  -4.708348690055575 3 0  -4.882845849948093 3.058577075025954 0  -4.941422924974047 3.117154150051907 0  -5 3.291651309944424 0  -5.104737333815983 3.314212001447948 0  -5.246607814771587 3.36991172215738 0  -5.434786669287746 3.434786669287746 0  -5.36991172215738 3.246607814771587 0  -5.314212001447948 3.104737333815983 0  -5.291651309944425 3 0  -4.450581390950833 3 0  -4.685787998552052 3.104737333815983 0  -4.822205042701531 3.177794957298469 0  -4.895262666184017 3.314212001447948 0  -5 3.549418609049167 0  -5.141293305844767 3.565173223379068 0  -5.302839552888058 3.605679105776114 0  -5.492616872427009 3.656822496569345 0  -5.707106781186294 3.707106781186294 0  -5.656822496569345 3.492616872427008 0  -5.605679105776114 3.302839552888057 0  -5.565173223379068 3.141293305844767 0  -5.549418609049167 3 0  -4.434826776620932 3.141293305844767 0  -4.63008827784262 3.246607814771587 0  -4.753392185228413 3.36991172215738 0  -4.858706694155233 3.565173223379068 0  -4.394320894223886 3.302839552888057 0  -4.565213330712254 3.434786669287746 0  -4.697160447111942 3.605679105776114 0  -4.343177503430655 3.492616872427008 0  -4.507383127572991 3.656822496569345 0  -4.292893218813706 3.707106781186294 0  5 1 0  5 1.1875 0  4.825709888222015 1.037854944111007 0  4.786264867164171 1.260115678616865 0  4.651419776444029 1.075709888222014 0  5 1.375 0  4.644818160953175 1.436037744007759 0  4.465641823823532 1.303565771594816 0  4.302839552888058 1.151419776444029 0  5 1.5625 0  4.421294993849391 1.718733939153952 0  4.746742394938785 1.678619710993132 0  5 1.75 0  4.296598959349347 1.448746669899425 0  4.128549441110072 1.189274720555036 0  4.699672700402207 1.9375 0  5 2.125 0  4.410658553323315 2.018768213700664 0  4.267130272717368 1.863474356104607 0  4.220399009241286 1.64772992213087 0  4.023462850188271 1.566385491943431 0  4.078391068383893 1.3784946945315
[...]
<CellData  Scalars="f_7592"> 
<DataArray  type="Float64"  Name="f_7592"  format="ascii">2.7826189034692134e-01   2.6602490513633564e-01   2.6602490513632387e-01   2.8634458167900623e-01   2.0739851194864017e-01   2.2451572225106978e-01   2.3422044794671404e-01   2.1080684838285826e-01   2.0739851194864037e-01   2.3422044794670241e-01   2.2451572225106972e-01   2.1080684838284752e-01   2.5556930958750979e-01   2.7065505232288645e-01   2.5556930958752083e-01   2.7382726676604718e-01   2.0710678118728049e-01   1.1889069361816303e-01   1.1889069361804794e-01   2.0937862223135334e-01   1.6828536429606908e-01   2.0828340337450868e-01   1.3151767176168383e-01   1.9617442784582731e-01   1.6828536429608015e-01   1.3151767176168358e-01   2.0828340337449139e-01   1.9617442784580996e-01   1.9204538888940381e-01   2.2482799833575054e-01   1.9204538888947631e-01   2.6368234712113808e-01   1.6714256154622414e-01   1.4346576258660537e-01   1.5457079413547445e-01   1.2369059271695991e-01   1.3907706230607292e-01   1.1374097726304025e-01   1.3561326371794305e-01   1.2478007031203679e-01   1.0587298100175659e-01   1.4894584885003537e-01   9.0730763654562299e-02   5.3749469658828354e-02   1.1512708817790522e-01   9.1074607867358548e-02   8.3902007960662717e-02   1.2030220533845334e-01   1.6714256154622445e-01   1.5457079413547420e-01   1.4346576258659915e-01   1.2369059271696009e-01   1.0587298100175653e-01   9.0730763654562258e-02   1.4894584885003534e-01   5.3749469658770074e-02   1.3907706230607295e-01   1.3561326371794313e-01   1.1374097726304022e-01   1.2478007031203828e-01   8.3902007960676844e-02   9.1074607867358576e-02   1.1512708817790550e-01   1.2030220533845766e-01   1.6714256154622822e-01   1.5457079413548755e-01   1.4346576258660887e-01   1.2369059271695991e-01   1.0587298100175603e-01   9.0730763654571139e-02   1.4894584885003531e-01   5.3749469658711836e-02   1.3907706230608086e-01   1.3561326371794022e-01   1.1374097726304022e-01   1.2478007031203391e-01   8.3902007960676886e-02   9.1074607867358576e-02   1.1512708817790546e-01   1.2030220533845765e-01   1.6714256154622006e-01   1.4346576258660212e-01   1.5457079413548769e-01   1.2369059271695994e-01   1.3907706230606978e-01   1.1374097726304025e-01   1.3561326371794594e-01   1.2478007031203388e-01   1.0587298100175603e-01   1.4894584885003537e-01   9.0730763654553542e-02   5.3749469658770095e-02   1.1512708817790522e-01   9.1074607867358562e-02   8.3902007960662717e-02   1.2030220533845755e-01   2.7826189034690996e-01   2.6602490513633592e-01   2.6602490513633564e-01   2.8634458167901727e-01   2.0739851194866149e-01   2.2451572225110378e-01   2.3422044794671404e-01   2.1080684838286984e-01   2.0739851194864017e-01   2.3422044794669081e-01   2.2451572225106978e-01   2.1080684838286939e-01   2.5556930958750967e-01   2.7065505232290132e-01   2.5556930958753205e-01   2.7382726676604718e-01   2.0710678118728049e-01   1.1889069361804794e-01   1.1889069361804736e-01   2.0937862223023310e-01   1.6828536429608015e-01   2.0828340337450926e-01   1.3151767176170370e-01   1.9617442784580996e-01   1.6828536429605800e-01   1.3151767176170392e-01   2.0828340337450868e-01   1.9617442784577396e-01   1.9204538888954861e-01   2.2482799833571263e-01   1.9204538888940381e-01   2.6368234712107758e-01   1.6714256154622795e-01   1.4346576258660870e-01   1.5457079413546107e-01   1.2369059271695977e-01   1.3907706230608133e-01   1.1374097726304025e-01   1.3561326371793445e-01   1.2478007031204562e-01   1.0587298100263404e-01   1.4894584884998191e-01   9.0730763654535820e-02   5.3749469658828514e-02   1.1512708817791874e-01   9.1074607867358257e-02   8.3902007960676941e-02   1.2030220533844041e-01   1.6714256154621226e-01   1.5457079413548758e-01   1.4346576258659557e-01   1.2369059271697737e-01   1.0587298100087841e-01   9.0730763654571181e-02   1.4894584884998044e-01   5.3749469658711531e-02   1.3907706230607020e-01   1.3561326371794594e-01   1.1374097726302752e-01   1.2478007031204554e-01   8.3902007960648436e-02   9.1074607867358548e-02   1.1512708817790522e-01   1.2030220533845755e-01   1.6714256154622822e-01   1.5457079413546101e-01   1.4346576258659566e-01   1.2369059271695988e-01   1.0587298100263404e-01   9.0730763654535765e-02   1.4894584884998138e-01   5.3749469658944865e-02   1.3907706230606981e-01   1.3561326371793433e-01   1.1374097726304032e-01   1.2478007031203378e-01   8.3902007960676914e-02   9.1074607867358603e-02   1.1512708817791883e-01   1.2030220533845769e-01   1.6714256154621190e-01   1.4346576258658261e-01   1.5457079413548749e-01   1.2369059271695988e-01   1.3907706230606978e-01   1.1374097726304032e-01   1.3561326371793433e-01   1.2478007031204544e-01   1.0587298100087802e-01   1.4894584884998138e-01   9.0730763654606333e-02   5.3749469658711836e-02   1.1512708817791883e-01   9.1074607867341312e-02   8.3902007960676914e-02   1.2030220533847451e-01   2.7826189034683196e-01   2.6602490513635962e-01   2.6602490513635962e-01   2.8634458167899574e-01   2.0739851194863990e-01   2.2451572225100166e-01   2.3422044794676053e-01   2.1080684838280242e-01   2.0739851194863990e-01   2.3422044794666758e-01   2.2451572225100166e-01   2.1080684838280242e-01   2.5556930958759910e-01   2.7065505232296144e-01   2.5556930958742075e-01   2.7382726676611063e-01   2.0710678117966577e-01   1.1889069361735280e-01   1.1889069361827824e-01   2.0937862223471299e-01   1.6828536429608057e-01   2.0828340337447301e-01   1.3151767176182411e-01   1.9617442784570291e-01   1.6828536429608054e-01   1.3151767176166310e-01   2.0828340337447301e-01   1.9617442784570291e-01   1.9204538888954936e-01   2.2482799833578651e-01   1.9204538888954936e-01   2.6368234712131977e-01   1.6714256154626095e-01   1.4346576258658247e-01   1.5457079413551389e-01   1.2369059271692545e-01   1.3907706230602607e-01   1.1374097726306587e-01   1.3561326371796886e-01   1.2478007031202218e-01   1.0587298099912242e-01   1.4894584885019696e-01   9.0730763654535709e-02   5.3749469659177762e-02   1.1512708817791864e-01   9.1074607867289201e-02   8.3902007960762526e-02   1.2030220533847411e-01   1.6714256154619628e-01   1.5457079413551389e-01   1.4346576258663496e-01   1.2369059271692574e-01   1.0587298099912240e-01   9.0730763654535709e-02   1.4894584884976514e-01   5.3749469658711690e-02   1.3907706230607014e-01   1.3561326371792320e-01   1.1374097726301485e-01   1.2478007031202247e-01   8.3902007960648436e-02   9.1074607867358298e-02   1.1512708817791892e-01   1.2030220533840677e-01   1.6714256154626095e-01   1.5457079413551389e-01   1.4346576258658247e-01   1.2369059271699448e-01   1.0587298100614645e-01   9.0730763654535723e-02   1.4894584885019696e-01   5.3749469658245633e-02   1.3907706230607025e-01   1.3561326371792284e-01   1.1374097726306587e-01   1.2478007031202218e-01   8.3902007960648436e-02   9.1074607867358284e-02   1.1512708817791865e-01   1.2030220533840677e-01   1.6714256154619572e-01   1.4346576258658247e-01   1.5457079413551389e-01   1.2369059271706352e-01   1.3907706230607025e-01   1.1374097726306587e-01   1.3561326371792284e-01   1.2478007031202218e-01   1.0587298099912242e-01   1.4894584885019696e-01   9.0730763654535709e-02   5.3749469658711690e-02   1.1512708817786468e-01   9.1074607867358284e-02   8.3902007960648436e-02   1.2030220533847411e-01   2.7826189034687654e-01   2.6602490513635974e-01   2.6602490513635962e-01   2.8634458167899535e-01   2.0739851194868228e-01   2.2451572225113828e-01   2.3422044794671404e-01   2.1080684838284722e-01   2.0739851194868214e-01   2.3422044794676053e-01   2.2451572225106978e-01   2.1080684838284705e-01   2.5556930958755425e-01   2.7065505232284182e-01   2.5556930958755453e-01   2.7382726676604729e-01   2.0710678119492337e-01   1.1889069361827929e-01   1.1889069361827824e-01   2.0937862223023168e-01   1.6828536429608010e-01   2.0828340337447301e-01   1.3151767176166365e-01   1.9617442784584530e-01   1.6828536429603622e-01   1.3151767176166290e-01   2.0828340337454490e-01   1.9617442784584527e-01   1.9204538888925995e-01   2.2482799833563535e-01   1.9204538888954861e-01   2.6368234712131949e-01   1.6714256154622859e-01   1.4346576258658261e-01   1.5457079413551389e-01   1.2369059271696009e-01   1.3907706230609229e-01   1.1374097726304032e-01   1.3561326371794585e-01   1.2478007031204544e-01   1.0587298100263444e-01   1.4894584884998044e-01   9.0730763654606333e-02   5.3749469658944560e-02   1.1512708817791883e-01   9.1074607867358603e-02   8.3902007960705433e-02   1.2030220533847451e-01   1.6714256154622845e-01   1.5457079413540814e-01   1.4346576258660887e-01   1.2369059271692545e-01   1.0587298100263404e-01   9.0730763654535709e-02   1.4894584884998199e-01   5.3749469658711996e-02   1.3907706230607014e-01   1.3561326371794619e-01   1.1374097726304036e-01   1.2478007031204578e-01   8.3902007960705488e-02   9.1074607867392840e-02   1.1512708817789194e-01   1.2030220533844042e-01   1.6714256154622795e-01   1.5457079413551394e-01   1.4346576258658247e-01   1.2369059271692522e-01   1.0587298099912201e-01   9.0730763654535723e-02   1.4894584884998199e-01   5.3749469658711996e-02   1.3907706230607006e-01   1.3561326371792284e-01   1.1374097726304036e-01   1.2478007031202218e-01   8.3902007960648436e-02   9.1074607867323729e-02   1.1512708817786468e-01   1.2030220533847411e-01   1.6714256154622859e-01   1.4346576258658261e-01   1.5457079413546096e-01   1.2369059271699459e-01   1.3907706230609204e-01   1.1374097726301481e-01   1.3561326371796886e-01   1.2478007031206874e-01   1.0587298100263444e-01   1.4894584885019635e-01   9.0730763654606333e-02   5.3749469658711531e-02   1.1512708817791883e-01   9.1074607867358603e-02   8.3902007960648381e-02   1.2030220533844084e-01   2.6368006863297111e-01   2.4297600794184709e-01   2.0889748236742339e-01   2.5117127984368259e-01   2.0907595857498343e-01   2.4503313587336498e-01   2.2442832605745111e-01   2.2112633426410075e-01   2.8184959737275023e-01   2.6740355305515717e-01   2.3127441008511376e-01   2.5104851912886611e-01   2.2408672317069264e-01   2.6737910630907730e-01   2.4022125500351890e-01   2.2041338008327729e-01   2.1354348326033734e-01   2.5229215295540475e-01   2.2177527408912748e-01   2.5678935320693336e-01   2.2041338008327752e-01   2.6074027603449118e-01   2.6840614767398713e-01   2.0352836799829419e-01   2.3617958072899195e-01   1.9365156076964024e-01   2.7987379071995028e-01   2.4995437871450940e-01   2.8428891731021572e-01   2.3490350231325982e-01   2.3260476762753596e-01   2.1024818232566719e-01   2.3065321317841472e-01   2.6599974574069535e-01   2.4368445821021731e-01   2.0230403449014192e-01   2.2041338008328276e-01   2.3405971407094864e-01   2.3527202704626440e-01   2.2231347194632833e-01   1.9586349445578272e-01   2.4205698347309279e-01   2.1687890179093763e-01   2.6908841993406313e-01   2.2976091671500218e-01   1.8296859087344752e-01   2.1156680323280944e-01   2.0585980314586144e-01   2.5836235231506421e-01   2.6022616649141889e-01   2.0364184125035323e-01   2.5632194062281011e-01   1.8103096110134922e-01   2.0945346507307089e-01   2.2726859159753213e-01   2.6781807948161590e-01   2.6553726476245526e-01   2.6415913273591063e-01   1.8513667829108918e-01   1.8531542884382543e-01   2.5492853741657123e-01   2.1604181739213585e-01   2.0837537092419869e-01   2.4629411320353078e-01   2.3008940644960968e-01   2.1272218909854940e-01   2.6303300824600007e-01   2.8469331048360469e-01   2.5148390461136827e-01   2.3769743578488911e-01   1.9651018609448390e-01   2.2744690771904735e-01   2.4833755733611007e-01   2.1195537111860535e-01   2.4796029290582627e-01   2.3361776820605776e-01   2.2287893813024637e-01   2.4384123770195124e-01   2.8770974197363564e-01   2.3513649586131957e-01   2.2938343981043730e-01   2.7040522067163020e-01   2.2425669585192370e-01   2.0172385859931791e-01   2.2420628130897663e-01   1.9596887445783909e-01   2.1168258593820566e-01   2.2801051066644212e-01   2.3002906726183164e-01   2.1678101396028382e-01   2.1259189680573018e-01   2.3440109969742950e-01   2.2582641461391156e-01   2.6248490215626946e-01   2.0281370754187608e-01   2.0967703416316541e-01   2.2292977350014714e-01   1.9333609645883476e-01   2.1633875545059139e-01   2.7612813613434956e-01   2.1535570517667391e-01   2.4036417695265921e-01   2.0966983513035656e-01   2.7175313688826974e-01   2.0840340954972916e-01   2.3949781445929852e-01   2.5840022565471238e-01   2.2703330397386376e-01   2.0808090890151951e-01   2.6111997240722168e-01   2.2999292695285015e-01   2.4435146788089723e-01   2.1998514292373827e-01   2.2316862391727102e-01   2.3743416660861236e-01   2.3879943697719866e-01   2.5344101468872565e-01   2.3079267561469785e-01   2.2997948255699213e-01   2.3521651639498048e-01   2.2535669504817285e-01   2.3008123487157386e-01   2.6163414034563209e-01   2.4367925740872629e-01   2.7960867734378680e-01   2.3463174760922148e-01   2.8515463661658330e-01   2.3842235727081681e-01   2.3762466174705524e-01   2.7861387989963227e-01   2.8114103371781751e-01   2.5984962382822541e-01   2.6088092046415873e-01   1.9743905653473820e-01   2.2237244740350195e-01   2.2776944029103105e-01   2.3641256123476545e-01   2.0514172231123157e-01   2.2643238436703242e-01   2.3781734823735792e-01   2.8830530902860635e-01   2.7244590314663059e-01   2.2775952873724062e-01   1.9775896627572337e-01   2.3774199831270953e-01   2.8462751535275915e-01   2.7709118145822059e-01   2.0386803588278035e-01   2.1776368444635896e-01   2.3102879842566917e-01   2.0817177002333584e-01   2.1168258593820635e-01   2.0101171640976273e-01   2.7325640483129376e-01   2.5064219658552223e-01   2.1827453606835090e-01   2.3327701729311476e-01   2.7237200327961769e-01   2.2417644289905692e-01   2.7662955108151083e-01   2.0072947951186862e-01   2.6303990016614964e-01   2.8575346919690653e-01   2.4025781648419364e-01   2.2099976861469994e-01   2.3650209143446688e-01   2.6656968544692833e-01   2.3301990657348473e-01   1.5390818374473975e-01   2.8495879831217774e-01   2.5743546646802923e-01   2.7794277984611487e-01   2.4256219538887130e-01   2.0611348622492220e-01   1.6824842600805817e-01   1.9909123940891593e-01   2.2352347937611172e-01   2.4959461968717259e-01   2.7612813613434078e-01   2.4865403006143263e-01   2.5678935320695373e-01   2.2792676870521081e-01   2.5781002820031246e-01   2.3669242805402421e-01   1.7696748354908326e-01   2.4370235246827543e-01   2.4715465226581135e-01   2.0973466302475044e-01   1.8129205456739020e-01   2.3815101576522602e-01   2.5710446536337744e-01   2.7228265445439137e-01   2.1211454043427488e-01   1.7739426665908950e-01   2.5389817667458880e-01   1.6617517034119741e-01   2.2657410081466223e-01   1.8816009846391699e-01   1.9930790924219111e-01   2.3151553470043276e-01   2.4372674040986697e-01   2.2894570237151754e-01   2.5663330597786765e-01   2.6656968544692905e-01   2.2005283188994612e-01   2.5505081098340099e-01   2.1738739957683664e-01   2.0210443388886504e-01   2.6513096758532645e-01   2.0536910637879863e-01   2.2477419244706442e-01   2.5187990097444246e-01   2.2393592908077409e-01   2.2109331086113027e-01   2.5196252121422819e-01   2.5629003470507872e-01   2.2211818232553057e-01   2.0081751513703461e-01   2.4481066178316274e-01   2.2637036403366639e-01   2.4869871358007867e-01   1.9720886710397226e-01   1.9463570170374694e-01   2.4337260466866664e-01   2.2139121113212709e-01   2.4763970877761451e-01   2.8705426424170294e-01   2.3406549640917748e-01   2.1214653047415133e-01   2.8224382405898490e-01   2.5737497636759304e-01   2.4479379992627451e-01   2.5452775939927186e-01   2.7383028545975668e-01   2.3001659855547565e-01   2.1494846501593248e-01   2.5327950762335188e-01   2.3774199831270953e-01   2.8724526791106469e-01   2.1326233233513861e-01   2.5974961962970289e-01   2.4341196904450363e-01   2.6898606924262536e-01   2.1024991713425917e-01   2.1837181430218397e-01   2.3066648408617202e-01   2.1206115380763008e-01   2.2988786508596770e-01   2.5366533938820118e-01   2.4236356759956978e-01   2.5519150365002136e-01   2.5815013487838750e-01   2.1849080449051253e-01   2.2311710490217945e-01   2.4623296880277823e-01   2.1956327883381410e-01   2.2399077625459340e-01   2.5273606888799111e-01   2.5273606888798777e-01   1.6792097296828726e-01   2.1687890179095506e-01   2.5703465062464875e-01   2.8247616977061857e-01   2.7553275592201149e-01   2.5262790380550981e-01   2.1199596565212012e-01   2.7711395790926963e-01   2.0607027638961092e-01   2.1467709619249456e-01   2.1547060779893409e-01   2.6498531366997402e-01   1.7307989915192940e-01   2.4037567790447703e-01   2.8632465236312726e-01   2.3673661626201731e-01   2.1451493737946536e-01   2.0026822577112710e-01   2.3372279556331382e-01   2.4217172415767788e-01   2.8527765904457530e-01   2.6513096758532384e-01   2.0787274422879246e-01   2.7761278704981257e-01   2.1033922945776479e-01   2.0665415106628829e-01   2.1026326073950158e-01   2.4965763883064021e-01   2.6015129644168217e-01   1.9638317323133903e-01   2.5403722411614077e-01   2.2574022075280700e-01   2.1482762909465569e-01   2.4353459872678968e-01   2.2302359088863216e-01   2.1262906170870938e-01   2.0377909299853333e-01   2.2247030769949971e-01   2.5574702084657969e-01   2.2815172445423110e-01   2.3819679533391261e-01   2.4989374102070747e-01   2.2824694948092988e-01   2.3192289117492557e-01   2.5721675357353424e-01   2.6303990016614009e-01   2.2657410081466822e-01   2.1288006083227703e-01   2.2747767734632210e-01   2.3978139560409370e-01   2.4720437298220546e-01   2.4811089635634315e-01   2.7037527994267863e-01   2.4629451321708246e-01   2.0703761877124779e-01   2.0703761877124788e-01   2.7827694899399696e-01   2.8051325439631547e-01   2.2652826410917085e-01   1.9545330188255300e-01   2.3548553831448554e-01   2.6705035567179242e-01   2.2672502175955089e-01   2.1590086510113893e-01   2.1481920624896736e-01   2.3789278646593190e-01   2.0434181063365872e-01   2.1230574873594707e-01   2.3189370422489261e-01   2.4375744137888969e-01   2.2826674686846055e-01   2.2077897164978325e-01   2.3807751534154781e-01   2.7638967568557299e-01   2.7237730758266732e-01   1.7000544190176195e-01   2.4728190118229698e-01   2.0531458662785856e-01   2.4627429958907054e-01   1.9088289946818990e-01   2.4900049616498351e-01   2.5974961962970289e-01   2.3071032687682758e-01   2.4063566491772656e-01   2.5104842147149137e-01   2.6866994233265218e-01   2.3468188693975939e-01   2.3548553831446409e-01   2.6305446781325620e-01   2.5286580701616534e-01   2.0143919489819190e-01   2.1236533538502478e-01   2.7166658434467666e-01   2.2021297523655889e-01   2.3583627994407957e-01   2.2108008908592242e-01   2.5173218068263875e-01   2.3416035053042564e-01   2.2871007546571892e-01   2.4138676263624056e-01   2.0886175911003263e-01   2.6164787974809439e-01   2.3797367917849638e-01   2.5729668950806950e-01   2.3498667226297104e-01   2.3787513152500586e-01   2.1518031726936684e-01   2.0081751513703941e-01   1.8908165313983311e-01   2.1283468209557671e-01   2.2219029324511352e-01   2.4633506800543281e-01   2.2220744406668447e-01   2.6611013546238249e-01   2.2845726581273387e-01   2.1140960740594367e-01   2.2725832049542638e-01   2.5385829513522634e-01   2.4847344757659454e-01   2.4079426519850827e-01   2.5432038041894234e-01   2.1264452330234562e-01   2.5811752396704263e-01   2.3612022674823263e-01   2.7009904832273085e-01   2.4249728936603016e-01   2.4715465226581132e-01   2.0973466302476312e-01   2.3892198890152594e-01   2.6740699449071570e-01   2.8098134456728768e-01   2.4746201614278757e-01   2.6956264127870544e-01   2.1037232695558972e-01   2.3434801023177662e-01   2.1612336645487312e-01   2.1389548847675571e-01   2.1886642177307544e-01   2.7387467739130000e-01   2.0750399660413990e-01   2.2155694264762338e-01   2.7625745670850455e-01   2.3995492413832917e-01   2.1797891527245111e-01   2.6309461292244779e-01   2.6743409067101176e-01   2.4362345464647361e-01   2.1116487454069938e-01   2.1341532904247076e-01   2.4529155515636486e-01   2.4457111680920532e-01   2.7740090374650039e-01   2.5349927572500158e-01   2.3154178976