<?xml version="1.0"?>
<VTKFile type="UnstructuredGrid"  version="0.1"  >
<UnstructuredGrid>
<Piece  NumberOfPoints="8369" NumberOfCells="15952">
<Points>
<DataArray  type="Float64"  NumberOfComponents="3"  format="ascii">3 0.3207336731613248 0  2.829563040797541 0.3182521631901648 0  3 0.5085110656648704 0  2.655821106513804 0.3116422130276078 0  2.835061318114777 0.5051839543443308 0  3 0.6897344810094523 0  2.477003082583512 0.3026707767780156 0  2.664647711840426 0.4969715677606382 0  2.842448462936374 0.6848969258727482 0  3 0.8601728169611075 0  2.292893218813282 0.2928932188132819 0  2.486940241264027 0.4869402412640268 0  2.674832775912863 0.6748327759128629 0  2.852474570368216 0.8524745703682164 0  3 1 0  2.302670776778016 0.4770030825835117 0  2.496971567760638 0.6646477118404255 0  2.684896925872748 0.8424484629363741 0  2.860172816961108 1 0  3 1.139827183038892 0  3.147525429631784 1.147525429631784 0  3.139827183038892 1 0  2.311642213027608 0.655821106513804 0  2.505183954344331 0.8350613181147769 0  2.689734481009452 1 0  2.852474570368216 1.147525429631784 0  3 1.310265518990548 0  3.157551537063626 1.315103074127252 0  3.325167224087137 1.325167224087137 0  3.315103074127252 1.157551537063626 0  3.310265518990548 1 0  2.318252163190165 0.8295630407975412 0  2.50851106566487 1 0  2.684896925872748 1.157551537063626 0  2.842448462936374 1.315103074127252 0  3 1.49148893433513 0  3.164938681885223 1.494816045655669 0  3.335352288159574 1.503028432239362 0  3.513059758735973 1.513059758735973 0  3.503028432239362 1.335352288159575 0  3.494816045655669 1.164938681885223 0  3.49148893433513 1 0  2.320733673161325 1 0  2.505183954344331 1.164938681885223 0  2.674832775912863 1.325167224087137 0  2.835061318114777 1.494816045655669 0  3 1.679266326838675 0  3.170436959202459 1.681747836809835 0  3.344178893486196 1.688357786972392 0  3.522996917416489 1.697329223221984 0  3.707106781186718 1.707106781186718 0  3.697329223221984 1.522996917416488 0  3.688357786972392 1.344178893486196 0  3.681747836809835 1.170436959202459 0  3.679266326838675 1 0  2.318252163190165 1.170436959202459 0  2.496971567760638 1.335352288159575 0  2.664647711840426 1.503028432239362 0  2.829563040797541 1.681747836809835 0  2.311642213027608 1.344178893486196 0  2.486940241264027 1.513059758735973 0  2.655821106513804 1.688357786972392 0  2.302670776778016 1.522996917416488 0  2.477003082583511 1.697329223221984 0  2.292893218813282 1.707106781186718 0  2 4.679266326838675 0  1.829563040797541 4.681747836809835 0  2 4.49148893433513 0  1.655821106513804 4.688357786972392 0  1.835061318114777 4.494816045655669 0  2 4.310265518990548 0  1.477003082583512 4.697329223221985 0  1.664647711840425 4.503028432239362 0  1.842448462936374 4.315103074127252 0  2 4.139827183038893 0  1.292893218813282 4.707106781186718 0  1.486940241264027 4.513059758735973 0  1.674832775912863 4.325167224087137 0  1.852474570368216 4.147525429631783 0  2 4 0  1.302670776778016 4.522996917416489 0  1.496971567760638 4.335352288159575 0  1.684896925872748 4.157551537063626 0  1.860172816961108 4 0  2 3.860172816961108 0  2.147525429631784 3.852474570368216 0  2.139827183038892 4 0  1.311642213027608 4.344178893486196 0  1.505183954344331 4.164938681885223 0  1.689734481009452 4 0  1.852474570368216 3.852474570368216 0  2 3.689734481009452 0  2.157551537063626 3.684896925872748 0  2.325167224087137 3.674832775912863 0  2.315103074127252 3.842448462936374 0  2.310265518990548 4 0  1.318252163190165 4.170436959202459 0  1.50851106566487 4 0  1.684896925872748 3.842448462936374 0  1.842448462936374 3.684896925872748 0  2 3.50851106566487 0  2.164938681885223 3.505183954344331 0  2.335352288159574 3.496971567760638 0  2.513059758735973 3.486940241264027 0  2.503028432239362 3.664647711840426 0  2.494816045655669 3.835061318114777 0  2.49148893433513 4 0  1.320733673161325 4 0  1.505183954344331 3.835061318114777 0  1.674832775912863 3.674832775912863 0  1.835061318114777 3.505183954344331 0  2 3.320733673161325 0  2.170436959202459 3.318252163190165 0  2.344178893486196 3.311642213027608 0  2.522996917416489 3.302670776778016 0  2.707106781186718 3.292893218813282 0  2.697329223221984 3.477003082583511 0  2.688357786972392 3.655821106513804 0  2.681747836809835 3.829563040797541 0  2.679266326838675 4 0  1.318252163190165 3.829563040797541 0  1.496971567760638 3.664647711840426 0  1.664647711840425 3.496971567760638 0  1.829563040797541 3.318252163190165 0  1.311642213027608 3.655821106513804 0  1.486940241264027 3.486940241264027 0  1.655821106513804 3.311642213027608 0  1.302670776778016 3.477003082583511 0  1.477003082583512 3.302670776778016 0  1.292893218813282 3.292893218813282 0  -6 5.679266326838675 0  -5.829563040797542 5.681747836809835 0  -6 5.49148893433513 0  -5.655821106513804 5.688357786972392 0  -5.835061318114777 5.494816045655669 0  -6 5.310265518990548 0  -5.477003082583511 5.697329223221985 0  -5.664647711840425 5.503028432239362 0  -5.842448462936374 5.315103074127252 0  -6 5.139827183038893 0  -5.292893218813282 5.707106781186718 0  -5.486940241264027 5.513059758735973 0  -5.674832775912863 5.325167224087137 0  -5.852474570368217 5.147525429631783 0  -6 5 0  -5.302670776778015 5.522996917416489 0  -5.496971567760638 5.335352288159575 0  -5.684896925872748 5.157551537063626 0  -5.860172816961107 5 0  -6 4.860172816961107 0  -6.147525429631783 4.852474570368217 0  -6.139827183038893 5 0  -5.311642213027608 5.344178893486196 0  -5.505183954344331 5.164938681885223 0  -5.689734481009452 5 0  -5.852474570368217 4.852474570368217 0  -6 4.689734481009452 0  -6.157551537063626 4.684896925872748 0  -6.325167224087137 4.674832775912863 0  -6.315103074127252 4.842448462936374 0  -6.310265518990548 5 0  -5.318252163190165 5.170436959202459 0  -5.50851106566487 5 0  -5.684896925872748 4.842448462936374 0  -5.842448462936374 4.684896925872748 0  -6 4.50851106566487 0  -6.164938681885223 4.505183954344331 0  -6.335352288159575 4.496971567760638 0  -6.513059758735973 4.486940241264027 0  -6.503028432239362 4.664647711840425 0  -6.494816045655669 4.835061318114777 0  -6.49148893433513 5 0  -5.320733673161325 5 0  -5.505183954344331 4.835061318114777 0  -5.674832775912863 4.674832775912863 0  -5.835061318114777 4.505183954344331 0  -6 4.320733673161325 0  -6.170436959202458 4.318252163190165 0  -6.344178893486196 4.311642213027608 0  -6.522996917416489 4.302670776778015 0  -6.707106781186718 4.292893218813282 0  -6.697329223221985 4.477003082583511 0  -6.688357786972392 4.655821106513804 0  -6.681747836809835 4.829563040797541 0  -6.679266326838675 5 0  -5.318252163190165 4.829563040797542 0  -5.496971567760638 4.664647711840425 0  -5.664647711840425 4.496971567760638 0  -5.829563040797542 4.318252163190165 0  -5.311642213027608 4.655821106513804 0  -5.486940241264027 4.486940241264027 0  -5.655821106513804 4.311642213027608 0  -5.302670776778015 4.477003082583511 0  -5.477003082583511 4.302670776778015 0  -5.292893218813282 4.292893218813282 0  -5 2.320733673161325 0  -4.829563040797542 2.318252163190165 0  -5 2.50851106566487 0  -4.655821106513804 2.311642213027608 0  -4.835061318114777 2.505183954344331 0  -5 2.689734481009452 0  -4.477003082583511 2.302670776778016 0  -4.664647711840425 2.496971567760638 0  -4.842448462936374 2.684896925872748 0  -5 2.860172816961108 0  -4.292893218813282 2.292893218813282 0  -4.486940241264027 2.486940241264027 0  -4.674832775912863 2.674832775912863 0  -4.852474570368217 2.852474570368216 0  -5 3 0  -4.302670776778015 2.477003082583511 0  -4.496971567760638 2.664647711840426 0  -4.684896925872748 2.842448462936374 0  -4.860172816961107 3 0  -5 3.139827183038892 0  -5.147525429631783 3.147525429631784 0  -5.139827183038893 3 0  -4.311642213027608 2.655821106513804 0  -4.505183954344331 2.835061318114777 0  -4.689734481009452 3 0  -4.852474570368217 3.147525429631784 0  -5 3.310265518990548 0  -5.157551537063626 3.315103074127252 0  -5.325167224087137 3.325167224087137 0  -5.315103074127252 3.157551537063626 0  -5.310265518990548 3 0  -4.318252163190165 2.829563040797541 0  -4.50851106566487 3 0  -4.684896925872748 3.157551537063626 0  -4.842448462936374 3.315103074127252 0  -5 3.49148893433513 0  -5.164938681885223 3.494816045655669 0  -5.335352288159575 3.503028432239362 0  -5.513059758735973 3.513059758735973 0  -5.503028432239362 3.335352288159574 0  -5.494816045655669 3.164938681885223 0  -5.49148893433513 3 0  -4.320733673161325 3 0  -4.505183954344331 3.164938681885223 0  -4.674832775912863 3.325167224087137 0  -4.835061318114777 3.494816045655669 0  -5 3.679266326838675 0  -5.170436959202458 3.681747836809835 0  -5.344178893486196 3.688357786972392 0  -5.522996917416489 3.697329223221984 0  -5.707106781186718 3.707106781186718 0  -5.697329223221985 3.522996917416489 0  -5.688357786972392 3.344178893486196 0  -5.681747836809835 3.170436959202459 0  -5.679266326838675 3 0  -4.318252163190165 3.170436959202459 0  -4.496971567760638 3.335352288159574 0  -4.664647711840425 3.503028432239362 0  -4.829563040797542 3.681747836809835 0  -4.311642213027608 3.344178893486196 0  -4.486940241264027 3.513059758735973 0  -4.655821106513804 3.688357786972392 0  -4.302670776778015 3.522996917416489 0  -4.477003082583511 3.697329223221984 0  -4.292893218813282 3.707106781186718 0  5 1 0  5 1.1875 0  4.834908290854834 1 0  4.777127948738723 1.195499924639372 0  4.839086815232164 1.346682114508668 0  5 1.375 0  4.669816581709669 1 0  4.632764363488562 1.365485527798476 0  4.794926146457388 1.50398688558759 0  5 1.5625 0  4.642258798879609 1.142328639834177 0  4.504724872564504 1 0  4.500247074421719 1.171475564681439 0  4.339633163419338 1 0  4.498775742703332 1.356177489340095 0  4.497705853685118 1.490484769177636 0  4.645521174961488 1.514732206813389 0  4.689691594422786 1.689472084520371 0  4.856231811549666 1.66136337359662 0  5 1.75 0  4.25035262013317 1.188684954713487 0  4.364655839949951 1.363349780835463 0  4.3635859
[...]
<CellData  Scalars="f_6477"> 
<DataArray  type="Float64"  Name="f_6477"  format="ascii">2.2282330777440509e-01   2.2282330777440568e-01   2.2282330777435713e-01   2.2282330777440509e-01   2.2241249471934588e-01   2.2241249471934524e-01   2.2241249471934602e-01   2.2241249471934607e-01   2.2241249471939370e-01   2.2241249471939339e-01   2.2241249471944149e-01   2.2241249471934529e-01   2.2306840249185997e-01   2.2306840249186038e-01   2.2306840249181237e-01   2.2306840249181317e-01   1.9998798933386353e-01   2.1276555590422266e-01   1.9998798933388570e-01   2.1276555590419957e-01   2.2251542713300387e-01   2.2251542713295278e-01   2.2251542713295197e-01   2.2251542713300423e-01   2.1933478473039295e-01   2.1933478473034329e-01   2.1933478473039225e-01   2.1933478473039264e-01   1.9517571727257615e-01   2.1772317044341238e-01   1.9517571727257590e-01   2.1772317044341191e-01   1.9998798933390688e-01   2.1276555590412780e-01   1.9998798933386269e-01   2.1276555590422330e-01   2.1933478473039239e-01   2.1933478473034387e-01   2.1933478473039239e-01   2.1933478473039239e-01   2.2251542713295355e-01   2.2251542713300487e-01   2.2251542713300546e-01   2.2251542713300546e-01   1.9517571727257602e-01   2.1772317044346082e-01   1.9517571727257602e-01   2.1772317044336389e-01   2.2232479311757244e-01   2.2232479311757258e-01   2.2232479311762149e-01   2.2232479311762066e-01   2.2406629542205445e-01   2.2406629542205386e-01   2.2406629542205378e-01   2.2406629542205464e-01   2.2232479311752476e-01   2.2232479311757286e-01   2.2232479311762091e-01   2.2232479311762093e-01   2.2382228826257469e-01   2.2382228826262587e-01   2.2382228826262521e-01   2.2382228826257469e-01   2.0710678118655382e-01   2.0710678118655515e-01   2.0710678118647854e-01   2.0710678118655382e-01   1.9785085016475179e-01   2.1284232987985502e-01   1.9785085016480788e-01   2.1284232987979670e-01   1.9785085016480775e-01   2.1284232987979529e-01   1.9785085016480775e-01   2.1284232987979709e-01   2.2254704779540543e-01   2.2254704779540613e-01   2.2254704779540449e-01   2.2254704779547832e-01   2.0272971029327391e-01   2.0854838095951017e-01   2.0272971029336706e-01   2.0854838095960623e-01   2.2157902815777675e-01   2.2157902815772398e-01   2.2157902815772459e-01   2.2157902815772398e-01   2.0099346772400969e-01   2.0982739864353028e-01   2.0099346772400972e-01   2.0982739864358183e-01   1.9759127564611351e-01   2.1541232310660710e-01   1.9759127564616105e-01   2.1541232310655511e-01   2.0272971029331938e-01   2.0854838095946199e-01   2.0272971029331965e-01   2.0854838095948650e-01   2.0099346772395918e-01   2.0982739864358194e-01   2.0099346772395921e-01   2.0982739864358194e-01   2.2157902815772385e-01   2.2157902815772387e-01   2.2157902815772321e-01   2.2157902815777591e-01   1.9759127564611423e-01   2.1541232310655539e-01   1.9759127564620932e-01   2.1541232310660691e-01   2.2007872894775543e-01   2.2007872894775662e-01   2.2007872894781466e-01   2.2007872894775576e-01   2.2489819190520971e-01   2.2489819190515326e-01   2.2489819190515301e-01   2.2489819190521010e-01   2.2007872894775554e-01   2.2007872894775724e-01   2.2007872894775574e-01   2.2007872894781508e-01   2.2483428584019532e-01   2.2483428584025164e-01   2.2483428584025125e-01   2.2483428584025200e-01   2.0839861781145377e-01   2.0417041990784088e-01   2.0839861781145377e-01   2.0417041990784088e-01   2.1653317452165502e-01   1.9687523829798950e-01   2.1653317452163098e-01   1.9687523829796741e-01   2.0926496711405471e-01   2.0340448049758200e-01   2.0926496711410481e-01   2.0340448049753498e-01   2.1291513821738531e-01   1.9859931338262110e-01   2.1291513821740979e-01   1.9859931338262141e-01   2.2294575770929348e-01   1.9161467482046277e-01   2.2294575770930519e-01   1.9161467482046277e-01   2.2394419344801564e-01   1.9066082624570155e-01   2.2394419344804126e-01   1.9066082624572353e-01   2.2143636355533955e-01   1.9283953929282793e-01   2.2143636355533955e-01   1.9283953929280748e-01   2.2330878025000944e-01   1.9103934347471149e-01   2.2330878025004594e-01   1.9103934347470103e-01   2.1449517853160127e-01   1.9926557760831848e-01   2.1449517853160127e-01   1.9926557760831973e-01   2.1105224055068661e-01   2.0211119532993951e-01   2.1105224055068628e-01   2.0211119532999186e-01   2.2486623200519801e-01   1.8978243243590673e-01   2.2486623200516978e-01   1.8978243243590739e-01   2.2198549183055521e-01   1.8968478601956751e-01   2.2198549183065114e-01   1.8968478601959352e-01   2.2055361226720116e-01   1.9268180107150468e-01   2.2055361226717607e-01   1.9268180107152591e-01   2.2411233255639842e-01   1.8988810602704997e-01   2.2411233255637203e-01   1.8988810602705092e-01   2.1599249849652874e-01   1.9529546249287480e-01   2.1599249849658347e-01   1.9529546249282667e-01   2.2001696236071525e-01   1.9394015489056232e-01   2.2001696236071566e-01   1.9394015489058569e-01   2.0839861781145466e-01   2.0417041990784157e-01   2.0839861781145466e-01   2.0417041990785190e-01   2.0926496711407916e-01   2.0340448049758242e-01   2.0926496711407916e-01   2.0340448049755819e-01   2.1653317452165499e-01   1.9687523829796721e-01   2.1653317452166715e-01   1.9687523829796810e-01   2.1291513821740954e-01   1.9859931338262171e-01   2.1291513821740954e-01   1.9859931338262102e-01   2.1449517853174674e-01   1.9926557760831842e-01   2.1449517853159900e-01   1.9926557760831953e-01   2.2486623200519634e-01   1.8978243243585818e-01   2.2486623200516814e-01   1.8978243243590701e-01   2.1105224055068783e-01   2.0211119532996633e-01   2.1105224055068791e-01   2.0211119532999225e-01   2.2198549183058464e-01   1.8968478601962147e-01   2.2198549183058425e-01   1.8968478601959363e-01   2.2294575770929276e-01   1.9161467482046271e-01   2.2294575770929276e-01   1.9161467482047276e-01   2.2143636355533958e-01   1.9283953929281772e-01   2.2143636355533958e-01   1.9283953929280739e-01   2.2394419344803954e-01   1.9066082624572278e-01   2.2394419344801419e-01   1.9066082624572334e-01   2.2330878025003253e-01   1.9103934347469048e-01   2.2330878025003253e-01   1.9103934347470089e-01   2.1599249849653007e-01   1.9529546249282648e-01   2.1599249849653043e-01   1.9529546249282648e-01   2.2411233255642565e-01   1.8988810602707359e-01   2.2411233255639887e-01   1.8988810602705078e-01   2.2055361226717676e-01   1.9268180107152555e-01   2.2055361226718923e-01   1.9268180107152649e-01   2.2001696236069054e-01   1.9394015489056279e-01   2.2001696236071619e-01   1.9394015489056324e-01   2.0839861781145483e-01   2.0417041990788676e-01   2.0839861781150093e-01   2.0417041990779511e-01   2.0926496711412890e-01   2.0340448049758242e-01   2.0926496711412890e-01   2.0340448049763071e-01   2.1653317452165455e-01   1.9687523829796733e-01   2.1653317452165488e-01   1.9687523829796819e-01   2.1291513821740940e-01   1.9859931338262160e-01   2.1291513821740940e-01   1.9859931338262091e-01   2.1449517853167296e-01   1.9926557760831864e-01   2.1449517853159888e-01   1.9926557760831923e-01   2.2486623200519634e-01   1.8978243243590637e-01   2.2486623200519668e-01   1.8978243243590701e-01   2.1105224055068783e-01   2.0211119532999283e-01   2.1105224055068797e-01   2.0211119532993890e-01   2.2198549183055266e-01   1.8968478601962127e-01   2.2198549183061622e-01   1.8968478601962094e-01   2.2294575770931760e-01   1.9161467482048331e-01   2.2294575770931729e-01   1.9161467482048331e-01   2.2143636355543386e-01   1.9283953929280651e-01   2.2143636355533869e-01   1.9283953929280742e-01   2.2394419344798971e-01   1.9066082624572248e-01   2.2394419344804026e-01   1.9066082624572367e-01   2.2330878025003384e-01   1.9103934347464835e-01   2.2330878024998521e-01   1.9103934347464899e-01   2.1599249849655711e-01   1.9529546249280189e-01   2.1599249849650320e-01   1.9529546249285110e-01   2.2411233255642565e-01   1.8988810602707359e-01   2.2411233255637206e-01   1.8988810602702835e-01   2.2055361226725145e-01   1.9268180107148233e-01   2.2055361226720177e-01   1.9268180107152663e-01   2.2001696236071619e-01   1.9394015489056271e-01   2.2001696236071619e-01   1.9394015489056343e-01   2.0839861781140750e-01   2.0417041990779555e-01   2.0839861781145377e-01   2.0417041990784088e-01   2.1653317452165505e-01   1.9687523829801021e-01   2.1653317452170279e-01   1.9687523829801123e-01   2.0926496711407994e-01   2.0340448049753521e-01   2.0926496711407958e-01   2.0340448049758200e-01   2.1291513821741015e-01   1.9859931338266734e-01   2.1291513821736099e-01   1.9859931338262110e-01   2.2294575770941069e-01   1.9161467482040256e-01   2.2294575770931688e-01   1.9161467482040256e-01   2.2394419344804087e-01   1.9066082624572367e-01   2.2394419344798980e-01   1.9066082624567959e-01   2.2143636355533960e-01   1.9283953929280742e-01   2.2143636355533944e-01   1.9283953929280714e-01   2.2330878025008224e-01   1.9103934347464910e-01   2.2330878025008202e-01   1.9103934347464910e-01   2.1449517853160160e-01   1.9926557760831942e-01   2.1449517853167546e-01   1.9926557760831881e-01   2.1105224055068628e-01   2.0211119532999211e-01   2.1105224055068661e-01   2.0211119532999300e-01   2.2486623200519798e-01   1.8978243243595561e-01   2.2486623200514075e-01   1.8978243243590673e-01   2.2198549183061911e-01   1.8968478601962102e-01   2.2198549183055510e-01   1.8968478601962227e-01   2.2055361226725023e-01   1.9268180107148208e-01   2.2055361226720083e-01   1.9268180107143965e-01   2.2411233255637142e-01   1.8988810602707315e-01   2.2411233255642482e-01   1.8988810602702738e-01   2.1599249849655675e-01   1.9529546249290061e-01   2.1599249849655622e-01   1.9529546249285026e-01   2.2001696236071583e-01   1.9394015489047270e-01   2.2001696236071550e-01   1.9394015489051739e-01   2.2282330777435824e-01   2.2282330777435713e-01   2.2282330777435883e-01   2.2282330777445192e-01   2.2241249471939370e-01   2.2241249471939339e-01   2.2241249471939339e-01   2.2241249471939339e-01   2.2241249471934588e-01   2.2241249471939412e-01   2.2241249471939331e-01   2.2241249471939412e-01   2.2306840249181314e-01   2.2306840249181237e-01   2.2306840249176674e-01   2.2306840249190682e-01   1.9998798933390732e-01   2.1276555590412835e-01   1.9998798933390688e-01   2.1276555590417526e-01   2.2251542713300584e-01   2.2251542713300546e-01   2.2251542713300487e-01   2.2251542713290087e-01   2.1933478473039239e-01   2.1933478473034387e-01   2.1933478473029541e-01   2.1933478473039239e-01   1.9517571727257602e-01   2.1772317044346115e-01   1.9517571727266320e-01   2.1772317044336356e-01   1.9998798933381878e-01   2.1276555590422330e-01   1.9998798933390816e-01   2.1276555590422266e-01   2.1933478473048992e-01   2.1933478473039225e-01   2.1933478473039181e-01   2.1933478473039264e-01   2.2251542713300387e-01   2.2251542713300426e-01   2.2251542713300509e-01   2.2251542713300423e-01   1.9517571727257590e-01   2.1772317044336331e-01   1.9517571727257615e-01   2.1772317044346101e-01   2.2232479311762091e-01   2.2232479311752470e-01   2.2232479311752476e-01   2.2232479311757286e-01   2.2406629542205445e-01   2.2406629542205378e-01   2.2406629542195289e-01   2.2406629542205464e-01   2.2232479311752432e-01   2.2232479311752526e-01   2.2232479311771688e-01   2.2232479311762066e-01   2.2382228826262521e-01   2.2382228826262521e-01   2.2382228826262587e-01   2.2382228826252415e-01   2.0710678118655382e-01   2.0710678118655382e-01   2.0710678118655515e-01   2.0710678118640327e-01   1.9785085016480775e-01   2.1284232987973695e-01   1.9785085016480775e-01   2.1284232987973514e-01   1.9785085016469606e-01   2.1284232987985685e-01   1.9785085016480772e-01   2.1284232987973473e-01   2.2254704779547832e-01   2.2254704779533166e-01   2.2254704779547901e-01   2.2254704779533258e-01   2.0272971029327314e-01   2.0854838095941472e-01   2.0272971029336587e-01   2.0854838095941416e-01   2.2157902815782862e-01   2.2157902815782798e-01   2.2157902815772387e-01   2.2157902815772351e-01   2.0099346772390922e-01   2.0982739864363417e-01   2.0099346772400919e-01   2.0982739864363417e-01   1.9759127564620932e-01   2.1541232310671027e-01   1.9759127564611423e-01   2.1541232310660710e-01   2.0272971029336706e-01   2.0854838095951056e-01   2.0272971029327391e-01   2.0854838095941450e-01   2.0099346772400972e-01   2.0982739864363403e-01   2.0099346772400969e-01   2.0982739864353028e-01   2.2157902815782912e-01   2.2157902815772459e-01   2.2157902815782876e-01   2.2157902815772398e-01   1.9759127564620846e-01   2.1541232310660682e-01   1.9759127564611351e-01   2.1541232310650374e-01   2.2007872894793357e-01   2.2007872894781508e-01   2.2007872894781655e-01   2.2007872894769642e-01   2.2489819190515264e-01   2.2489819190515301e-01   2.2489819190515326e-01   2.2489819190515301e-01   2.2007872894769606e-01   2.2007872894781466e-01   2.2007872894781599e-01   2.2007872894769645e-01   2.2483428584019535e-01   2.2483428584030832e-01   2.2483428584030873e-01   2.2483428584019494e-01   2.0839861781150107e-01   2.0417041990779608e-01   2.0839861781150093e-01   2.0417041990779411e-01   2.1653317452165591e-01   1.9687523829796788e-01   2.1653317452156043e-01   1.9687523829796788e-01   2.0926496711407916e-01   2.0340448049758239e-01   2.0926496711407916e-01   2.0340448049758239e-01   2.1291513821750760e-01   1.9859931338253003e-01   2.1291513821740873e-01   1.9859931338261969e-01   2.2294575770931868e-01   1.9161467482048355e-01   2.2294575770931802e-01   1.9161467482040123e-01   2.2394419344804334e-01   1.9066082624572434e-01   2.2394419344794234e-01   1.9066082624572289e-01   2.2143636355533980e-01   1.9283953929280742e-01   2.2143636355543497e-01   1.9283953929280742e-01   2.2330878024998602e-01   1.9103934347464949e-01   2.2330878025008324e-01   1.9103934347473214e-01   2.1449517853159911e-01   1.9926557760818134e-01   2.1449517853159888e-01   1.9926557760845773e-01   2.1105224055063196e-01   2.0211119533004634e-01   2.1105224055063215e-01   2.0211119532993782e-01   2.2486623200508549e-01   1.8978243243581119e-01   2.2486623200519890e-01   1.8978243243590617e-01   2.2198549183061786e-01   1.8968478601962127e-01   2.2198549183061708e-01   1.8968478601962024e-01   2.2055361226730008e-01   1.9268180107152577e-01   2.2055361226720060e-01   1.9268180107143884e-01   2.2411233255637442e-01   1.8988810602702724e-01   2.2411233255637442e-01   1.8988810602702957e-01   2.1599249849661026e-01   1.9529546249280189e-01   2.1599249849650171e-01   1.9529546249280144e-01   2.2001696236061236e-01   1.9394015489056204e-01   2.2001696236071464e-01   1.9394015489056385e-01   2.0839861781140709e-01   2.0417041990779608e-01   2.0839861781140648e-01   2.0417041990779458e-01   2.0926496711407833e-01   2.0340448049758325e-01   2.0926496711407769e-01   2.0340448049738882e-01   2.1653317452175025e-01   1.9687523829805337e-01   2.1653317452175022e-01   1.9687523829788114e-01   2.1291513821731226e-01   1.9859931338253056e-01   2.1291513821731164e-01   1.9859931338252923e-01   2.1449517853160030e-01   1.9926557760845609e-01   2.1449517853160030e-01   1.9926557760845720e-01   2.2486623200531028e-01   1.8978243243581078e-01   2.2486623200508096e-01   1.8978243243590523e-01   2.1105224055063077e-01   2.0211119533004754e-01   2.1105224055074243e-01   2.0211119532993896e-01   2.2198549183049054e-01   1.8968478601962332e-01   2.2198549183061775e-01   1.8968478601940225e-01   2.2294575770931493e-01   1.9161467482048256e-01   2.2294575770940786e-01   1.9161467482040079e-01   2.2143636355524474e-01   1.9283953929280850e-01   2.2143636355533927e-01   1.9283953929280637e-01   2.2394419344803823e-01   1.9066082624572342e-01   2.2394419344813873e-01   1.9066082624572242e-01   2.2330878025008083e-01   1.9103934347473323e-01   2.2330878024998291e-01   1.9103934347473150e-01   2.1599249849650401e-01   1.9529546249280302e-01   2.1599249849650420e-01   1.9529546249290014e-01   2.2411233255637161e-01   1.8988810602702769e-01   2.2411233255647789e-01   1.8988810602711811e-01   2.2055361226720166e-01   1.9268180107143895e-01   2.2055361226720166e-01   1.9268180107161242e-01   2.2001696236071666e-01   1.9394015489056246e-01   2.2001696236071666e-01   1.9394015489056210e-01   2.0839861781150057e-01   2.0417041990779608e-01   2.0839861781150057e-01   2.0417041990779511e-01   2.0926496711407958e-01   2.0340448049758200e-01   2.0926496711407994e-01   2.0340448049758308e-01   2.1653317452174917e-01   1.9687523829796749e-01   2.1653317452174917e-01   1.9687523829796771e-01   2.1291513821740923e-01   1.9859931338262143e-01   2.1291513821740923e-01   1.9859931338271264e-01   2.1449517853160016e-01   1.9926557760831759e-01   2.1449517853160019e-01   1.9926557760832006e-01   2.2486623200508307e-01   1.8978243243590659e-01   2.2486623200508379e-01   1.8978243243590795e-01   2.1105224055074298e-01   2.0211119533004693e-01   2.1105224055074265e-01   2.0211119532993818e-01   2.2198549183061853e-01   1.8968478601951291e-01   2.2198549183049010e-01   1.8968478601972991e-01   2.2294575770913030e-01   1.9161467482048331e-01   2.2294575770931729e-01   1.9161467482048331e-01   2.2143636355524368e-01   1.9283953929288927e-01   2.2143636355533886e-01   1.9283953929297332e-01   2.2394419344803990e-01   1.9066082624563632e-01   2.2394419344804026e-01   1.9066082624563765e-01   2.2330878025008244e-01   1.9103934347464835e-01   2.2330878024988804e-01   1.9103934347464899e-01   2.1599249849650176e-01   1.9529546249280136e-01   2.1599249849661104e-01   1.9529546249280214e-01   2.2411233255658583e-01   1.8988810602711850e-01   2.2411233255637183e-01   1.8988810602702805e-01   2.2055361226720230e-01   1.9268180107152619e-01   2.2055361226710252e-01   1.9268180107152638e-01   2.2001696236081816e-01   1.9394015489056246e-01   2.2001696236071619e-01   1.9394015489065361e-01   2.0839861781140806e-01   2.0417041990779511e-01   2.0839861781140806e-01   2.0417041990779608e-01   2.1653317452165433e-01   1.9687523829788145e-01   2.1653317452165433e-01   1.9687523829796746e-01   2.0926496711417941e-01   2.0340448049748636e-01   2.0926496711407958e-01   2.0340448049758200e-01   2.1291513821740923e-01   1.9859931338271264e-01   2.1291513821740923e-01   1.9859931338262143e-01   2.2294575770931729e-01   1.9161467482048331e-01   2.2294575770931760e-01   1.9161467482040281e-01   2.2394419344804026e-01   1.9066082624563765e-01   2.2394419344824193e-01   1.9066082624572231e-01   2.2143636355533886e-01   1.9283953929280753e-01   2.2143636355533886e-01   1.9283953929280637e-01   2.2330878025008244e-01   1.9103934347473214e-01   2.2330878025008244e-01   1.9103934347473150e-01   2.1449517853160019e-01   1.9926557760832006e-01   2.1449517853160019e-01   1.9926557760831762e-01   2.1105224055063096e-01   2.0211119533004512e-01   2.1105224055063135e-01   2.0211119532994004e-01   2.2486623200531211e-01   1.8978243243590795e-01   2.2486623200531139e-01   1.8978243243581022e-01   2.2198549183061811e-01   1.8968478601972991e-01   2.2198549183074653e-01   1.8968478601962230e-01   2.2055361226720196e-01   1.9268180107152638e-01   2.2055361226720230e-01   1.9268180107152619e-01   2.2411233255637183e-01   1.8988810602702808e-01   2.2411233255637145e-01   1.8988810602711850e-01   2.1599249849661104e-01   1.9529546249290028e-01   2.1599249849650176e-01   1.9529546249289947e-01   2.2001696236071619e-01   1.9394015489047325e-01   2.2001696236071586e-01   1.9394015489047228e-01   2.2282330777416978e-01   2.2282330777454451e-01   2.2282330777416978e-01   2.2282330777454451e-01   2.2241249471920096e-01   2.2241249471920183e-01   2.2241249471958432e-01   2.2241249471958432e-01   2.2241249471920096e-01   2.2241249471958432e-01   2.2241249471958655e-01   2.2241249471958432e-01   2.2306840249171739e-01   2.2306840249171875e-01   2.2306840249171875e-01   2.2306840249171875e-01   1.9998798933417514e-01   2.1276555590412788e-01   1.9998798933381759e-01   2.1276555590412627e-01   2.2251542713311098e-01   2.2251542713311098e-01   2.2251542713310854e-01   2.2251542713269251e-01   2.1933478473029566e-01   2.1933478473068424e-01   2.1933478473029408e-01   2.1933478473029633e-01   1.9517571727