<?xml version="1.0"?>
<VTKFile type="UnstructuredGrid"  version="0.1"  >
<UnstructuredGrid>
<Piece  NumberOfPoints="6432" NumberOfCells="12116">
<Points>
<DataArray  type="Float64"  NumberOfComponents="3"  format="ascii">3 0.3819660112504897 0  2.843408347405157 0.3736333896206288 0  3 0.5986121811345446 0  2.675884240244967 0.3517684804899346 0  2.862309893853584 0.5869296815607524 0  3 0.7928932188140729 0  2.492225278930009 0.3229670385733456 0  2.705578223215987 0.5583673348239806 0  2.88819660112527 0.77639320225054 0  3 0.9409830056258242 0  2.292893218813648 0.2928932188136479 0  2.524397193004713 0.5243971930047131 0  2.741180954897836 0.7411809548978358 0  2.920540688701558 0.9205406887015585 0  3 1 0  2.322967038573346 0.4922252789300092 0  2.558367334823981 0.7055782232159871 0  2.77639320225054 0.88819660112527 0  2.940983005625824 1 0  3 1.059016994374176 0  3.079459311298442 1.079459311298441 0  3.059016994374176 1 0  2.351768480489935 0.6758842402449674 0  2.586929681560752 0.8623098938535841 0  2.792893218814073 1 0  2.920540688701558 1.079459311298441 0  3 1.207106781185927 0  3.11180339887473 1.22360679774946 0  3.258819045102164 1.258819045102164 0  3.22360679774946 1.11180339887473 0  3.207106781185927 1 0  2.373633389620628 0.843408347405157 0  2.598612181134545 1 0  2.77639320225054 1.11180339887473 0  2.88819660112527 1.22360679774946 0  3 1.401387818865455 0  3.137690106146416 1.413070318439248 0  3.294421776784013 1.441632665176019 0  3.475602806995287 1.475602806995287 0  3.441632665176019 1.294421776784013 0  3.413070318439248 1.137690106146416 0  3.401387818865455 1 0  2.38196601125049 1 0  2.586929681560752 1.137690106146416 0  2.741180954897836 1.258819045102164 0  2.862309893853584 1.413070318439248 0  3 1.61803398874951 0  3.156591652594843 1.626366610379372 0  3.324115759755033 1.648231519510065 0  3.507774721069991 1.677032961426654 0  3.707106781186353 1.707106781186352 0  3.677032961426654 1.507774721069991 0  3.648231519510065 1.324115759755033 0  3.626366610379372 1.156591652594843 0  3.61803398874951 1 0  2.373633389620628 1.156591652594843 0  2.558367334823981 1.294421776784013 0  2.705578223215987 1.441632665176019 0  2.843408347405157 1.626366610379372 0  2.351768480489935 1.324115759755033 0  2.524397193004713 1.475602806995287 0  2.675884240244967 1.648231519510065 0  2.322967038573346 1.507774721069991 0  2.492225278930009 1.677032961426654 0  2.292893218813647 1.707106781186352 0  2 4.61803398874951 0  1.843408347405157 4.626366610379371 0  2 4.401387818865455 0  1.675884240244967 4.648231519510065 0  1.862309893853584 4.413070318439248 0  2 4.207106781185927 0  1.492225278930009 4.677032961426654 0  1.705578223215987 4.441632665176019 0  1.88819660112527 4.22360679774946 0  2 4.059016994374176 0  1.292893218813648 4.707106781186353 0  1.524397193004713 4.475602806995287 0  1.741180954897836 4.258819045102165 0  1.920540688701559 4.079459311298441 0  2 4 0  1.322967038573346 4.507774721069991 0  1.558367334823981 4.294421776784013 0  1.77639320225054 4.11180339887473 0  1.940983005625824 4 0  2 3.940983005625824 0  2.079459311298442 3.920540688701558 0  2.059016994374176 4 0  1.351768480489935 4.324115759755033 0  1.586929681560752 4.137690106146416 0  1.792893218814073 4 0  1.920540688701559 3.920540688701558 0  2 3.792893218814073 0  2.11180339887473 3.77639320225054 0  2.258819045102164 3.741180954897836 0  2.22360679774946 3.88819660112527 0  2.207106781185927 4 0  1.373633389620628 4.156591652594843 0  1.598612181134545 4 0  1.77639320225054 3.88819660112527 0  1.88819660112527 3.77639320225054 0  2 3.598612181134545 0  2.137690106146416 3.586929681560752 0  2.294421776784013 3.558367334823981 0  2.475602806995287 3.524397193004713 0  2.441632665176019 3.705578223215987 0  2.413070318439248 3.862309893853584 0  2.401387818865455 4 0  1.38196601125049 4 0  1.586929681560752 3.862309893853584 0  1.741180954897836 3.741180954897836 0  1.862309893853584 3.586929681560752 0  2 3.38196601125049 0  2.156591652594843 3.373633389620628 0  2.324115759755033 3.351768480489935 0  2.507774721069991 3.322967038573346 0  2.707106781186353 3.292893218813647 0  2.677032961426654 3.492225278930009 0  2.648231519510065 3.675884240244967 0  2.626366610379372 3.843408347405157 0  2.61803398874951 4 0  1.373633389620628 3.843408347405157 0  1.558367334823981 3.705578223215987 0  1.705578223215987 3.558367334823981 0  1.843408347405157 3.373633389620628 0  1.351768480489935 3.675884240244967 0  1.524397193004713 3.524397193004713 0  1.675884240244967 3.351768480489935 0  1.322967038573346 3.492225278930009 0  1.492225278930009 3.322967038573346 0  1.292893218813648 3.292893218813647 0  -6 5.61803398874951 0  -5.843408347405157 5.626366610379371 0  -6 5.401387818865455 0  -5.675884240244967 5.648231519510065 0  -5.862309893853584 5.413070318439248 0  -6 5.207106781185927 0  -5.492225278930009 5.677032961426654 0  -5.705578223215987 5.441632665176019 0  -5.88819660112527 5.22360679774946 0  -6 5.059016994374176 0  -5.292893218813647 5.707106781186353 0  -5.524397193004713 5.475602806995287 0  -5.741180954897835 5.258819045102165 0  -5.920540688701559 5.079459311298441 0  -6 5 0  -5.322967038573346 5.507774721069991 0  -5.558367334823981 5.294421776784013 0  -5.77639320225054 5.11180339887473 0  -5.940983005625824 5 0  -6 4.940983005625824 0  -6.079459311298441 4.920540688701559 0  -6.059016994374176 5 0  -5.351768480489935 5.324115759755033 0  -5.586929681560752 5.137690106146416 0  -5.792893218814073 5 0  -5.920540688701559 4.920540688701559 0  -6 4.792893218814073 0  -6.11180339887473 4.77639320225054 0  -6.258819045102165 4.741180954897835 0  -6.22360679774946 4.88819660112527 0  -6.207106781185927 5 0  -5.373633389620628 5.156591652594843 0  -5.598612181134545 5 0  -5.77639320225054 4.88819660112527 0  -5.88819660112527 4.77639320225054 0  -6 4.598612181134545 0  -6.137690106146416 4.586929681560752 0  -6.294421776784013 4.558367334823981 0  -6.475602806995287 4.524397193004713 0  -6.441632665176019 4.705578223215987 0  -6.413070318439248 4.862309893853584 0  -6.401387818865455 5 0  -5.38196601125049 5 0  -5.586929681560752 4.862309893853584 0  -5.741180954897835 4.741180954897835 0  -5.862309893853584 4.586929681560752 0  -6 4.38196601125049 0  -6.156591652594843 4.373633389620628 0  -6.324115759755033 4.351768480489935 0  -6.507774721069991 4.322967038573346 0  -6.707106781186353 4.292893218813647 0  -6.677032961426654 4.492225278930009 0  -6.648231519510065 4.675884240244967 0  -6.626366610379372 4.843408347405157 0  -6.61803398874951 5 0  -5.373633389620628 4.843408347405157 0  -5.558367334823981 4.705578223215987 0  -5.705578223215987 4.558367334823981 0  -5.843408347405157 4.373633389620628 0  -5.351768480489935 4.675884240244967 0  -5.524397193004713 4.524397193004713 0  -5.675884240244967 4.351768480489935 0  -5.322967038573346 4.492225278930009 0  -5.492225278930009 4.322967038573346 0  -5.292893218813647 4.292893218813647 0  -5 2.38196601125049 0  -4.843408347405157 2.373633389620629 0  -5 2.598612181134545 0  -4.675884240244967 2.351768480489935 0  -4.862309893853584 2.586929681560752 0  -5 2.792893218814073 0  -4.492225278930009 2.322967038573346 0  -4.705578223215987 2.558367334823981 0  -4.88819660112527 2.77639320225054 0  -5 2.940983005625824 0  -4.292893218813647 2.292893218813648 0  -4.524397193004713 2.524397193004713 0  -4.741180954897835 2.741180954897836 0  -4.920540688701559 2.920540688701558 0  -5 3 0  -4.322967038573346 2.492225278930009 0  -4.558367334823981 2.705578223215987 0  -4.77639320225054 2.88819660112527 0  -4.940983005625824 3 0  -5 3.059016994374176 0  -5.079459311298441 3.079459311298442 0  -5.059016994374176 3 0  -4.351768480489935 2.675884240244967 0  -4.586929681560752 2.862309893853584 0  -4.792893218814073 3 0  -4.920540688701559 3.079459311298442 0  -5 3.207106781185927 0  -5.11180339887473 3.22360679774946 0  -5.258819045102165 3.258819045102164 0  -5.22360679774946 3.11180339887473 0  -5.207106781185927 3 0  -4.373633389620628 2.843408347405157 0  -4.598612181134545 3 0  -4.77639320225054 3.11180339887473 0  -4.88819660112527 3.22360679774946 0  -5 3.401387818865455 0  -5.137690106146416 3.413070318439248 0  -5.294421776784013 3.441632665176019 0  -5.475602806995287 3.475602806995287 0  -5.441632665176019 3.294421776784013 0  -5.413070318439248 3.137690106146416 0  -5.401387818865455 3 0  -4.38196601125049 3 0  -4.586929681560752 3.137690106146416 0  -4.741180954897835 3.258819045102164 0  -4.862309893853584 3.413070318439248 0  -5 3.61803398874951 0  -5.156591652594843 3.626366610379372 0  -5.324115759755033 3.648231519510065 0  -5.507774721069991 3.677032961426654 0  -5.707106781186353 3.707106781186353 0  -5.677032961426654 3.507774721069991 0  -5.648231519510065 3.324115759755033 0  -5.626366610379372 3.156591652594843 0  -5.61803398874951 3 0  -4.373633389620628 3.156591652594843 0  -4.558367334823981 3.294421776784013 0  -4.705578223215987 3.441632665176019 0  -4.843408347405157 3.626366610379372 0  -4.351768480489935 3.324115759755033 0  -4.524397193004713 3.475602806995287 0  -4.675884240244967 3.648231519510065 0  -4.322967038573346 3.507774721069991 0  -4.492225278930009 3.677032961426654 0  -4.292893218813647 3.707106781186353 0  5 1 0  5 1.1875 0  4.827254248593689 1 0  5 1.375 0  4.774625127436217 1.190725542188815 0  4.654508497187377 1 0  4.795685564948176 1.503494320171386 0  5 1.5625 0  4.633229176833026 1.366257369669115 0  4.535571696635581 1.176836689821396 0  4.481762745781066 1 0  4.856267205581102 1.661206773798245 0  5 1.75 0  4.689409473820198 1.687699236167515 0  4.60784560155642 1.536324222026939 0  4.458027710481697 1.451934295621926 0  4.353363905980899 1.28736948322329 0  4.309016994374755 1 0  4.813772758633532 1.87305606464568 0  5 1.9375 0  4.658258320854826 1.842998343199929 0  4.530548399033449 1.675635120559427 0  4.377973042682878 1.629775066020617 0  4.241466707589882 1.467498817908458 0  4.068363
[...]
<CellData  Scalars="f_7206"> 
<DataArray  type="Float64"  Name="f_7206"  format="ascii">2.5245687680649026e-01   2.5245687680653628e-01   2.5245687680649009e-01   2.5245687680649009e-01   2.5347262772905232e-01   2.5347262772895246e-01   2.5347262772895246e-01   2.5347262772895246e-01   2.5347262772905288e-01   2.5347262772900303e-01   2.5347262772905166e-01   2.5347262772905294e-01   2.5517227880784565e-01   2.5517227880784565e-01   2.5517227880789151e-01   2.5517227880779986e-01   1.7990331376330956e-01   2.1789793535411189e-01   1.7990331376330956e-01   2.1789793535411206e-01   2.6012739234257554e-01   2.6012739234257554e-01   2.6012739234257387e-01   2.6012739234257554e-01   2.4228343648138154e-01   2.4228343648138134e-01   2.4228343648138098e-01   2.4228343648133066e-01   1.6366136012175153e-01   2.3628571917821781e-01   1.6366136012171625e-01   2.3628571917826938e-01   1.7990331376331004e-01   2.1789793535415894e-01   1.7990331376331017e-01   2.1789793535406521e-01   2.4228343648133049e-01   2.4228343648133011e-01   2.4228343648133058e-01   2.4228343648143150e-01   2.6012739234257348e-01   2.6012739234250759e-01   2.6012739234257493e-01   2.6012739234257348e-01   1.6366136012171606e-01   2.3628571917821822e-01   1.6366136012171625e-01   2.3628571917821761e-01   2.5466472829653997e-01   2.5466472829649028e-01   2.5466472829653997e-01   2.5466472829649028e-01   2.6596858120633327e-01   2.6596858120627503e-01   2.6596858120633377e-01   2.6596858120633377e-01   2.5466472829649067e-01   2.5466472829649067e-01   2.5466472829644016e-01   2.5466472829654035e-01   2.6372748974922711e-01   2.6372748974928623e-01   2.6372748974922711e-01   2.6372748974934540e-01   2.0710678118631182e-01   2.0710678118673279e-01   2.0710678118631182e-01   2.0710678118673431e-01   1.5164400941195191e-01   2.0568052880167845e-01   1.5164400941195191e-01   2.0568052880167806e-01   1.5164400941194997e-01   2.0568052880155288e-01   1.5164400941185865e-01   2.0568052880167975e-01   2.8535392433803985e-01   2.8535392433804307e-01   2.8535392433804119e-01   2.8535392433804113e-01   1.8002239732794351e-01   2.0076349968746526e-01   1.8002239732794340e-01   2.0076349968756008e-01   2.5509216736219886e-01   2.5509216736219748e-01   2.5509216736226520e-01   2.5509216736219886e-01   1.6676799079164281e-01   1.9993338787828210e-01   1.6676799079164270e-01   1.9993338787828152e-01   1.6894743292658876e-01   2.2760690005387491e-01   1.6894743292654210e-01   2.2760690005381098e-01   1.8002239732798556e-01   2.0076349968756049e-01   1.8002239732802844e-01   2.0076349968751267e-01   1.6676799079164387e-01   1.9993338787828260e-01   1.6676799079164362e-01   1.9993338787828174e-01   2.5509216736226581e-01   2.5509216736219825e-01   2.5509216736219714e-01   2.5509216736219825e-01   1.6894743292654130e-01   2.2760690005381193e-01   1.6894743292654135e-01   2.2760690005387368e-01   2.5209090757984098e-01   2.5209090757984004e-01   2.5209090757984082e-01   2.5209090757984004e-01   2.7983797163678453e-01   2.7983797163678559e-01   2.7983797163678525e-01   2.7983797163668767e-01   2.5209090757984026e-01   2.5209090757995767e-01   2.5209090757995523e-01   2.5209090757984026e-01   2.7514257387917318e-01   2.7514257387907409e-01   2.7514257387917279e-01   2.7514257387907409e-01   2.0530579772264426e-01   1.9112081767009770e-01   2.0530579772262275e-01   1.9112081767011771e-01   2.3301443180246753e-01   1.7227619463906485e-01   2.3301443180249087e-01   1.7227619463903007e-01   2.0844557425747676e-01   1.8609405740380774e-01   2.0844557425747676e-01   1.8609405740380755e-01   2.1244388800331204e-01   1.6975108267909511e-01   2.1244388800336383e-01   1.6975108267907435e-01   2.5379288538538353e-01   1.6328650076343140e-01   2.5379288538538353e-01   1.6328650076342444e-01   2.6482958981775084e-01   1.5372006750236622e-01   2.6482958981780980e-01   1.5372006750236675e-01   2.5037562352966641e-01   1.6388726527423139e-01   2.5037562352966641e-01   1.6388726527423925e-01   2.5786293575203229e-01   1.5783370890684834e-01   2.5786293575203229e-01   1.5783370890686418e-01   2.3144485309548957e-01   1.6466202901132818e-01   2.3144485309548957e-01   1.6466202901132718e-01   2.2104972590598157e-01   1.8086678988159435e-01   2.2104972590588623e-01   1.8086678988151544e-01   2.7738511199295784e-01   1.4307437431415532e-01   2.7738511199290866e-01   1.4307437431415537e-01   2.0172715746883027e-01   1.2651234365035768e-01   2.0172715746869746e-01   1.2651234365039862e-01   2.4571430772521399e-01   1.5726933675364008e-01   2.4571430772521399e-01   1.5726933675363991e-01   2.6337335611637447e-01   1.4488576320245206e-01   2.6337335611637275e-01   1.4488576320247162e-01   2.1608042516604117e-01   1.5177251284709825e-01   2.1608042516604112e-01   1.5177251284707194e-01   2.5024985794282351e-01   1.6034902114542260e-01   2.5024985794282351e-01   1.6034902114544142e-01   2.0530579772264415e-01   1.9112081767013869e-01   2.0530579772263341e-01   1.9112081767010869e-01   2.0844557425744906e-01   1.8609405740383284e-01   2.0844557425747681e-01   1.8609405740380752e-01   2.3301443180248019e-01   1.7227619463902979e-01   2.3301443180246845e-01   1.7227619463903865e-01   2.1244388800333822e-01   1.6975108267907540e-01   2.1244388800331274e-01   1.6975108267907543e-01   2.3144485309549115e-01   1.6466202901132831e-01   2.3144485309549140e-01   1.6466202901132690e-01   2.7738511199295751e-01   1.4307437431410466e-01   2.7738511199295751e-01   1.4307437431415521e-01   2.2104972590593550e-01   1.8086678988155561e-01   2.2104972590598293e-01   1.8086678988151680e-01   2.0172715746882899e-01   1.2651234365027439e-01   2.0172715746882899e-01   1.2651234365035752e-01   2.5379288538537093e-01   1.6328650076343129e-01   2.5379288538537093e-01   1.6328650076342455e-01   2.5037562352969006e-01   1.6388726527424713e-01   2.5037562352967768e-01   1.6388726527423930e-01   2.6482958981777910e-01   1.5372006750236633e-01   2.6482958981780857e-01   1.5372006750234957e-01   2.5786293575203229e-01   1.5783370890684834e-01   2.5786293575203229e-01   1.5783370890684834e-01   2.1608042516607809e-01   1.5177251284709850e-01   2.1608042516604067e-01   1.5177251284707205e-01   2.6337335611637303e-01   1.4488576320245167e-01   2.6337335611630042e-01   1.4488576320245147e-01   2.4571430772524122e-01   1.5726933675362206e-01   2.4571430772524119e-01   1.5726933675363955e-01   2.5024985794282478e-01   1.6034902114542213e-01   2.5024985794282467e-01   1.6034902114544158e-01   2.0530579772260141e-01   1.9112081767009839e-01   2.0530579772264443e-01   1.9112081767013833e-01   2.0844557425747665e-01   1.8609405740375876e-01   2.0844557425753218e-01   1.8609405740375790e-01   2.3301443180242057e-01   1.7227619463909921e-01   2.3301443180251413e-01   1.7227619463903010e-01   2.1244388800336378e-01   1.6975108267903360e-01   2.1244388800331229e-01   1.6975108267907510e-01   2.3144485309549029e-01   1.6466202901132918e-01   2.3144485309549029e-01   1.6466202901132632e-01   2.7738511199300664e-01   1.4307437431412981e-01   2.7738511199290838e-01   1.4307437431413000e-01   2.2104972590588823e-01   1.8086678988159421e-01   2.2104972590598337e-01   1.8086678988159471e-01   2.0172715746869554e-01   1.2651234365035743e-01   2.0172715746882833e-01   1.2651234365035771e-01   2.5379288538545197e-01   1.6328650076341622e-01   2.5379288538535988e-01   1.6328650076341647e-01   2.5037562352966658e-01   1.6388726527423150e-01   2.5037562352966625e-01   1.6388726527423148e-01   2.6482958981774957e-01   1.5372006750233194e-01   2.6482958981780857e-01   1.5372006750236666e-01   2.5786293575205815e-01   1.5783370890683251e-01   2.5786293575200642e-01   1.5783370890686418e-01   2.1608042516604112e-01   1.5177251284707252e-01   2.1608042516604067e-01   1.5177251284707183e-01   2.6337335611629986e-01   1.4488576320245167e-01   2.6337335611637297e-01   1.4488576320245147e-01   2.4571430772529682e-01   1.5726933675364002e-01   2.4571430772524144e-01   1.5726933675363985e-01   2.5024985794282439e-01   1.6034902114546146e-01   2.5024985794282439e-01   1.6034902114542190e-01   2.0530579772260141e-01   1.9112081767013755e-01   2.0530579772264443e-01   1.9112081767009786e-01   2.3301443180242049e-01   1.7227619463903010e-01   2.3301443180251438e-01   1.7227619463906477e-01   2.0844557425742138e-01   1.8609405740375831e-01   2.0844557425747676e-01   1.8609405740380774e-01   2.1244388800331196e-01   1.6975108267899142e-01   2.1244388800331215e-01   1.6975108267903311e-01   2.5379288538535988e-01   1.6328650076341658e-01   2.5379288538535988e-01   1.6328650076341622e-01   2.6482958981780980e-01   1.5372006750236675e-01   2.6482958981775084e-01   1.5372006750233186e-01   2.5037562352966641e-01   1.6388726527423139e-01   2.5037562352971438e-01   1.6388726527426281e-01   2.5786293575205815e-01   1.5783370890683251e-01   2.5786293575200642e-01   1.5783370890683251e-01   2.3144485309549140e-01   1.6466202901132673e-01   2.3144485309549140e-01   1.6466202901132915e-01   2.2104972590588659e-01   1.8086678988159277e-01   2.2104972590588709e-01   1.8086678988159455e-01   2.7738511199300697e-01   1.4307437431413017e-01   2.7738511199300697e-01   1.4307437431407910e-01   2.0172715746883010e-01   1.2651234365027350e-01   2.0172715746883010e-01   1.2651234365027461e-01   2.4571430772524167e-01   1.5726933675360449e-01   2.4571430772524167e-01   1.5726933675363991e-01   2.6337335611644552e-01   1.4488576320245139e-01   2.6337335611637475e-01   1.4488576320245214e-01   2.1608042516604112e-01   1.5177251284707205e-01   2.1608042516604109e-01   1.5177251284707236e-01   2.5024985794282339e-01   1.6034902114546096e-01   2.5024985794288501e-01   1.6034902114542274e-01   2.5245687680649026e-01   2.5245687680644385e-01   2.5245687680644385e-01   2.5245687680653628e-01   2.5347262772905294e-01   2.5347262772905166e-01   2.5347262772915280e-01   2.5347262772895301e-01   2.5347262772905232e-01   2.5347262772905232e-01   2.5347262772895246e-01   2.5347262772895246e-01   2.5517227880779980e-01   2.5517227880779980e-01   2.5517227880779980e-01   2.5517227880789151e-01   1.7990331376327173e-01   2.1789793535415836e-01   1.7990331376334850e-01   2.1789793535415894e-01   2.6012739234257348e-01   2.6012739234257493e-01   2.6012739234257443e-01   2.6012739234257348e-01   2.4228343648133049e-01   2.4228343648138126e-01   2.4228343648127940e-01   2.4228343648138079e-01   1.6366136012171625e-01   2.3628571917831970e-01   1.6366136012171606e-01   2.3628571917832034e-01   1.7990331376334801e-01   2.1789793535415861e-01   1.7990331376334801e-01   2.1789793535406532e-01   2.4228343648138154e-01   2.4228343648138098e-01   2.4228343648138134e-01   2.4228343648138134e-01   2.6012739234257554e-01   2.6012739234270765e-01   2.6012739234257554e-01   2.6012739234257554e-01   1.6366136012171625e-01   2.3628571917832042e-01   1.6366136012171617e-01   2.3628571917821781e-01   2.5466472829649067e-01   2.5466472829648984e-01   2.5466472829649067e-01   2.5466472829639131e-01   2.6596858120627453e-01   2.6596858120627503e-01   2.6596858120627503e-01   2.6596858120639255e-01   2.5466472829649028e-01   2.5466472829649028e-01   2.5466472829658965e-01   2.5466472829649028e-01   2.6372748974934540e-01   2.6372748974934540e-01   2.6372748974934540e-01   2.6372748974922711e-01   2.0710678118631182e-01   2.0710678118631182e-01   2.0710678118631182e-01   2.0710678118631029e-01   1.5164400941176706e-01   2.0568052880167975e-01   1.5164400941194997e-01   2.0568052880167711e-01   1.5164400941195191e-01   2.0568052880167806e-01   1.5164400941195191e-01   2.0568052880192680e-01   2.8535392433838380e-01   2.8535392433838508e-01   2.8535392433838697e-01   2.8535392433838502e-01   1.8002239732794267e-01   2.0076349968746487e-01   1.8002239732794267e-01   2.0076349968756049e-01   2.5509216736226581e-01   2.5509216736212981e-01   2.5509216736213103e-01   2.5509216736213103e-01   1.6676799079164362e-01   1.9993338787815096e-01   1.6676799079153479e-01   1.9993338787828260e-01   1.6894743292658793e-01   2.2760690005374828e-01   1.6894743292649475e-01   2.2760690005387466e-01   1.8002239732802916e-01   2.0076349968756008e-01   1.8002239732794351e-01   2.0076349968746526e-01   1.6676799079164270e-01   1.9993338787828152e-01   1.6676799079164281e-01   1.9993338787828210e-01   2.5509216736213158e-01   2.5509216736213064e-01   2.5509216736213025e-01   2.5509216736226614e-01   1.6894743292649553e-01   2.2760690005374828e-01   1.6894743292649567e-01   2.2760690005374945e-01   2.5209090757995523e-01   2.5209090757995523e-01   2.5209090757995767e-01   2.5209090757995523e-01   2.7983797163678459e-01   2.7983797163678525e-01   2.7983797163678559e-01   2.7983797163678525e-01   2.5209090757972602e-01   2.5209090757972585e-01   2.5209090757995495e-01   2.5209090757972508e-01   2.7514257387897495e-01   2.7514257387897467e-01   2.7514257387897495e-01   2.7514257387917318e-01   2.0530579772268742e-01   1.9112081767017847e-01   2.0530579772260141e-01   1.9112081767009828e-01   2.3301443180251288e-01   1.7227619463899474e-01   2.3301443180260642e-01   1.7227619463906504e-01   2.0844557425742127e-01   1.8609405740375876e-01   2.0844557425742144e-01   1.8609405740375712e-01   2.1244388800346645e-01   1.6975108267899222e-01   2.1244388800336286e-01   1.6975108267907466e-01   2.5379288538535943e-01   1.6328650076341647e-01   2.5379288538526740e-01   1.6328650076341647e-01   2.6482958981786753e-01   1.5372006750233244e-01   2.6482958981774957e-01   1.5372006750233244e-01   2.5037562352966741e-01   1.6388726527429429e-01   2.5037562352966741e-01   1.6388726527429429e-01   2.5786293575205815e-01   1.5783370890686418e-01   2.5786293575195468e-01   1.5783370890680085e-01   2.3144485309549029e-01   1.6466202901083016e-01   2.3144485309478890e-01   1.6466202901132818e-01   2.2104972590579192e-01   1.8086678988174848e-01   2.2104972590579219e-01   1.8086678988159571e-01   2.7738511199300531e-01   1.4307437431417958e-01   2.7738511199300531e-01   1.4307437431418027e-01   2.0172715746856318e-01   1.2651234365035691e-01   2.0172715746883052e-01   1.2651234365035882e-01   2.4571430772518760e-01   1.5726933675367516e-01   2.4571430772529909e-01   1.5726933675367608e-01   2.6337335611637369e-01   1.4488576320245089e-01   2.6337335611637369e-01   1.4488576320237179e-01   2.1608042516604153e-01   1.5177251284717622e-01   2.1608042516604065e-01   1.5177251284696744e-01   2.5024985794276255e-01   1.6034902114546079e-01   2.5024985794276344e-01   1.6034902114546173e-01   2.0530579772260038e-01   1.9112081767009884e-01   2.0530579772268701e-01   1.9112081767017891e-01   2.0844557425753163e-01   1.8609405740375887e-01   2.0844557425764162e-01   1.8609405740375723e-01   2.3301443180251513e-01   1.7227619463906543e-01   2.3301443180242068e-01   1.7227619463899455e-01   2.1244388800336519e-01   1.6975108267915814e-01   2.1244388800336519e-01   1.6975108267899261e-01   2.3144485309619278e-01   1.6466202901083019e-01   2.3144485309549140e-01   1.6466202901132823e-01   2.7738511199281174e-01   1.4307437431417996e-01   2.7738511199300830e-01   1.4307437431418027e-01   2.2104972590579272e-01   1.8086678988159427e-01   2.2104972590617222e-01   1.8086678988143917e-01   2.0172715746882977e-01   1.2651234365035791e-01   2.0172715746909539e-01   1.2651234365035757e-01   2.5379288538536054e-01   1.6328650076341655e-01   2.5379288538536054e-01   1.6328650076347581e-01   2.5037562352966680e-01   1.6388726527423125e-01   2.5037562352966602e-01   1.6388726527423125e-01   2.6482958981786880e-01   1.5372006750240094e-01   2.6482958981775084e-01   1.5372006750233252e-01   2.5786293575205815e-01   1.5783370890680085e-01   2.5786293575205815e-01   1.5783370890686418e-01   2.1608042516618861e-01   1.5177251284707288e-01   2.1608042516604067e-01   1.5177251284717527e-01   2.6337335611622892e-01   1.4488576320245161e-01   2.6337335611637464e-01   1.4488576320245139e-01   2.4571430772529848e-01   1.5726933675367608e-01   2.4571430772518688e-01   1.5726933675360405e-01   2.5024985794263938e-01   1.6034902114546132e-01   2.5024985794276200e-01   1.6034902114538224e-01   2.0530579772268742e-01   1.9112081767009786e-01   2.0530579772260141e-01   1.9112081767017794e-01   2.0844557425753263e-01   1.8609405740385762e-01   2.0844557425742191e-01   1.8609405740375790e-01   2.3301443180251363e-01   1.7227619463913388e-01   2.3301443180251363e-01   1.7227619463899546e-01   2.1244388800336378e-01   1.6975108267907460e-01   2.1244388800336408e-01   1.6975108267907460e-01   2.3144485309479004e-01   1.6466202901182816e-01   2.3144485309549140e-01   1.6466202901082683e-01   2.7738511199281007e-01   1.4307437431418088e-01   2.7738511199300664e-01   1.4307437431418071e-01   2.2104972590598196e-01   1.8086678988159455e-01   2.2104972590579172e-01   1.8086678988159327e-01   2.0172715746909539e-01   1.2651234365019134e-01   2.0172715746882977e-01   1.2651234365052352e-01   2.5379288538535988e-01   1.6328650076341622e-01   2.5379288538535988e-01   1.6328650076341622e-01   2.5037562352966658e-01   1.6388726527423150e-01   2.5037562352976217e-01   1.6388726527416869e-01   2.6482958981775029e-01   1.5372006750240005e-01   2.6482958981775029e-01   1.5372006750233275e-01   2.5786293575205815e-01   1.5783370890680085e-01   2.5786293575205815e-01   1.5783370890686418e-01   2.1608042516589338e-01   1.5177251284707263e-01   2.1608042516604087e-01   1.5177251284707169e-01   2.6337335611652007e-01   1.4488576320237168e-01   2.6337335611637219e-01   1.4488576320245131e-01   2.4571430772529682e-01   1.5726933675367544e-01   2.4571430772529682e-01   1.5726933675360441e-01   2.5024985794276217e-01   1.6034902114538313e-01   2.5024985794276222e-01   1.6034902114538221e-01   2.0530579772268742e-01   1.9112081767001707e-01   2.0530579772251542e-01   1.9112081767001782e-01   2.3301443180242098e-01   1.7227619463899546e-01   2.3301443180242098e-01   1.7227619463906477e-01   2.0844557425753263e-01   1.8609405740385676e-01   2.0844557425742191e-01   1.8609405740375876e-01   2.1244388800336378e-01   1.6975108267907393e-01   2.1244388800336378e-01   1.6975108267899183e-01   2.5379288538535988e-01   1.6328650076335702e-01   2.5379288538554395e-01   1.6328650076341622e-01   2.6482958981775029e-01   1.5372006750246966e-01   2.6482958981798610e-01   1.5372006750233161e-01   2.5037562352966625e-01   1.6388726527429429e-01   2.5037562352976256e-01   1.6388726527423148e-01   2.5786293575185115e-01   1.5783370890686418e-01   2.5786293575205815e-01   1.5783370890686418e-01   2.3144485309549140e-01   1.6466202901182481e-01   2.3144485309619278e-01   1.6466202901083016e-01   2.2104972590598143e-01   1.8086678988143803e-01   2.2104972590598196e-01   1.8086678988143934e-01   2.7738511199281007e-01   1.4307437431418071e-01   2.7738511199261351e-01   1.4307437431428227e-01   2.0172715746882980e-01   1.2651234365035696e-01   2.0172715746882977e-01   1.2651234365052449e-01   2.4571430772507535e-01   1.5726933675360438e-01   2.4571430772529682e-01   1.5726933675360458e-01   2.6337335611622609e-01   1.4488576320245131e-01   2.6337335611622786e-01   1.4488576320237168e-01   2.1608042516604090e-01   1.5177251284707169e-01   2.1608042516589338e-01   1.5177251284696872e-01   2.5024985794288501e-01   1.6034902114546090e-01   2.5024985794263943e-01   1.6034902114546185e-01   2.5245687680658246e-01   2.5245687680658246e-01   2.5245687680621287e-01   2.5245687680621287e-01   2.5347262772865253e-01   2.5347262772905388e-01   2.5347262772905199e-01   2.5347262772905199e-01   2.5347262772905199e-01   2.5347262772905199e-01   2.5347262772905388e-01   2.5347262772905199e-01   2.5517227880770804e-01   2.5517227880807491e-01   2.5517227880770804e-01   2.5517227880807497e-01   1.7990331376304097e-01   2.1789793535415586e-01   1.7990331376304144e-01   2.1789793535416019e-01   2.6012739234257437e-01   2.6012739234257720e-01   2.6012739234257437e-01   2.6012739234257437e-01   2.4228343648158496e-01   2.4228343648117662e-01   2.4228343648117862e-01   2.4228343648117862e-01   1.6366136012