<?xml version="1.0"?>
<VTKFile type="UnstructuredGrid"  version="0.1"  >
<UnstructuredGrid>
<Piece  NumberOfPoints="2193" NumberOfCells="3988">
<Points>
<DataArray  type="Float64"  NumberOfComponents="3"  format="ascii">3 0.3207336731613248 0  2.829563040797541 0.3182521631901648 0  3 0.5085110656648704 0  2.655821106513804 0.3116422130276078 0  2.835061318114777 0.5051839543443308 0  3 0.6897344810094523 0  2.477003082583512 0.3026707767780156 0  2.664647711840426 0.4969715677606382 0  2.842448462936374 0.6848969258727482 0  3 0.8601728169611075 0  2.292893218813282 0.2928932188132819 0  2.486940241264027 0.4869402412640268 0  2.674832775912863 0.6748327759128629 0  2.852474570368216 0.8524745703682164 0  3 1 0  2.302670776778016 0.4770030825835117 0  2.496971567760638 0.6646477118404255 0  2.684896925872748 0.8424484629363741 0  2.860172816961108 1 0  3 1.139827183038892 0  3.147525429631784 1.147525429631784 0  3.139827183038892 1 0  2.311642213027608 0.655821106513804 0  2.505183954344331 0.8350613181147769 0  2.689734481009452 1 0  2.852474570368216 1.147525429631784 0  3 1.310265518990548 0  3.157551537063626 1.315103074127252 0  3.325167224087137 1.325167224087137 0  3.315103074127252 1.157551537063626 0  3.310265518990548 1 0  2.318252163190165 0.8295630407975412 0  2.50851106566487 1 0  2.684896925872748 1.157551537063626 0  2.842448462936374 1.315103074127252 0  3 1.49148893433513 0  3.164938681885223 1.494816045655669 0  3.335352288159574 1.503028432239362 0  3.513059758735973 1.513059758735973 0  3.503028432239362 1.335352288159575 0  3.494816045655669 1.164938681885223 0  3.49148893433513 1 0  2.320733673161325 1 0  2.505183954344331 1.164938681885223 0  2.674832775912863 1.325167224087137 0  2.835061318114777 1.494816045655669 0  3 1.679266326838675 0  3.170436959202459 1.681747836809835 0  3.344178893486196 1.688357786972392 0  3.522996917416489 1.697329223221984 0  3.707106781186718 1.707106781186718 0  3.697329223221984 1.522996917416488 0  3.688357786972392 1.344178893486196 0  3.681747836809835 1.170436959202459 0  3.679266326838675 1 0  2.318252163190165 1.170436959202459 0  2.496971567760638 1.335352288159575 0  2.664647711840426 1.503028432239362 0  2.829563040797541 1.681747836809835 0  2.311642213027608 1.344178893486196 0  2.486940241264027 1.513059758735973 0  2.655821106513804 1.688357786972392 0  2.302670776778016 1.522996917416488 0  2.477003082583511 1.697329223221984 0  2.292893218813282 1.707106781186718 0  2 4.679266326838675 0  1.829563040797541 4.681747836809835 0  2 4.49148893433513 0  1.655821106513804 4.688357786972392 0  1.835061318114777 4.494816045655669 0  2 4.310265518990548 0  1.477003082583512 4.697329223221985 0  1.664647711840425 4.503028432239362 0  1.842448462936374 4.315103074127252 0  2 4.139827183038893 0  1.292893218813282 4.707106781186718 0  1.486940241264027 4.513059758735973 0  1.674832775912863 4.325167224087137 0  1.852474570368216 4.147525429631783 0  2 4 0  1.302670776778016 4.522996917416489 0  1.496971567760638 4.335352288159575 0  1.684896925872748 4.157551537063626 0  1.860172816961108 4 0  2 3.860172816961108 0  2.147525429631784 3.852474570368216 0  2.139827183038892 4 0  1.311642213027608 4.344178893486196 0  1.505183954344331 4.164938681885223 0  1.689734481009452 4 0  1.852474570368216 3.852474570368216 0  2 3.689734481009452 0  2.157551537063626 3.684896925872748 0  2.325167224087137 3.674832775912863 0  2.315103074127252 3.842448462936374 0  2.310265518990548 4 0  1.318252163190165 4.170436959202459 0  1.50851106566487 4 0  1.684896925872748 3.842448462936374 0  1.842448462936374 3.684896925872748 0  2 3.50851106566487 0  2.164938681885223 3.505183954344331 0  2.335352288159574 3.496971567760638 0  2.513059758735973 3.486940241264027 0  2.503028432239362 3.664647711840426 0  2.494816045655669 3.835061318114777 0  2.49148893433513 4 0  1.320733673161325 4 0  1.505183954344331 3.835061318114777 0  1.674832775912863 3.674832775912863 0  1.835061318114777 3.505183954344331 0  2 3.320733673161325 0  2.170436959202459 3.318252163190165 0  2.344178893486196 3.311642213027608 0  2.522996917416489 3.302670776778016 0  2.707106781186718 3.292893218813282 0  2.697329223221984 3.477003082583511 0  2.688357786972392 3.655821106513804 0  2.681747836809835 3.829563040797541 0  2.679266326838675 4 0  1.318252163190165 3.829563040797541 0  1.496971567760638 3.664647711840426 0  1.664647711840425 3.496971567760638 0  1.829563040797541 3.318252163190165 0  1.311642213027608 3.655821106513804 0  1.486940241264027 3.486940241264027 0  1.655821106513804 3.311642213027608 0  1.302670776778016 3.477003082583511 0  1.477003082583512 3.302670776778016 0  1.292893218813282 3.292893218813282 0  -6 5.679266326838675 0  -5.829563040797542 5.681747836809835 0  -6 5.49148893433513 0  -5.655821106513804 5.688357786972392 0  -5.835061318114777 5.494816045655669 0  -6 5.310265518990548 0  -5.477003082583511 5.697329223221985 0  -5.664647711840425 5.503028432239362 0  -5.842448462936374 5.315103074127252 0  -6 5.139827183038893 0  -5.292893218813282 5.707106781186718 0  -5.486940241264027 5.513059758735973 0  -5.674832775912863 5.325167224087137 0  -5.852474570368217 5.147525429631783 0  -6 5 0  -5.302670776778015 5.522996917416489 0  -5.496971567760638 5.335352288159575 0  -5.684896925872748 5.157551537063626 0  -5.860172816961107 5 0  -6 4.860172816961107 0  -6.147525429631783 4.852474570368217 0  -6.139827183038893 5 0  -5.311642213027608 5.344178893486196 0  -5.505183954344331 5.164938681885223 0  -5.689734481009452 5 0  -5.852474570368217 4.852474570368217 0  -6 4.689734481009452 0  -6.157551537063626 4.684896925872748 0  -6.325167224087137 4.674832775912863 0  -6.315103074127252 4.842448462936374 0  -6.310265518990548 5 0  -5.318252163190165 5.170436959202459 0  -5.50851106566487 5 0  -5.684896925872748 4.842448462936374 0  -5.842448462936374 4.684896925872748 0  -6 4.50851106566487 0  -6.164938681885223 4.505183954344331 0  -6.335352288159575 4.496971567760638 0  -6.513059758735973 4.486940241264027 0  -6.503028432239362 4.664647711840425 0  -6.494816045655669 4.835061318114777 0  -6.49148893433513 5 0  -5.320733673161325 5 0  -5.505183954344331 4.835061318114777 0  -5.674832775912863 4.674832775912863 0  -5.835061318114777 4.505183954344331 0  -6 4.320733673161325 0  -6.170436959202458 4.318252163190165 0  -6.344178893486196 4.311642213027608 0  -6.522996917416489 4.302670776778015 0  -6.707106781186718 4.292893218813282 0  -6.697329223221985 4.477003082583511 0  -6.688357786972392 4.655821106513804 0  -6.681747836809835 4.829563040797541 0  -6.679266326838675 5 0  -5.318252163190165 4.829563040797542 0  -5.496971567760638 4.664647711840425 0  -5.664647711840425 4.496971567760638 0  -5.829563040797542 4.318252163190165 0  -5.311642213027608 4.655821106513804 0  -5.486940241264027 4.486940241264027 0  -5.655821106513804 4.311642213027608 0  -5.302670776778015 4.477003082583511 0  -5.477003082583511 4.302670776778015 0  -5.292893218813282 4.292893218813282 0  -5 2.320733673161325 0  -4.829563040797542 2.318252163190165 0  -5 2.50851106566487 0  -4.655821106513804 2.311642213027608 0  -4.835061318114777 2.505183954344331 0  -5 2.689734481009452 0  -4.477003082583511 2.302670776778016 0  -4.664647711840425 2.496971567760638 0  -4.842448462936374 2.684896925872748 0  -5 2.860172816961108 0  -4.292893218813282 2.292893218813282 0  -4.486940241264027 2.486940241264027 0  -4.674832775912863 2.674832775912863 0  -4.852474570368217 2.852474570368216 0  -5 3 0  -4.302670776778015 2.477003082583511 0  -4.496971567760638 2.664647711840426 0  -4.684896925872748 2.842448462936374 0  -4.860172816961107 3 0  -5 3.139827183038892 0  -5.147525429631783 3.147525429631784 0  -5.139827183038893 3 0  -4.311642213027608 2.655821106513804 0  -4.505183954344331 2.835061318114777 0  -4.689734481009452 3 0  -4.852474570368217 3.147525429631784 0  -5 3.310265518990548 0  -5.157551537063626 3.315103074127252 0  -5.325167224087137 3.325167224087137 0  -5.315103074127252 3.157551537063626 0  -5.310265518990548 3 0  -4.318252163190165 2.829563040797541 0  -4.50851106566487 3 0  -4.684896925872748 3.157551537063626 0  -4.842448462936374 3.315103074127252 0  -5 3.49148893433513 0  -5.164938681885223 3.494816045655669 0  -5.335352288159575 3.503028432239362 0  -5.513059758735973 3.513059758735973 0  -5.503028432239362 3.335352288159574 0  -5.494816045655669 3.164938681885223 0  -5.49148893433513 3 0  -4.320733673161325 3 0  -4.505183954344331 3.164938681885223 0  -4.674832775912863 3.325167224087137 0  -4.835061318114777 3.494816045655669 0  -5 3.679266326838675 0  -5.170436959202458 3.681747836809835 0  -5.344178893486196 3.688357786972392 0  -5.522996917416489 3.697329223221984 0  -5.707106781186718 3.707106781186718 0  -5.697329223221985 3.522996917416489 0  -5.688357786972392 3.344178893486196 0  -5.681747836809835 3.170436959202459 0  -5.679266326838675 3 0  -4.318252163190165 3.170436959202459 0  -4.496971567760638 3.335352288159574 0  -4.664647711840425 3.503028432239362 0  -4.829563040797542 3.681747836809835 0  -4.311642213027608 3.344178893486196 0  -4.486940241264027 3.513059758735973 0  -4.655821106513804 3.688357786972392 0  -4.302670776778015 3.522996917416489 0  -4.477003082583511 3.697329223221984 0  -4.292893218813282 3.707106781186718 0  5 1 0  5 1.1875 0  4.834908290854834 1 0  4.777127948738723 1.195499924639372 0  4.839086815232164 1.346682114508668 0  5 1.375 0  4.669816581709669 1 0  4.632764363488562 1.365485527798476 0  4.794926146457388 1.50398688558759 0  5 1.5625 0  4.642258798879609 1.142328639834177 0  4.504724872564504 1 0  4.500247074421719 1.171475564681439 0  4.339633163419338 1 0  4.498775742703332 1.356177489340095 0  4.497705853685118 1.490484769177636 0  4.645521174961488 1.514732206813389 0  4.689691594422786 1.689472084520371 0  4.856231811549666 1.66136337359662 0  5 1.75 0  4.25035262013317 1.188684954713487 0  4.364655839949951 1.363349780835463 0  4.36358595
[...]
<CellData  Scalars="f_6461"> 
<DataArray  type="Float64"  Name="f_6461"  format="ascii">2.2282330777439310e-01   2.2241249471938165e-01   2.2241249471936950e-01   2.2306840249183635e-01   2.1276555590419921e-01   2.2251542713299147e-01   2.1933478473034371e-01   2.1772317044339981e-01   2.1276555590419918e-01   2.1933478473035600e-01   2.2251542713299235e-01   2.1772317044338799e-01   2.2232479311759695e-01   2.2406629542205375e-01   2.2232479311760892e-01   2.2382228826261291e-01   2.0710678118653567e-01   2.1284232987981072e-01   2.1284232987981122e-01   2.2254704779538712e-01   2.0854838095949832e-01   2.2157902815776381e-01   2.0982739864359526e-01   2.1541232310656830e-01   2.0854838095948636e-01   2.0982739864360805e-01   2.2157902815774991e-01   2.1541232310656808e-01   2.2007872894778543e-01   2.2489819190518148e-01   2.2007872894778607e-01   2.2483428584025164e-01   2.0417041990784654e-01   1.9687523829796780e-01   2.0340448049757648e-01   1.9859931338260983e-01   1.9161467482046529e-01   1.9066082624572314e-01   1.9283953929280737e-01   1.9103934347469062e-01   1.9926557760833624e-01   2.0211119532999258e-01   1.8978243243588883e-01   1.8968478601961469e-01   1.9268180107152058e-01   1.8988810602705067e-01   1.9529546249283863e-01   1.9394015489056832e-01   2.0417041990784393e-01   2.0340448049758239e-01   1.9687523829796774e-01   1.9859931338261855e-01   1.9926557760833610e-01   1.8978243243588874e-01   2.0211119532998598e-01   1.8968478601960764e-01   1.9161467482046271e-01   1.9283953929280997e-01   1.9066082624571770e-01   1.9103934347469048e-01   1.9529546249283244e-01   1.8988810602705089e-01   1.9268180107151786e-01   1.9394015489055738e-01   2.0417041990782961e-01   2.0340448049758242e-01   1.9687523829797865e-01   1.9859931338262121e-01   1.9926557760835328e-01   1.8978243243590678e-01   2.0211119532997915e-01   1.8968478601962127e-01   1.9161467482046307e-01   1.9283953929280698e-01   1.9066082624570152e-01   1.9103934347471105e-01   1.9529546249285090e-01   1.8988810602705092e-01   1.9268180107151531e-01   1.9394015489055177e-01   2.0417041990784088e-01   1.9687523829796771e-01   2.0340448049757051e-01   1.9859931338262130e-01   1.9161467482046299e-01   1.9066082624572306e-01   1.9283953929280737e-01   1.9103934347469062e-01   1.9926557760833624e-01   2.0211119532999275e-01   1.8978243243590687e-01   1.8968478601960800e-01   1.9268180107152591e-01   1.8988810602705050e-01   1.9529546249282642e-01   1.9394015489053998e-01   2.2282330777439310e-01   2.2241249471936950e-01   2.2241249471939367e-01   2.2306840249183635e-01   2.1276555590419918e-01   2.2251542713297925e-01   2.1933478473034387e-01   2.1772317044338801e-01   2.1276555590419921e-01   2.1933478473034371e-01   2.2251542713300457e-01   2.1772317044338765e-01   2.2232479311759684e-01   2.2406629542207901e-01   2.2232479311759698e-01   2.2382228826260028e-01   2.0710678118655448e-01   2.1284232987979620e-01   2.1284232987979568e-01   2.2254704779540532e-01   2.0854838095951028e-01   2.2157902815774991e-01   2.0982739864360805e-01   2.1541232310655517e-01   2.0854838095948636e-01   2.0982739864360833e-01   2.2157902815775071e-01   2.1541232310658120e-01   2.2007872894775640e-01   2.2489819190521002e-01   2.2007872894778543e-01   2.2483428584025164e-01   2.0417041990784052e-01   1.9687523829796760e-01   2.0340448049758239e-01   1.9859931338262091e-01   1.9161467482046232e-01   1.9066082624572367e-01   1.9283953929280742e-01   1.9103934347469079e-01   1.9926557760831962e-01   2.0211119532999197e-01   1.8978243243588250e-01   1.8968478601962105e-01   1.9268180107150401e-01   1.8988810602705106e-01   1.9529546249285076e-01   1.9394015489056288e-01   2.0417041990784088e-01   2.0340448049758303e-01   1.9687523829796727e-01   1.9859931338264408e-01   1.9926557760835367e-01   1.8978243243590642e-01   2.0211119532999328e-01   1.8968478601959457e-01   1.9161467482046204e-01   1.9283953929278699e-01   1.9066082624572325e-01   1.9103934347469054e-01   1.9529546249285151e-01   1.8988810602707271e-01   1.9268180107152572e-01   1.9394015489053978e-01   2.0417041990784088e-01   2.0340448049755824e-01   1.9687523829796788e-01   1.9859931338259831e-01   1.9926557760835312e-01   1.8978243243593135e-01   2.0211119532996602e-01   1.8968478601959424e-01   1.9161467482044292e-01   1.9283953929280698e-01   1.9066082624572284e-01   1.9103934347469026e-01   1.9529546249285082e-01   1.8988810602705072e-01   1.9268180107152619e-01   1.9394015489054031e-01   2.0417041990784088e-01   1.9687523829798942e-01   2.0340448049758239e-01   1.9859931338264411e-01   1.9161467482046307e-01   1.9066082624574435e-01   1.9283953929282771e-01   1.9103934347466947e-01   1.9926557760838745e-01   2.0211119532999275e-01   1.8978243243590728e-01   1.8968478601959424e-01   1.9268180107152619e-01   1.8988810602705072e-01   1.9529546249280175e-01   1.9394015489058541e-01   2.2282330777435713e-01   2.2241249471929755e-01   2.2241249471929755e-01   2.2306840249190532e-01   2.1276555590412741e-01   2.2251542713300515e-01   2.1933478473039186e-01   2.1772317044336303e-01   2.1276555590412741e-01   2.1933478473029486e-01   2.2251542713300515e-01   2.1772317044346029e-01   2.2232479311771794e-01   2.2406629542205309e-01   2.2232479311752562e-01   2.2382228826262587e-01   2.0710678118655315e-01   2.1284232987973606e-01   2.1284232987985635e-01   2.2254704779533183e-01   2.0854838095960535e-01   2.2157902815772496e-01   2.0982739864363367e-01   2.1541232310660657e-01   2.0854838095950964e-01   2.0982739864363367e-01   2.2157902815772498e-01   2.1541232310650321e-01   2.2007872894769642e-01   2.2489819190515453e-01   2.2007872894769642e-01   2.2483428584019546e-01   2.0417041990779511e-01   1.9687523829796710e-01   2.0340448049758278e-01   1.9859931338271236e-01   1.9161467482048147e-01   1.9066082624572367e-01   1.9283953929280753e-01   1.9103934347473214e-01   1.9926557760818242e-01   2.0211119533004623e-01   1.8978243243590659e-01   1.8968478601962160e-01   1.9268180107143865e-01   1.8988810602711850e-01   1.9529546249280214e-01   1.9394015489056246e-01   2.0417041990770543e-01   2.0340448049758275e-01   1.9687523829805306e-01   1.9859931338262143e-01   1.9926557760831967e-01   1.8978243243590665e-01   2.0211119532993929e-01   1.8968478601962160e-01   1.9161467482048147e-01   1.9283953929289041e-01   1.9066082624580966e-01   1.9103934347464899e-01   1.9529546249280214e-01   1.8988810602711850e-01   1.9268180107152552e-01   1.9394015489056246e-01   2.0417041990788676e-01   2.0340448049758278e-01   1.9687523829796683e-01   1.9859931338252984e-01   1.9926557760845698e-01   1.8978243243590665e-01   2.0211119533004623e-01   1.8968478601951222e-01   1.9161467482048147e-01   1.9283953929280753e-01   1.9066082624572361e-01   1.9103934347464899e-01   1.9529546249290022e-01   1.8988810602702769e-01   1.9268180107152552e-01   1.9394015489056246e-01   2.0417041990797641e-01   1.9687523829796710e-01   2.0340448049758278e-01   1.9859931338271239e-01   1.9161467482040101e-01   1.9066082624572367e-01   1.9283953929280753e-01   1.9103934347473214e-01   1.9926557760845698e-01   2.0211119533004623e-01   1.8978243243581022e-01   1.8968478601962160e-01   1.9268180107152552e-01   1.8988810602702769e-01   1.9529546249280211e-01   1.9394015489047228e-01   2.2282330777440454e-01   2.2241249471934471e-01   2.2241249471939453e-01   2.2306840249185925e-01   2.1276555590422219e-01   2.2251542713300529e-01   2.1933478473039295e-01   2.1772317044336392e-01   2.1276555590417542e-01   2.1933478473034285e-01   2.2251542713305719e-01   2.1772317044341141e-01   2.2232479311762066e-01   2.2406629542205328e-01   2.2232479311757392e-01   2.2382228826257503e-01   2.0710678118647854e-01   2.1284232987979648e-01   2.1284232987979565e-01   2.2254704779540491e-01   2.0854838095951000e-01   2.2157902815772434e-01   2.0982739864363367e-01   2.1541232310660638e-01   2.0854838095946179e-01   2.0982739864363417e-01   2.2157902815772479e-01   2.1541232310655525e-01   2.2007872894781577e-01   2.2489819190515387e-01   2.2007872894775554e-01   2.2483428584025225e-01   2.0417041990784088e-01   1.9687523829796741e-01   2.0340448049753443e-01   1.9859931338266690e-01   1.9161467482046221e-01   1.9066082624572300e-01   1.9283953929280709e-01   1.9103934347468998e-01   1.9926557760838770e-01   2.0211119533004676e-01   1.8978243243585863e-01   1.8968478601962183e-01   1.9268180107152594e-01   1.8988810602702755e-01   1.9529546249280227e-01   1.9394015489056263e-01   2.0417041990784141e-01   2.0340448049758239e-01   1.9687523829796733e-01   1.9859931338262157e-01   1.9926557760831942e-01   1.8978243243585888e-01   2.0211119532993868e-01   1.8968478601956668e-01   1.9161467482050260e-01   1.9283953929280742e-01   1.9066082624568043e-01   1.9103934347469081e-01   1.9529546249285068e-01   1.8988810602702819e-01   1.9268180107152577e-01   1.9394015489056271e-01   2.0417041990788676e-01   2.0340448049758242e-01   1.9687523829796733e-01   1.9859931338262160e-01   1.9926557760831939e-01   1.8978243243590703e-01   2.0211119532993871e-01   1.8968478601962138e-01   1.9161467482044217e-01   1.9283953929280742e-01   1.9066082624572342e-01   1.9103934347469079e-01   1.9529546249285068e-01   1.8988810602707359e-01   1.9268180107152577e-01   1.9394015489056271e-01   2.0417041990779555e-01   1.9687523829796741e-01   2.0340448049758278e-01   1.9859931338262110e-01   1.9161467482048233e-01   1.9066082624572300e-01   1.9283953929288997e-01   1.9103934347464846e-01   1.9926557760838770e-01   2.0211119533004676e-01   1.8978243243590678e-01   1.8968478601951247e-01   1.9268180107152599e-01   1.8988810602702755e-01   1.9529546249285129e-01   1.9394015489051755e-01   2.2482832336395375e-01   2.1307747986652623e-01   2.5593864128076416e-01   2.2494985396501554e-01   1.8171723842830753e-01   2.3468454847736012e-01   2.2882452976744877e-01   2.5748857358387778e-01   1.9559063373557234e-01   2.3942337574162870e-01   2.3287329373435550e-01   1.6955700045139374e-01   2.5556182156816259e-01   1.9804221281615811e-01   2.2358367043134234e-01   2.5103449766664343e-01   1.9376215102697966e-01   2.0890627084497171e-01   2.3833306356503456e-01   2.2781108771564365e-01   2.2681572989942997e-01   2.1810587667947073e-01   2.6819273748551781e-01   1.7692940417998845e-01   2.6524246437634041e-01   2.2747371779552225e-01   2.3082814275466579e-01   2.0682344719299794e-01   2.5220200006880311e-01   2.4104779479099500e-01   2.5709889920196610e-01   2.5774370223608112e-01   2.4704340823704216e-01   1.9429570869892149e-01   2.3299930540140640e-01   2.2588660649641681e-01   2.7028301623103251e-01   2.5580480586024429e-01   2.2427442228094269e-01   2.7484062836308526e-01   2.7238554324374714e-01   2.7232762013710987e-01   2.4019038023038172e-01   2.0872088558968255e-01   2.1051259568501690e-01   2.7664163402332420e-01   2.0043805823260424e-01   2.3435542839562148e-01   2.1711431635630146e-01   2.0775843372172151e-01   2.3872605851236367e-01   2.3269392445217552e-01   2.5575704872754834e-01   2.0685128626194271e-01   2.3102746110912328e-01   2.4417271495911191e-01   2.3781902206735389e-01   2.0890627084499147e-01   1.9117468033496865e-01   2.1432125353228046e-01   2.2276528354488814e-01   1.8446293077395157e-01   2.5516923019268151e-01   2.1012611963992908e-01   2.2050014742286556e-01   2.6052464543974624e-01   2.4720844949012252e-01   1.9206954833222808e-01   1.9313546530113745e-01   2.1854893364999378e-01   2.7074441449839981e-01   2.8782457197515970e-01   2.4220230858670069e-01   2.2230781483422044e-01   2.2906114196439717e-01   1.9538445505897639e-01   2.5395710398549048e-01   2.8486126431497061e-01   1.9061619724890239e-01   2.4651712268135403e-01   2.3685842713187236e-01   1.8572326196251948e-01   2.1543762451857093e-01   2.1141516542910796e-01   2.1141516542904529e-01   2.2274519836872961e-01   1.9565375410043642e-01   2.7232808914468742e-01   2.0188290791080227e-01   1.8245580096811922e-01   2.0387715244912252e-01   2.2652318090778739e-01   2.2839343706289689e-01   2.1525582031923859e-01   2.4940186385182314e-01   1.8115034848029327e-01   2.5568409652131624e-01   2.3699804248103440e-01   2.5348978886512041e-01   2.1547201119490564e-01   2.3102746110910313e-01   2.5752400826492705e-01   2.1319362723506988e-01   2.8395455375066780e-01   2.6930520232135235e-01   1.8880247310950760e-01   2.0960356837995156e-01   2.6682730438423952e-01   2.4372706033221511e-01   2.4248687507374223e-01   2.6350987008333937e-01   2.4036688562904762e-01   2.1908806942714565e-01   2.1435584857692605e-01   2.6770369573234531e-01   2.5847005716357546e-01   2.1736827442958456e-01   2.3648182959349351e-01   2.1366784972086292e-01   2.1393651390038673e-01   2.7463415337404684e-01   2.3668319819093464e-01   2.5159537143963695e-01   2.4459546734893528e-01   2.2173919036642795e-01   1.9931031287453180e-01   1.9396938131312066e-01   2.2013885054789842e-01   2.8810910149155322e-01   1.5252034761219491e-01   2.7495051064290910e-01   2.7138268456705583e-01   1.8818868258010760e-01   2.1400410339314910e-01   2.5678256392378634e-01   2.4938850325199127e-01   2.4128598420011541e-01   1.8483261687197122e-01   2.8241759547665735e-01   2.0348911202137515e-01   2.2233261808744958e-01   2.3472576674069406e-01   2.7653284361321917e-01   2.8423162301509647e-01   2.4528245134277180e-01   2.0833828854399733e-01   2.1471036562190299e-01   2.1326364854630625e-01   1.7737759593919289e-01   2.4782016828982945e-01   1.8818744648606761e-01   2.1755625054080749e-01   2.7643302361398203e-01   2.1709925309766856e-01   1.8244630895435238e-01   2.1672099102708575e-01   2.2702386504737723e-01   2.3686584771112179e-01   1.8530578429123176e-01   2.1120512846326217e-01   2.4697111547541847e-01   2.1944428081473857e-01   2.2111349424936694e-01   2.3243371707605479e-01   2.5068185585326797e-01   2.2047728707584099e-01   2.8079501687709291e-01   2.3651729431317145e-01   2.2390708001178483e-01   2.4443240362392052e-01   2.4403732446746607e-01   2.5799670324740004e-01   2.5684473803330676e-01   2.2617077805110888e-01   2.2621224144810223e-01   2.5356981198108686e-01   2.1057734564779029e-01   2.4528425000321064e-01   2.6820158760408169e-01   2.3386413037131606e-01   2.2776199166008484e-01   2.6637949085656953e-01   2.3579380578537218e-01   2.7982559481167762e-01   2.6250614129254657e-01   1.9032723511023786e-01   2.2940959839171604e-01   1.9010503892798317e-01   2.3235886923330637e-01   2.5177389378794623e-01   2.4572313511502797e-01   2.5259824106530532e-01   2.1754399179497680e-01   2.5278955092207311e-01   2.2635591960891308e-01   2.2635689664033584e-01   1.8010515778872696e-01   2.5146614219398550e-01   2.6127696594259320e-01   2.2160921291963365e-01   2.3669168636640278e-01   2.4619008257391697e-01   2.6684390885536174e-01   2.2862799883287432e-01   2.3833015177653954e-01   2.7102518158763611e-01   1.7199553233582751e-01   2.4397076557272190e-01   2.1652300215657283e-01   2.4899469751433964e-01   2.2595321707030047e-01   1.9010503892803524e-01   2.2005521794928654e-01   2.7606678073954860e-01   2.6110766076589942e-01   2.0478262322950685e-01   2.6724642407771104e-01   2.2189770151019841e-01   1.9119996499758893e-01   2.6084813591080036e-01   2.3750895162530625e-01   2.1306833137646594e-01   2.5788927459884059e-01   2.0586643407137620e-01   2.4099535401713917e-01   2.8643019768113170e-01   2.6098912491124382e-01   2.6054833484996548e-01   2.6990699416369501e-01   2.0818365495164215e-01   2.0994016595535434e-01   2.3815777987240450e-01   2.0326635609326252e-01   2.4542480298517230e-01   2.6012748021348375e-01   2.4370786786813661e-01   2.8280829635569482e-01   2.3024674163945327e-01   2.2759481788593505e-01   2.7014980153306511e-01   2.2220436959942377e-01   2.3365143451854781e-01   2.3248836238819923e-01   2.5455406616980836e-01   2.8372449801855482e-01   2.3455269804701151e-01   2.2080786165318239e-01   2.6593053437562625e-01   2.6247334702176589e-01   2.5861570200955142e-01   2.4123269557743818e-01   2.7950895241392681e-01   2.5479027117858788e-01   2.5355625848344726e-01   2.1668866028983072e-01   2.2646094816793449e-01   2.8713761172819724e-01   2.4091425156668578e-01   2.2992499304188646e-01   2.3248626247240844e-01   2.3514911889959483e-01   2.4421896412660685e-01   2.5031458431898712e-01   2.3236325947686920e-01   2.5197650210479994e-01   2.1673981406266365e-01   2.7328772184349071e-01   2.4695459946668283e-01   2.4854419459493549e-01   2.5446367277251547e-01   2.1471945451227831e-01   2.7096026146213009e-01   2.8286313957930026e-01   2.2160212451639680e-01   2.8856803061038322e-01   2.1488624656401459e-01   2.6160291577571015e-01   2.3131480139864727e-01   2.4812965287967617e-01   2.5321409545380907e-01   2.6973302098994933e-01   2.4158828358221524e-01   2.2360164939546628e-01   2.7240674741218740e-01   2.8070340805465038e-01   2.0726738533425301e-01   2.0991678890175877e-01   2.6739439995373726e-01   2.5513271082409589e-01   2.2581597807642870e-01   2.4289384901060715e-01   2.6785714505292796e-01   1.8933821895323885e-01   2.2286189692304015e-01   2.2374604075232174e-01   2.0700397474710869e-01   2.8240981257955244e-01   2.5146614219398539e-01   2.1868712913659294e-01   2.8187670042732543e-01   2.6107286573927024e-01   2.2353352912963592e-01   2.6350913418921373e-01   2.4859793933633986e-01   2.6697621685416989e-01   2.2822618959893101e-01   2.7813094733668098e-01   2.7184102717537356e-01   2.7457100480810492e-01   2.5318072010155446e-01   2.1648990390688153e-01   2.3152769005575249e-01   2.6143107822221495e-01   2.5125745863629761e-01   2.0299328127321917e-01   2.4676462267298860e-01   2.4874228848534510e-01   2.2888681450545265e-01   2.7600593841291959e-01   2.3519888813387752e-01   2.4112534855196388e-01   1.8310088974495353e-01   2.5460228242787170e-01   2.1770188505959218e-01   2.7594646420242880e-01   1.9316824627403156e-01   2.0183242492071249e-01   2.2293528357964570e-01   2.1543746359657287e-01   2.5588952980600010e-01   2.0406773572307674e-01   2.2738458040378401e-01   2.8108959870466893e-01   1.9563333204606440e-01   2.6342749431873419e-01   2.2296741225234076e-01   2.1794240229442691e-01   2.4779729404461429e-01   2.3816544233703926e-01   2.3554366943416452e-01   1.7053045034451883e-01   2.1175746070820481e-01   2.2019949845464937e-01   2.5035443142612374e-01   1.6868433679774217e-01   2.6866280509330837e-01   2.6831107851458624e-01   2.5914974250353873e-01   2.1284078246930133e-01   2.3196857865818793e-01   2.6869733526750633e-01   2.7108218888081875e-01   2.6210770459970517e-01   2.6807804102934701e-01   2.3077223823807194e-01   2.8011549210676218e-01   2.4306408657688516e-01   2.4306408657681622e-01   2.8706259238094944e-01   2.1085051101018748e-01   2.6471455414030376e-01   2.7127844478829793e-01   1.9604188156755764e-01   2.7385274806912002e-01   2.6376034926504904e-01   2.6927241401129087e-01   2.3917453145173442e-01   2.1831181270820041e-01   1.8424611680252448e-01   2.6563806328731399e-01   2.5037041612426830e-01   2.0241103858096415e-01   2.3469973663910165e-01   2.4577356166586697e-01   2.4747493309946200e-01   2.5746244600874285e-01   2.4882712426616299e-01   2.1482175389724517e-01   2.0554673328663542e-01   2.2108795344959131e-01   2.3567973992514335e-01   2.7399616924793513e-01   2.1167586692396062e-01   2.3597457838969235e-01   2.5399384355752697e-01   2.6760661149021120e-01   2.1169456972359971e-01   2.4782756641063086e-01   2.2973177614802726e-01   2.7672291014486716e-01   2.2438493099196904e-01   1.8331773936774806e-01   2.3201995640078829e-01   2.4742801861770117e-01   2.5028280993890395e-01   2.4553208367491958e-01   2.4441381261787792e-01   2.6747935982729559e-01   2.6785521454198719e-01   2.2951853517268514e-01   1.8631285903084116e-01   2.7690634370895789e-01   1.7814152349818235e-01   2.2475345607825745e-01   2.3963420497396495e-01   2.0445015670477446e-01   2.2146644985101047e-01   2.5184124380167233e-01   2.6570818532132601e-01   2.3727452441136471e-01   2.8240981257959563e-01   2.5250368799330364e-01   2.6639603345