<?xml version="1.0"?>
<VTKFile type="UnstructuredGrid"  version="0.1"  >
<UnstructuredGrid>
<Piece  NumberOfPoints="1704" NumberOfCells="3029">
<Points>
<DataArray  type="Float64"  NumberOfComponents="3"  format="ascii">3 0.3819660112504897 0  2.843408347405157 0.3736333896206288 0  3 0.5986121811345446 0  2.675884240244967 0.3517684804899346 0  2.862309893853584 0.5869296815607524 0  3 0.7928932188140729 0  2.492225278930009 0.3229670385733456 0  2.705578223215987 0.5583673348239806 0  2.88819660112527 0.77639320225054 0  3 0.9409830056258242 0  2.292893218813648 0.2928932188136479 0  2.524397193004713 0.5243971930047131 0  2.741180954897836 0.7411809548978358 0  2.920540688701558 0.9205406887015585 0  3 1 0  2.322967038573346 0.4922252789300092 0  2.558367334823981 0.7055782232159871 0  2.77639320225054 0.88819660112527 0  2.940983005625824 1 0  3 1.059016994374176 0  3.079459311298442 1.079459311298441 0  3.059016994374176 1 0  2.351768480489935 0.6758842402449674 0  2.586929681560752 0.8623098938535841 0  2.792893218814073 1 0  2.920540688701558 1.079459311298441 0  3 1.207106781185927 0  3.11180339887473 1.22360679774946 0  3.258819045102164 1.258819045102164 0  3.22360679774946 1.11180339887473 0  3.207106781185927 1 0  2.373633389620628 0.843408347405157 0  2.598612181134545 1 0  2.77639320225054 1.11180339887473 0  2.88819660112527 1.22360679774946 0  3 1.401387818865455 0  3.137690106146416 1.413070318439248 0  3.294421776784013 1.441632665176019 0  3.475602806995287 1.475602806995287 0  3.441632665176019 1.294421776784013 0  3.413070318439248 1.137690106146416 0  3.401387818865455 1 0  2.38196601125049 1 0  2.586929681560752 1.137690106146416 0  2.741180954897836 1.258819045102164 0  2.862309893853584 1.413070318439248 0  3 1.61803398874951 0  3.156591652594843 1.626366610379372 0  3.324115759755033 1.648231519510065 0  3.507774721069991 1.677032961426654 0  3.707106781186353 1.707106781186352 0  3.677032961426654 1.507774721069991 0  3.648231519510065 1.324115759755033 0  3.626366610379372 1.156591652594843 0  3.61803398874951 1 0  2.373633389620628 1.156591652594843 0  2.558367334823981 1.294421776784013 0  2.705578223215987 1.441632665176019 0  2.843408347405157 1.626366610379372 0  2.351768480489935 1.324115759755033 0  2.524397193004713 1.475602806995287 0  2.675884240244967 1.648231519510065 0  2.322967038573346 1.507774721069991 0  2.492225278930009 1.677032961426654 0  2.292893218813647 1.707106781186352 0  2 4.61803398874951 0  1.843408347405157 4.626366610379371 0  2 4.401387818865455 0  1.675884240244967 4.648231519510065 0  1.862309893853584 4.413070318439248 0  2 4.207106781185927 0  1.492225278930009 4.677032961426654 0  1.705578223215987 4.441632665176019 0  1.88819660112527 4.22360679774946 0  2 4.059016994374176 0  1.292893218813648 4.707106781186353 0  1.524397193004713 4.475602806995287 0  1.741180954897836 4.258819045102165 0  1.920540688701559 4.079459311298441 0  2 4 0  1.322967038573346 4.507774721069991 0  1.558367334823981 4.294421776784013 0  1.77639320225054 4.11180339887473 0  1.940983005625824 4 0  2 3.940983005625824 0  2.079459311298442 3.920540688701558 0  2.059016994374176 4 0  1.351768480489935 4.324115759755033 0  1.586929681560752 4.137690106146416 0  1.792893218814073 4 0  1.920540688701559 3.920540688701558 0  2 3.792893218814073 0  2.11180339887473 3.77639320225054 0  2.258819045102164 3.741180954897836 0  2.22360679774946 3.88819660112527 0  2.207106781185927 4 0  1.373633389620628 4.156591652594843 0  1.598612181134545 4 0  1.77639320225054 3.88819660112527 0  1.88819660112527 3.77639320225054 0  2 3.598612181134545 0  2.137690106146416 3.586929681560752 0  2.294421776784013 3.558367334823981 0  2.475602806995287 3.524397193004713 0  2.441632665176019 3.705578223215987 0  2.413070318439248 3.862309893853584 0  2.401387818865455 4 0  1.38196601125049 4 0  1.586929681560752 3.862309893853584 0  1.741180954897836 3.741180954897836 0  1.862309893853584 3.586929681560752 0  2 3.38196601125049 0  2.156591652594843 3.373633389620628 0  2.324115759755033 3.351768480489935 0  2.507774721069991 3.322967038573346 0  2.707106781186353 3.292893218813647 0  2.677032961426654 3.492225278930009 0  2.648231519510065 3.675884240244967 0  2.626366610379372 3.843408347405157 0  2.61803398874951 4 0  1.373633389620628 3.843408347405157 0  1.558367334823981 3.705578223215987 0  1.705578223215987 3.558367334823981 0  1.843408347405157 3.373633389620628 0  1.351768480489935 3.675884240244967 0  1.524397193004713 3.524397193004713 0  1.675884240244967 3.351768480489935 0  1.322967038573346 3.492225278930009 0  1.492225278930009 3.322967038573346 0  1.292893218813648 3.292893218813647 0  -6 5.61803398874951 0  -5.843408347405157 5.626366610379371 0  -6 5.401387818865455 0  -5.675884240244967 5.648231519510065 0  -5.862309893853584 5.413070318439248 0  -6 5.207106781185927 0  -5.492225278930009 5.677032961426654 0  -5.705578223215987 5.441632665176019 0  -5.88819660112527 5.22360679774946 0  -6 5.059016994374176 0  -5.292893218813647 5.707106781186353 0  -5.524397193004713 5.475602806995287 0  -5.741180954897835 5.258819045102165 0  -5.920540688701559 5.079459311298441 0  -6 5 0  -5.322967038573346 5.507774721069991 0  -5.558367334823981 5.294421776784013 0  -5.77639320225054 5.11180339887473 0  -5.940983005625824 5 0  -6 4.940983005625824 0  -6.079459311298441 4.920540688701559 0  -6.059016994374176 5 0  -5.351768480489935 5.324115759755033 0  -5.586929681560752 5.137690106146416 0  -5.792893218814073 5 0  -5.920540688701559 4.920540688701559 0  -6 4.792893218814073 0  -6.11180339887473 4.77639320225054 0  -6.258819045102165 4.741180954897835 0  -6.22360679774946 4.88819660112527 0  -6.207106781185927 5 0  -5.373633389620628 5.156591652594843 0  -5.598612181134545 5 0  -5.77639320225054 4.88819660112527 0  -5.88819660112527 4.77639320225054 0  -6 4.598612181134545 0  -6.137690106146416 4.586929681560752 0  -6.294421776784013 4.558367334823981 0  -6.475602806995287 4.524397193004713 0  -6.441632665176019 4.705578223215987 0  -6.413070318439248 4.862309893853584 0  -6.401387818865455 5 0  -5.38196601125049 5 0  -5.586929681560752 4.862309893853584 0  -5.741180954897835 4.741180954897835 0  -5.862309893853584 4.586929681560752 0  -6 4.38196601125049 0  -6.156591652594843 4.373633389620628 0  -6.324115759755033 4.351768480489935 0  -6.507774721069991 4.322967038573346 0  -6.707106781186353 4.292893218813647 0  -6.677032961426654 4.492225278930009 0  -6.648231519510065 4.675884240244967 0  -6.626366610379372 4.843408347405157 0  -6.61803398874951 5 0  -5.373633389620628 4.843408347405157 0  -5.558367334823981 4.705578223215987 0  -5.705578223215987 4.558367334823981 0  -5.843408347405157 4.373633389620628 0  -5.351768480489935 4.675884240244967 0  -5.524397193004713 4.524397193004713 0  -5.675884240244967 4.351768480489935 0  -5.322967038573346 4.492225278930009 0  -5.492225278930009 4.322967038573346 0  -5.292893218813647 4.292893218813647 0  -5 2.38196601125049 0  -4.843408347405157 2.373633389620629 0  -5 2.598612181134545 0  -4.675884240244967 2.351768480489935 0  -4.862309893853584 2.586929681560752 0  -5 2.792893218814073 0  -4.492225278930009 2.322967038573346 0  -4.705578223215987 2.558367334823981 0  -4.88819660112527 2.77639320225054 0  -5 2.940983005625824 0  -4.292893218813647 2.292893218813648 0  -4.524397193004713 2.524397193004713 0  -4.741180954897835 2.741180954897836 0  -4.920540688701559 2.920540688701558 0  -5 3 0  -4.322967038573346 2.492225278930009 0  -4.558367334823981 2.705578223215987 0  -4.77639320225054 2.88819660112527 0  -4.940983005625824 3 0  -5 3.059016994374176 0  -5.079459311298441 3.079459311298442 0  -5.059016994374176 3 0  -4.351768480489935 2.675884240244967 0  -4.586929681560752 2.862309893853584 0  -4.792893218814073 3 0  -4.920540688701559 3.079459311298442 0  -5 3.207106781185927 0  -5.11180339887473 3.22360679774946 0  -5.258819045102165 3.258819045102164 0  -5.22360679774946 3.11180339887473 0  -5.207106781185927 3 0  -4.373633389620628 2.843408347405157 0  -4.598612181134545 3 0  -4.77639320225054 3.11180339887473 0  -4.88819660112527 3.22360679774946 0  -5 3.401387818865455 0  -5.137690106146416 3.413070318439248 0  -5.294421776784013 3.441632665176019 0  -5.475602806995287 3.475602806995287 0  -5.441632665176019 3.294421776784013 0  -5.413070318439248 3.137690106146416 0  -5.401387818865455 3 0  -4.38196601125049 3 0  -4.586929681560752 3.137690106146416 0  -4.741180954897835 3.258819045102164 0  -4.862309893853584 3.413070318439248 0  -5 3.61803398874951 0  -5.156591652594843 3.626366610379372 0  -5.324115759755033 3.648231519510065 0  -5.507774721069991 3.677032961426654 0  -5.707106781186353 3.707106781186353 0  -5.677032961426654 3.507774721069991 0  -5.648231519510065 3.324115759755033 0  -5.626366610379372 3.156591652594843 0  -5.61803398874951 3 0  -4.373633389620628 3.156591652594843 0  -4.558367334823981 3.294421776784013 0  -4.705578223215987 3.441632665176019 0  -4.843408347405157 3.626366610379372 0  -4.351768480489935 3.324115759755033 0  -4.524397193004713 3.475602806995287 0  -4.675884240244967 3.648231519510065 0  -4.322967038573346 3.507774721069991 0  -4.492225278930009 3.677032961426654 0  -4.292893218813647 3.707106781186353 0  5 1 0  5 1.1875 0  4.827254248593689 1 0  5 1.375 0  4.774625127436217 1.190725542188815 0  4.654508497187377 1 0  4.795685564948176 1.503494320171386 0  5 1.5625 0  4.633229176833026 1.366257369669115 0  4.535571696635581 1.176836689821396 0  4.481762745781066 1 0  4.856267205581102 1.661206773798245 0  5 1.75 0  4.689409473820198 1.687699236167515 0  4.60784560155642 1.536324222026939 0  4.458027710481697 1.451934295621926 0  4.353363905980899 1.28736948322329 0  4.309016994374755 1 0  4.813772758633532 1.87305606464568 0  5 1.9375 0  4.658258320854826 1.842998343199929 0  4.530548399033449 1.675635120559427 0  4.377973042682878 1.629775066020617 0  4.241466707589882 1.467498817908458 0  4.0683636
[...]
<CellData  Scalars="f_7190"> 
<DataArray  type="Float64"  Name="f_7190"  format="ascii">2.5245687680647860e-01   2.5347262772902734e-01   2.5347262772901485e-01   2.5517227880782273e-01   2.1789793535412361e-01   2.6012739234257465e-01   2.4228343648136863e-01   2.3628571917823074e-01   2.1789793535413540e-01   2.4228343648135589e-01   2.6012739234257465e-01   2.3628571917824362e-01   2.5466472829650272e-01   2.6596858120631883e-01   2.5466472829651515e-01   2.6372748974927146e-01   2.0710678118652232e-01   2.0568052880167820e-01   2.0568052880167872e-01   2.8535392433804152e-01   2.0076349968750079e-01   2.5509216736219770e-01   1.9993338787828191e-01   2.2760690005381148e-01   2.0076349968751864e-01   1.9993338787826562e-01   2.5509216736219781e-01   2.2760690005382725e-01   2.5209090757989833e-01   2.7983797163673624e-01   2.5209090757987018e-01   2.7514257387909863e-01   1.9112081767012271e-01   1.7227619463903007e-01   1.8609405740380761e-01   1.6975108267905889e-01   1.6328650076342424e-01   1.5372006750235792e-01   1.6388726527423925e-01   1.5783370890685230e-01   1.6466202901120294e-01   1.8086678988155502e-01   1.4307437431415532e-01   1.2651234365035735e-01   1.5726933675363555e-01   1.4488576320245170e-01   1.5177251284708515e-01   1.6034902114543198e-01   1.9112081767012370e-01   1.8609405740380780e-01   1.7227619463903424e-01   1.6975108267906494e-01   1.6466202901126517e-01   1.4307437431415529e-01   1.8086678988155561e-01   1.2651234365034719e-01   1.6328650076342424e-01   1.6388726527423531e-01   1.5372006750235795e-01   1.5783370890685230e-01   1.5177251284707238e-01   1.4488576320245158e-01   1.5726933675363966e-01   1.6034902114542202e-01   1.9112081767012837e-01   1.8609405740380766e-01   1.7227619463903873e-01   1.6975108267907491e-01   1.6466202901120297e-01   1.4307437431415526e-01   1.8086678988157501e-01   1.2651234365033676e-01   1.6328650076341636e-01   1.6388726527423142e-01   1.5372006750236641e-01   1.5783370890685627e-01   1.5177251284707224e-01   1.4488576320244154e-01   1.5726933675363991e-01   1.6034902114542202e-01   1.9112081767012773e-01   1.7227619463903007e-01   1.8609405740380774e-01   1.6975108267907443e-01   1.6328650076344600e-01   1.5372006750236641e-01   1.6388726527424710e-01   1.5783370890684834e-01   1.6466202901126556e-01   1.8086678988155502e-01   1.4307437431414266e-01   1.2651234365035738e-01   1.5726933675363991e-01   1.4488576320245172e-01   1.5177251284708521e-01   1.6034902114542213e-01   2.5245687680650170e-01   2.5347262772901485e-01   2.5347262772900236e-01   2.5517227880783416e-01   2.1789793535413540e-01   2.6012739234257465e-01   2.4228343648135589e-01   2.3628571917824362e-01   2.1789793535415852e-01   2.4228343648135595e-01   2.6012739234257465e-01   2.3628571917824345e-01   2.5466472829651515e-01   2.6596858120633354e-01   2.5466472829651515e-01   2.6372748974925669e-01   2.0710678118652232e-01   2.0568052880174081e-01   2.0568052880167820e-01   2.8535392433821349e-01   2.0076349968751267e-01   2.5509216736219781e-01   1.9993338787824932e-01   2.2760690005381154e-01   2.0076349968753665e-01   1.9993338787828191e-01   2.5509216736219770e-01   2.2760690005381148e-01   2.5209090757989894e-01   2.7983797163673624e-01   2.5209090757989833e-01   2.7514257387912339e-01   1.9112081767011835e-01   1.7227619463901264e-01   1.8609405740383198e-01   1.6975108267905412e-01   1.6328650076343129e-01   1.5372006750236666e-01   1.6388726527423148e-01   1.5783370890684834e-01   1.6466202901120394e-01   1.8086678988155561e-01   1.4307437431415457e-01   1.2651234365031602e-01   1.5726933675364002e-01   1.4488576320247160e-01   1.5177251284709800e-01   1.6034902114542213e-01   1.9112081767011863e-01   1.8609405740380777e-01   1.7227619463901284e-01   1.6975108267907540e-01   1.6466202901132870e-01   1.4307437431415473e-01   1.8086678988151672e-01   1.2651234365035774e-01   1.6328650076343140e-01   1.6388726527424707e-01   1.5372006750236675e-01   1.5783370890684834e-01   1.5177251284707211e-01   1.4488576320245153e-01   1.5726933675363991e-01   1.6034902114542174e-01   1.9112081767011790e-01   1.8609405740380774e-01   1.7227619463902999e-01   1.6975108267907449e-01   1.6466202901120275e-01   1.4307437431415546e-01   1.8086678988155527e-01   1.2651234365039907e-01   1.6328650076341622e-01   1.6388726527421574e-01   1.5372006750234929e-01   1.5783370890683251e-01   1.5177251284704629e-01   1.4488576320241142e-01   1.5726933675363991e-01   1.6034902114542202e-01   1.9112081767011754e-01   1.7227619463903010e-01   1.8609405740380774e-01   1.6975108267907427e-01   1.6328650076344584e-01   1.5372006750234929e-01   1.6388726527424710e-01   1.5783370890686418e-01   1.6466202901132748e-01   1.8086678988159410e-01   1.4307437431415546e-01   1.2651234365031577e-01   1.5726933675363991e-01   1.4488576320247168e-01   1.5177251284704629e-01   1.6034902114546137e-01   2.5245687680649009e-01   2.5347262772895307e-01   2.5347262772905294e-01   2.5517227880779980e-01   2.1789793535415836e-01   2.6012739234257576e-01   2.4228343648138079e-01   2.3628571917832003e-01   2.1789793535415836e-01   2.4228343648138079e-01   2.6012739234257576e-01   2.3628571917821795e-01   2.5466472829659009e-01   2.6596858120639277e-01   2.5466472829649067e-01   2.6372748974934540e-01   2.0710678118631182e-01   2.0568052880192680e-01   2.0568052880167845e-01   2.8535392433838697e-01   2.0076349968746443e-01   2.5509216736213053e-01   1.9993338787828174e-01   2.2760690005387352e-01   2.0076349968746443e-01   1.9993338787828174e-01   2.5509216736213053e-01   2.2760690005374809e-01   2.5209090757972619e-01   2.7983797163678531e-01   2.5209090757972619e-01   2.7514257387917418e-01   1.9112081767017794e-01   1.7227619463906454e-01   1.8609405740375790e-01   1.6975108267907441e-01   1.6328650076341622e-01   1.5372006750240122e-01   1.6388726527423148e-01   1.5783370890686418e-01   1.6466202901132915e-01   1.8086678988159455e-01   1.4307437431428097e-01   1.2651234365035791e-01   1.5726933675360458e-01   1.4488576320245131e-01   1.5177251284707191e-01   1.6034902114538238e-01   1.9112081767009861e-01   1.8609405740375790e-01   1.7227619463906477e-01   1.6975108267907529e-01   1.6466202901132918e-01   1.4307437431407816e-01   1.8086678988159455e-01   1.2651234365035791e-01   1.6328650076347548e-01   1.6388726527423148e-01   1.5372006750240125e-01   1.5783370890686418e-01   1.5177251284707191e-01   1.4488576320245131e-01   1.5726933675367544e-01   1.6034902114546110e-01   1.9112081767001782e-01   1.8609405740375790e-01   1.7227619463913388e-01   1.6975108267899167e-01   1.6466202901132918e-01   1.4307437431407816e-01   1.8086678988159455e-01   1.2651234365035791e-01   1.6328650076341622e-01   1.6388726527423150e-01   1.5372006750233277e-01   1.5783370890686418e-01   1.5177251284707191e-01   1.4488576320237095e-01   1.5726933675367544e-01   1.6034902114538238e-01   1.9112081767009786e-01   1.7227619463899524e-01   1.8609405740385676e-01   1.6975108267915720e-01   1.6328650076341622e-01   1.5372006750240122e-01   1.6388726527423148e-01   1.5783370890686418e-01   1.6466202901132915e-01   1.8086678988143934e-01   1.4307437431428097e-01   1.2651234365035791e-01   1.5726933675367544e-01   1.4488576320245131e-01   1.5177251284696802e-01   1.6034902114538238e-01   2.5245687680653628e-01   2.5347262772900236e-01   2.5347262772900303e-01   2.5517227880784565e-01   2.1789793535411206e-01   2.6012739234250870e-01   2.4228343648138098e-01   2.3628571917821781e-01   2.1789793535415836e-01   2.4228343648138079e-01   2.6012739234257493e-01   2.3628571917821795e-01   2.5466472829649028e-01   2.6596858120633377e-01   2.5466472829654035e-01   2.6372748974928623e-01   2.0710678118631182e-01   2.0568052880180326e-01   2.0568052880167773e-01   2.8535392433804246e-01   2.0076349968751223e-01   2.5509216736213025e-01   1.9993338787821688e-01   2.2760690005387432e-01   2.0076349968751267e-01   1.9993338787828174e-01   2.5509216736219803e-01   2.2760690005381098e-01   2.5209090757984187e-01   2.7983797163678492e-01   2.5209090757984054e-01   2.7514257387907437e-01   1.9112081767013789e-01   1.7227619463902999e-01   1.8609405740380774e-01   1.6975108267907452e-01   1.6328650076341658e-01   1.5372006750236675e-01   1.6388726527426281e-01   1.5783370890683251e-01   1.6466202901132818e-01   1.8086678988159455e-01   1.4307437431407882e-01   1.2651234365035779e-01   1.5726933675363991e-01   1.4488576320245139e-01   1.5177251284707216e-01   1.6034902114542160e-01   1.9112081767009861e-01   1.8609405740380733e-01   1.7227619463903010e-01   1.6975108267907529e-01   1.6466202901132840e-01   1.4307437431418013e-01   1.8086678988151650e-01   1.2651234365035754e-01   1.6328650076344609e-01   1.6388726527426287e-01   1.5372006750236666e-01   1.5783370890686418e-01   1.5177251284712395e-01   1.4488576320241131e-01   1.5726933675364002e-01   1.6034902114546148e-01   1.9112081767017794e-01   1.8609405740380733e-01   1.7227619463902991e-01   1.6975108267903305e-01   1.6466202901132840e-01   1.4307437431423081e-01   1.8086678988151644e-01   1.2651234365027425e-01   1.6328650076338663e-01   1.6388726527423150e-01   1.5372006750240089e-01   1.5783370890686418e-01   1.5177251284712398e-01   1.4488576320245147e-01   1.5726933675360458e-01   1.6034902114538277e-01   1.9112081767017758e-01   1.7227619463903010e-01   1.8609405740385718e-01   1.6975108267907427e-01   1.6328650076341622e-01   1.5372006750233252e-01   1.6388726527423139e-01   1.5783370890686418e-01   1.6466202901132818e-01   1.8086678988151694e-01   1.4307437431407882e-01   1.2651234365035779e-01   1.5726933675363991e-01   1.4488576320245139e-01   1.5177251284702020e-01   1.6034902114546096e-01   1.5615195168880103e-01   2.3258940521161348e-01   2.4134035060425071e-01   1.9856718806263424e-01   2.6176338038487906e-01   1.9435219025137890e-01   2.2928708259096833e-01   2.1833536233027642e-01   2.2224574607115996e-01   2.1918504357207422e-01   2.3455213875916983e-01   2.3350501578419017e-01   2.2056673011291009e-01   2.6067176963713184e-01   2.3374827767376502e-01   2.6458708487745020e-01   2.7999916768473820e-01   1.7653514086607394e-01   2.4354383504095653e-01   2.7917524919768683e-01   2.3379156428804015e-01   2.2472908910186087e-01   2.1126662256683199e-01   2.4310168970739640e-01   1.9964148664653103e-01   2.2738710802316237e-01   2.1115500041913352e-01   2.1140399434011195e-01   2.3539221922047504e-01   1.9964148664645504e-01   2.5718526058047303e-01   2.4843824962901118e-01   2.1404191850347121e-01   2.7415644668896139e-01   2.1301889317540548e-01   2.1463395952925496e-01   2.6877823310487708e-01   1.5891862259768333e-01   2.6874962188072465e-01   2.7334669882873680e-01   2.5190176618521193e-01   1.9647799983548966e-01   2.2821861883436900e-01   2.2535937502654296e-01   2.0135513213305267e-01   2.7881790160342929e-01   2.5085390677537528e-01   2.0642657727990441e-01   2.3289335859046825e-01   1.7579380566741942e-01   2.3311562880406728e-01   2.3685423949943546e-01   1.7071014710116714e-01   2.2083975685092971e-01   2.0097932496524326e-01   2.5339891134422116e-01   2.3912697198990684e-01   2.1016062548766795e-01   1.9481057019153300e-01   2.3631907614189315e-01   2.6742762951583204e-01   2.1126662256693510e-01   2.0604699120505809e-01   2.1432125353239248e-01   1.9968232692866078e-01   2.4974328044680416e-01   2.4604754380188207e-01   2.3251209911566800e-01   2.6797557084629831e-01   2.0882377269374264e-01   2.5787447545328174e-01   2.5618681625788503e-01   2.2705151909197283e-01   2.3086217090168842e-01   2.1269437556678861e-01   2.2581558173613414e-01   2.6317306013436326e-01   2.0471391836292416e-01   2.6170873757426905e-01   2.2338344412186825e-01   2.1985708481478156e-01   2.2247272595773909e-01   2.0618202073373676e-01   2.0097932496525781e-01   2.4793821618792714e-01   2.6226767731989359e-01   2.4759383313389047e-01   2.6204281533658919e-01   2.5286563311904492e-01   2.2447343649026488e-01   2.3369011114089286e-01   2.1719266910787721e-01   1.8271218820969332e-01   2.7928589053324743e-01   1.7590796762991726e-01   2.2393116508914146e-01   2.1149276844266676e-01   2.0373956932295592e-01   1.9603907456544165e-01   2.4208844267163365e-01   2.7742957206330171e-01   2.1136935658496248e-01   2.4399297017499944e-01   2.4024155857938759e-01   1.7432573384388850e-01   2.2664960074906446e-01   2.6815358130458439e-01   2.7418471968366476e-01   2.4615571382290899e-01   2.4463615054056925e-01   2.5553777442732206e-01   2.3873003289011063e-01   2.4001471143788861e-01   2.1619172915578963e-01   2.5034495632519776e-01   2.6130530082699122e-01   2.5134744402570497e-01   2.4126897336636990e-01   2.5606654210846569e-01   2.7490614162785970e-01   2.7648863751881436e-01   2.6525652392600341e-01   2.4363577776279707e-01   2.5531008311499909e-01   2.5428610789047246e-01   2.4705534989481473e-01   1.7356993110103411e-01   2.5870615859613977e-01   2.7698866646480269e-01   2.7372250058597730e-01   2.5248741169860911e-01   2.6344462876680957e-01   2.7636721951659077e-01   1.9856718806263673e-01   2.4866660944027152e-01   2.7515107381993870e-01   2.4163741281058143e-01   2.3042657294665936e-01   1.9155557418044375e-01   2.0080122270472706e-01   2.4458497968866710e-01   2.2936810452852122e-01   2.0714431653083837e-01   2.1279341989893316e-01   2.8840473536861833e-01   2.4194735374483256e-01   2.7525230917135735e-01   2.4230070171673437e-01   1.9784544185974881e-01   2.4657967698300845e-01   2.5543501401728186e-01   1.9394910998484824e-01   2.5254398644104187e-01   1.9481057019153275e-01   2.6410116542745293e-01   2.8157554975801646e-01   2.1649103083271060e-01   2.2633308598218160e-01   2.2346010551941770e-01   2.3960211100466819e-01   2.2583700339707311e-01   2.5479043178124505e-01   2.2565478327066893e-01   2.4525983608094246e-01   2.3579753131365663e-01   2.5230524284212003e-01   2.4118140936117732e-01   2.1385869169182381e-01   1.8740067941095170e-01   2.1326201898344346e-01   2.2247272595776854e-01   2.5888087897537410e-01   2.0950162505154560e-01   2.4050856457232417e-01   2.1579627189659673e-01   2.4957229501491543e-01   2.7151104158192063e-01   2.2073198754497708e-01   2.2358888200545049e-01   2.2194962462097240e-01   2.2061096624417209e-01   2.6316908571622355e-01   2.6690494431519923e-01   2.6251834074531810e-01   1.8218914029451483e-01   1.9407049236703747e-01   2.5817111393824899e-01   2.1019888895896968e-01   2.4883790338197059e-01   2.2772435428438256e-01   2.3909379645290554e-01   2.0249342705725140e-01   1.9729414524428243e-01   2.1920651469509767e-01   1.9422133569026070e-01   2.4501473677166755e-01   1.7679319072115066e-01   2.1099412503667939e-01   2.4577944700609988e-01   2.7015733362579109e-01   2.6271197007732389e-01   1.8998399195556642e-01   2.3896746196268981e-01   2.6946549264979386e-01   2.0602296849309848e-01   2.0929778284863537e-01   1.9719643972917758e-01   2.4916469284881204e-01   2.0438662060562493e-01   2.1311588700231801e-01   1.9830243763324282e-01   2.0399356031942281e-01   2.6821273486913477e-01   2.1763958065103292e-01   2.3238706248503760e-01   2.1571686509443816e-01   2.5404576627193348e-01   1.6593650214030578e-01   2.1529744051472463e-01   2.3491841334489802e-01   2.6716512630446976e-01   2.6673188326827602e-01   1.5044465419399500e-01   2.0939843019304730e-01   2.2477931349263183e-01   2.6924372459319285e-01   2.1549459576056298e-01   2.3530042445986535e-01   2.2478905551587736e-01   2.5147821777188745e-01   2.4774256120285007e-01   2.7317912925446491e-01   2.2206300996907180e-01   2.5909996636255556e-01   2.5272684739052881e-01   1.8228424977663912e-01   2.8442138075782802e-01   2.2435348965506952e-01   2.1447574581371495e-01   2.1346144778788398e-01   2.0939843019304805e-01   2.0998487474598168e-01   1.9416940592547219e-01   2.1076452500152501e-01   2.2018094072298108e-01   2.4428375813056619e-01   2.2227747358347388e-01   1.8907409250632923e-01   2.0554755897346061e-01   2.5380008554586042e-01   2.2596408611390209e-01   2.2411471241557290e-01   2.7794389914971995e-01   2.5428610789047346e-01   2.6118545177882296e-01   2.7110533525435726e-01   2.4727906860588669e-01   2.1647854979849904e-01   2.2918036988512028e-01   2.2893886221107682e-01   2.4952021827317292e-01   2.2879309227495806e-01   2.6659810693710306e-01   2.0918722530111170e-01   2.6895531052068461e-01   2.1811963646279139e-01   2.7665464801699552e-01   2.6751529294470944e-01   1.9170265547047718e-01   2.6092512601076384e-01   2.7311155928909936e-01   1.9346416070757916e-01   2.7339587148070710e-01   2.6666832596327955e-01   2.6303912473090052e-01   2.5387955785406835e-01   2.7796113784553372e-01   2.2494554774179176e-01   2.6760751513413844e-01   2.8055900288673480e-01   2.0168560316380463e-01   2.4817248508463882e-01   1.8560078228137838e-01   2.5481452777537111e-01   2.8053657485499428e-01   2.4685196001598442e-01   2.2221067607414841e-01   2.3940198516747754e-01   2.1599030547115522e-01   2.3879100391775901e-01   1.8888794646357368e-01   2.7059563232127698e-01   2.2740513947611413e-01   2.4092007914874861e-01   2.3926311836531131e-01   1.8274826726661020e-01   1.7096916111874605e-01   2.3469863583961442e-01   2.0569657994213295e-01   2.7397220042155535e-01   2.1982237016728012e-01   2.6674759937541836e-01   1.6273239792473909e-01   2.5275164148816409e-01   2.4533718818945138e-01   2.4348820020833209e-01   2.3598467493302711e-01   2.6127323338793684e-01   2.4568702650884641e-01   2.4443708279250373e-01   2.4616871931716999e-01   2.6096258122304772e-01   2.4393158661554917e-01   2.5097836710277677e-01   2.4455962889573951e-01   1.8376382792630611e-01   2.5720696838472207e-01   2.4226000161356881e-01   2.4425049724491027e-01   2.4259282405535598e-01   1.8071691457874112e-01   2.3468748993747199e-01   2.7525230917139343e-01   2.2635234886278829e-01   2.5291628950749567e-01   2.0140340003066048e-01   1.7670061714035132e-01   2.2753750642876255e-01   1.9467269780994975e-01   2.0058664465828921e-01   2.3351106595901330e-01   2.6776724851923783e-01   2.3777806674575500e-01   2.3199230582970110e-01   1.9218179257751977e-01   1.9407049236702908e-01   2.3509614415372793e-01   2.7810218155736377e-01   2.6999673139668329e-01   2.2343251674921219e-01   2.4174211038526386e-01   2.5272684739052859e-01   1.8378440029746676e-01   2.8027994762305081e-01   2.1890208393100441e-01   2.6467083283049525e-01   2.3740414419622374e-01   2.1515534255763039e-01   2.3117269015060360e-01   2.6217964989736992e-01   2.4736352497237957e-01   2.5378876935065381e-01   2.2367064417367838e-01   2.5515428596660944e-01   2.6844517345440433e-01   2.4227748132491994e-01   2.2711417567809378e-01   2.3499553844960350e-01   2.3470126942413580e-01   1.9373807020133349e-01   1.9660688629988460e-01   2.0360993403532054e-01   2.7110533525435226e-01   2.3253347064626032e-01   2.3651475722481738e-01   2.2730128362465332e-01   2.4181717075334308e-01   2.4599801564380921e-01   2.4939699514042069e-01   2.1823329877729292e-01   2.8087132457092212e-01   2.1726685966003162e-01   2.3118637093744310e-01   2.4220168159230224e-01   2.2807698066479393e-01   2.0342723054310732e-01   2.2520572794031452e-01   2.2594532072725143e-01   2.0660575471545162e-01   2.8355827580344350e-01   2.2723210660448961e-01   2.4150286411073518e-01   2.3013443369424466e-01   2.7586317817490608e-01   2.2411969119169256e-01   1.8880240327321868e-01   2.1395364305398412e-01   2.4478472064812057e-01   2.2943336585297841e-01   2.0853643286574411e-01   2.2789042617753083e-01   2.3252246380220884e-01   2.5783712757255289e-01   2.1048012492155879e-01   2.5464379157614769e-01   2.2176757088670826e-01   2.5708490125110939e-01   2.1674772210699256e-01   2.8560812289789012e-01   2.5566877735356447e-01   2.5722666322678234e-01   2.5473564618586925e-01   2.6757023859375301e-01   2.1438510501988162e-01   2.1681710715688179e-01   2.2972440921042653e-01   2.5329752694651414e-01   2.1009531371409748e-01   2.2063273744326276e-01   1.8612904296741048e-01   2.4549295922993378e-01   2.5144823353657414e-01   2.3831647468