<?xml version="1.0"?>
<VTKFile type="UnstructuredGrid"  version="0.1"  >
<UnstructuredGrid>
<Piece  NumberOfPoints="1863" NumberOfCells="3341">
<Points>
<DataArray  type="Float64"  NumberOfComponents="3"  format="ascii">3 0.3578783626580142 0  2.837980074580334 0.3519202983213376 0  3 0.562360081589721 0  2.668095006086507 0.3361900121730148 0  2.851377214834756 0.5541316445042701 0  3 0.7513957619668947 0  2.486405553557287 0.3152074047430488 0  2.689313205761768 0.5339698086426523 0  2.869719245232929 0.7394384904658591 0  3 0.9113080676370099 0  2.292893218813248 0.2928932188132478 0  2.509760203133004 0.509760203133004 0  2.714421710057237 0.7144217100572372 0  2.89402123560811 0.8940212356081096 0  3 1 0  2.315207404743049 0.4864055535572865 0  2.533969808642652 0.6893132057617682 0  2.739438490465859 0.8697192452329295 0  2.91130806763701 1 0  3 1.08869193236299 0  3.10597876439189 1.10597876439189 0  3.08869193236299 1 0  2.336190012173015 0.6680950060865074 0  2.55413164450427 0.8513772148347567 0  2.751395761966895 1 0  2.89402123560811 1.10597876439189 0  3 1.248604238033105 0  3.130280754767071 1.260561509534141 0  3.285578289942763 1.285578289942763 0  3.260561509534141 1.130280754767071 0  3.248604238033105 1 0  2.351920298321338 0.8379800745803344 0  2.562360081589721 1 0  2.739438490465859 1.130280754767071 0  2.869719245232929 1.260561509534141 0  3 1.437639918410279 0  3.148622785165244 1.44586835549573 0  3.310686794238232 1.466030191357348 0  3.490239796866996 1.490239796866996 0  3.466030191357348 1.310686794238232 0  3.44586835549573 1.148622785165243 0  3.437639918410279 1 0  2.357878362658014 1 0  2.55413164450427 1.148622785165243 0  2.714421710057237 1.285578289942763 0  2.851377214834756 1.44586835549573 0  3 1.642121637341986 0  3.162019925419666 1.648079701678662 0  3.331904993913493 1.663809987826985 0  3.513594446442713 1.684792595256951 0  3.707106781186752 1.707106781186752 0  3.684792595256951 1.513594446442713 0  3.663809987826985 1.331904993913493 0  3.648079701678662 1.162019925419666 0  3.642121637341986 1 0  2.351920298321338 1.162019925419666 0  2.533969808642652 1.310686794238232 0  2.689313205761768 1.466030191357348 0  2.837980074580334 1.648079701678662 0  2.336190012173015 1.331904993913493 0  2.509760203133004 1.490239796866996 0  2.668095006086507 1.663809987826985 0  2.315207404743049 1.513594446442713 0  2.486405553557287 1.684792595256951 0  2.292893218813248 1.707106781186752 0  2 4.642121637341986 0  1.837980074580335 4.648079701678663 0  2 4.437639918410279 0  1.668095006086507 4.663809987826985 0  1.851377214834757 4.44586835549573 0  2 4.248604238033105 0  1.486405553557287 4.684792595256951 0  1.689313205761768 4.466030191357348 0  1.869719245232929 4.260561509534141 0  2 4.08869193236299 0  1.292893218813248 4.707106781186752 0  1.509760203133004 4.490239796866996 0  1.714421710057237 4.285578289942762 0  1.89402123560811 4.105978764391891 0  2 4 0  1.315207404743049 4.513594446442713 0  1.533969808642652 4.310686794238232 0  1.739438490465859 4.13028075476707 0  1.91130806763701 4 0  2 3.91130806763701 0  2.10597876439189 3.89402123560811 0  2.08869193236299 4 0  1.336190012173015 4.331904993913493 0  1.55413164450427 4.148622785165244 0  1.751395761966895 4 0  1.89402123560811 3.89402123560811 0  2 3.751395761966895 0  2.130280754767071 3.739438490465859 0  2.285578289942763 3.714421710057237 0  2.260561509534141 3.869719245232929 0  2.248604238033105 4 0  1.351920298321338 4.162019925419665 0  1.562360081589721 4 0  1.739438490465859 3.869719245232929 0  1.869719245232929 3.739438490465859 0  2 3.562360081589721 0  2.148622785165244 3.55413164450427 0  2.310686794238232 3.533969808642652 0  2.490239796866996 3.509760203133004 0  2.466030191357348 3.689313205761768 0  2.44586835549573 3.851377214834756 0  2.437639918410279 4 0  1.357878362658014 4 0  1.55413164450427 3.851377214834756 0  1.714421710057237 3.714421710057237 0  1.851377214834757 3.55413164450427 0  2 3.357878362658014 0  2.162019925419666 3.351920298321338 0  2.331904993913493 3.336190012173015 0  2.513594446442713 3.315207404743049 0  2.707106781186752 3.292893218813248 0  2.684792595256951 3.486405553557287 0  2.663809987826985 3.668095006086507 0  2.648079701678662 3.837980074580334 0  2.642121637341986 4 0  1.351920298321338 3.837980074580334 0  1.533969808642652 3.689313205761768 0  1.689313205761768 3.533969808642652 0  1.837980074580334 3.351920298321338 0  1.336190012173015 3.668095006086507 0  1.509760203133004 3.509760203133004 0  1.668095006086507 3.336190012173015 0  1.315207404743049 3.486405553557287 0  1.486405553557287 3.315207404743049 0  1.292893218813248 3.292893218813248 0  -6 5.642121637341986 0  -5.837980074580335 5.648079701678663 0  -6 5.437639918410279 0  -5.668095006086507 5.663809987826985 0  -5.851377214834756 5.44586835549573 0  -6 5.248604238033105 0  -5.486405553557287 5.684792595256951 0  -5.689313205761768 5.466030191357348 0  -5.86971924523293 5.260561509534141 0  -6 5.08869193236299 0  -5.292893218813248 5.707106781186752 0  -5.509760203133004 5.490239796866996 0  -5.714421710057238 5.285578289942762 0  -5.894021235608109 5.105978764391891 0  -6 5 0  -5.315207404743049 5.513594446442713 0  -5.533969808642652 5.310686794238232 0  -5.739438490465859 5.13028075476707 0  -5.91130806763701 5 0  -6 4.91130806763701 0  -6.105978764391891 4.894021235608109 0  -6.08869193236299 5 0  -5.336190012173015 5.331904993913493 0  -5.55413164450427 5.148622785165244 0  -5.751395761966895 5 0  -5.894021235608109 4.894021235608109 0  -6 4.751395761966895 0  -6.13028075476707 4.739438490465859 0  -6.285578289942762 4.714421710057238 0  -6.260561509534141 4.86971924523293 0  -6.248604238033105 5 0  -5.351920298321337 5.162019925419665 0  -5.562360081589721 5 0  -5.739438490465859 4.86971924523293 0  -5.86971924523293 4.739438490465859 0  -6 4.562360081589721 0  -6.148622785165244 4.55413164450427 0  -6.310686794238232 4.533969808642652 0  -6.490239796866996 4.509760203133004 0  -6.466030191357348 4.689313205761768 0  -6.44586835549573 4.851377214834756 0  -6.437639918410279 5 0  -5.357878362658014 5 0  -5.55413164450427 4.851377214834756 0  -5.714421710057238 4.714421710057238 0  -5.851377214834756 4.55413164450427 0  -6 4.357878362658014 0  -6.162019925419665 4.351920298321337 0  -6.331904993913493 4.336190012173015 0  -6.513594446442713 4.315207404743049 0  -6.707106781186752 4.292893218813248 0  -6.684792595256951 4.486405553557287 0  -6.663809987826985 4.668095006086507 0  -6.648079701678663 4.837980074580335 0  -6.642121637341986 5 0  -5.351920298321337 4.837980074580335 0  -5.533969808642652 4.689313205761768 0  -5.689313205761768 4.533969808642652 0  -5.837980074580335 4.351920298321337 0  -5.336190012173015 4.668095006086507 0  -5.509760203133004 4.509760203133004 0  -5.668095006086507 4.336190012173015 0  -5.315207404743049 4.486405553557287 0  -5.486405553557287 4.315207404743049 0  -5.292893218813248 4.292893218813248 0  -5 2.357878362658014 0  -4.837980074580335 2.351920298321338 0  -5 2.562360081589721 0  -4.668095006086507 2.336190012173015 0  -4.851377214834756 2.55413164450427 0  -5 2.751395761966895 0  -4.486405553557287 2.315207404743049 0  -4.689313205761768 2.533969808642652 0  -4.86971924523293 2.739438490465859 0  -5 2.91130806763701 0  -4.292893218813248 2.292893218813248 0  -4.509760203133004 2.509760203133004 0  -4.714421710057238 2.714421710057237 0  -4.894021235608109 2.89402123560811 0  -5 3 0  -4.315207404743049 2.486405553557287 0  -4.533969808642652 2.689313205761768 0  -4.739438490465859 2.869719245232929 0  -4.91130806763701 3 0  -5 3.08869193236299 0  -5.105978764391891 3.10597876439189 0  -5.08869193236299 3 0  -4.336190012173015 2.668095006086507 0  -4.55413164450427 2.851377214834756 0  -4.751395761966895 3 0  -4.894021235608109 3.10597876439189 0  -5 3.248604238033105 0  -5.13028075476707 3.260561509534141 0  -5.285578289942762 3.285578289942763 0  -5.260561509534141 3.130280754767071 0  -5.248604238033105 3 0  -4.351920298321337 2.837980074580334 0  -4.562360081589721 3 0  -4.739438490465859 3.130280754767071 0  -4.86971924523293 3.260561509534141 0  -5 3.437639918410279 0  -5.148622785165244 3.44586835549573 0  -5.310686794238232 3.466030191357348 0  -5.490239796866996 3.490239796866996 0  -5.466030191357348 3.310686794238232 0  -5.44586835549573 3.148622785165244 0  -5.437639918410279 3 0  -4.357878362658014 3 0  -4.55413164450427 3.148622785165244 0  -4.714421710057238 3.285578289942763 0  -4.851377214834756 3.44586835549573 0  -5 3.642121637341986 0  -5.162019925419665 3.648079701678662 0  -5.331904993913493 3.663809987826985 0  -5.513594446442713 3.684792595256951 0  -5.707106781186752 3.707106781186752 0  -5.684792595256951 3.513594446442713 0  -5.663809987826985 3.331904993913493 0  -5.648079701678663 3.162019925419666 0  -5.642121637341986 3 0  -4.351920298321337 3.162019925419666 0  -4.533969808642652 3.310686794238232 0  -4.689313205761768 3.466030191357348 0  -4.837980074580335 3.648079701678662 0  -4.336190012173015 3.331904993913493 0  -4.509760203133004 3.490239796866996 0  -4.668095006086507 3.663809987826985 0  -4.315207404743049 3.513594446442713 0  -4.486405553557287 3.684792595256951 0  -4.292893218813248 3.707106781186752 0  5 1 0  5 1.1875 0  4.830265204667748 1 0  4.77562324865802 1.192679506345228 0  4.787911267192283 1.348081986778286 0  5 1.375 0  4.660530409335497 1 0  4.633059348939607 1.366021042988467 0  4.541978946488643 1.175143747516595 0  4.490795614003245 1 0  4.795362838541691 1.50379133270418 0  5 1.5625 0  4.359954284754179 1.282832206312045 0  4.321060818670993 1 0  4.457676687866868 1.451904123929002 0  4.607881543291101 1.536622050583134 0  4.689532883909252 1.688515711625484 0  4.856235702683054 1.661343413014644 0  5 1.75 0  4.238111322001059 1.40000554689391 0  4.378421381089813 1.630379830243528 0  4.52610451519947 1.664149318775792 0  4.505222861494965 1.814198120819483 0  4.659530852044655 1
[...]
<CellData  Scalars="f_6959"> 
<DataArray  type="Float64"  Name="f_6959"  format="ascii">2.4158999046761767e-01   2.4173052930206479e-01   2.4173052930206423e-01   2.4303065569841029e-01   2.1729446139387720e-01   2.4501565759494137e-01   2.3410746889796721e-01   2.3007811576353424e-01   2.1729446139388855e-01   2.3410746889795472e-01   2.4501565759492686e-01   2.3007811576353424e-01   2.4221058806390477e-01   2.4886279655793164e-01   2.4221058806390416e-01   2.4754460310241494e-01   2.0710678118650114e-01   2.1433724460153286e-01   2.1433724460151032e-01   2.5621688830732803e-01   2.0591677569692127e-01   2.4230499143097886e-01   2.0756797526181914e-01   2.2452535097324997e-01   2.0591677569691574e-01   2.0756797526183393e-01   2.4230499143099352e-01   2.2452535097323550e-01   2.4022357587653817e-01   2.5559387975617187e-01   2.4022357587653767e-01   2.5440205275612771e-01   1.9731843744661079e-01   1.8220308931659457e-01   1.9448990852117401e-01   1.8270188132665297e-01   1.7357091523888754e-01   1.6826567042676593e-01   1.7486531730212784e-01   1.7051043741060570e-01   1.8128354576857791e-01   1.9075608403949337e-01   1.6225216816449212e-01   1.5434782522466423e-01   1.7165150556015368e-01   1.6346770076686284e-01   1.7172653043058503e-01   1.7413842952360500e-01   1.9731843744661046e-01   1.9448990852116818e-01   1.8220308931659449e-01   1.8270188132665260e-01   1.8128354576861233e-01   1.6225216816451071e-01   1.9075608403949321e-01   1.5434782522467297e-01   1.7357091523888535e-01   1.7486531730212995e-01   1.6826567042676585e-01   1.7051043741060104e-01   1.7172653043059793e-01   1.6346770076686817e-01   1.7165150556015854e-01   1.7413842952359987e-01   1.9731843744661046e-01   1.9448990852117434e-01   1.8220308931658499e-01   1.8270188132665260e-01   1.8128354576857808e-01   1.6225216816449839e-01   1.9075608403949307e-01   1.5434782522467291e-01   1.7357091523888940e-01   1.7486531730214100e-01   1.6826567042676585e-01   1.7051043741060121e-01   1.7172653043058519e-01   1.6346770076687347e-01   1.7165150556015371e-01   1.7413842952359984e-01   1.9731843744661073e-01   1.8220308931659460e-01   1.9448990852117401e-01   1.8270188132664206e-01   1.7357091523888940e-01   1.6826567042676591e-01   1.7486531730212349e-01   1.7051043741061009e-01   1.8128354576857791e-01   1.9075608403949321e-01   1.6225216816449831e-01   1.5434782522467275e-01   1.7165150556014405e-01   1.6346770076687361e-01   1.7172653043058497e-01   1.7413842952361039e-01   2.4158999046761767e-01   2.4173052930206423e-01   2.4173052930206479e-01   2.4303065569839874e-01   2.1729446139388855e-01   2.4501565759492686e-01   2.3410746889796721e-01   2.3007811576353424e-01   2.1729446139388900e-01   2.3410746889795472e-01   2.4501565759495650e-01   2.3007811576353424e-01   2.4221058806390416e-01   2.4886279655794549e-01   2.4221058806391702e-01   2.4754460310240103e-01   2.0710678118650114e-01   2.1433724460153278e-01   2.1433724460153286e-01   2.5621688830732803e-01   2.0591677569692174e-01   2.4230499143099352e-01   2.0756797526181892e-01   2.2452535097322096e-01   2.0591677569692127e-01   2.0756797526181914e-01   2.4230499143099407e-01   2.2452535097322085e-01   2.4022357587649462e-01   2.5559387975617187e-01   2.4022357587653817e-01   2.5440205275612771e-01   1.9731843744662142e-01   1.8220308931658488e-01   1.9448990852116205e-01   1.8270188132663115e-01   1.7357091523887305e-01   1.6826567042676571e-01   1.7486531730214128e-01   1.7051043741060154e-01   1.8128354576857728e-01   1.9075608403949357e-01   1.6225216816447438e-01   1.5434782522467308e-01   1.7165150556016323e-01   1.6346770076687292e-01   1.7172653043059805e-01   1.7413842952359912e-01   1.9731843744662111e-01   1.9448990852116269e-01   1.8220308931658449e-01   1.8270188132665244e-01   1.8128354576850875e-01   1.6225216816449903e-01   1.9075608403949307e-01   1.5434782522467289e-01   1.7357091523887316e-01   1.7486531730214100e-01   1.6826567042676555e-01   1.7051043741058367e-01   1.7172653043059855e-01   1.6346770076689474e-01   1.7165150556016304e-01   1.7413842952357922e-01   1.9731843744662128e-01   1.9448990852116149e-01   1.8220308931660417e-01   1.8270188132665283e-01   1.8128354576857833e-01   1.6225216816449814e-01   1.9075608403949321e-01   1.5434782522467280e-01   1.7357091523888971e-01   1.7486531730212349e-01   1.6826567042676574e-01   1.7051043741061883e-01   1.7172653043059755e-01   1.6346770076687361e-01   1.7165150556014425e-01   1.7413842952362085e-01   1.9731843744660013e-01   1.8220308931660417e-01   1.9448990852121067e-01   1.8270188132663112e-01   1.7357091523888971e-01   1.6826567042676574e-01   1.7486531730214100e-01   1.7051043741061883e-01   1.8128354576864680e-01   1.9075608403949321e-01   1.6225216816449814e-01   1.5434782522463844e-01   1.7165150556016351e-01   1.6346770076687361e-01   1.7172653043059755e-01   1.7413842952362085e-01   2.4158999046761775e-01   2.4173052930208916e-01   2.4173052930208916e-01   2.4303065569832938e-01   2.1729446139379380e-01   2.4501565759492655e-01   2.3410746889790329e-01   2.3007811576358289e-01   2.1729446139379380e-01   2.3410746889790329e-01   2.4501565759480540e-01   2.3007811576358289e-01   2.4221058806396606e-01   2.4886279655802909e-01   2.4221058806396606e-01   2.4754460310254126e-01   2.0710678118631359e-01   2.1433724460148723e-01   2.1433724460166698e-01   2.5621688830732708e-01   2.0591677569687297e-01   2.4230499143096401e-01   2.0756797526184959e-01   2.2452535097327966e-01   2.0591677569696926e-01   2.0756797526184959e-01   2.4230499143096401e-01   2.2452535097316315e-01   2.4022357587640897e-01   2.5559387975640246e-01   2.4022357587658094e-01   2.5440205275604905e-01   1.9731843744660021e-01   1.8220308931658458e-01   1.9448990852116244e-01   1.8270188132663082e-01   1.7357091523888971e-01   1.6826567042676516e-01   1.7486531730217630e-01   1.7051043741061922e-01   1.8128354576864547e-01   1.9075608403962369e-01   1.6225216816445023e-01   1.5434782522481050e-01   1.7165150556008593e-01   1.6346770076691536e-01   1.7172653043054753e-01   1.7413842952353686e-01   1.9731843744668484e-01   1.9448990852126080e-01   1.8220308931666043e-01   1.8270188132663082e-01   1.8128354576891956e-01   1.6225216816445026e-01   1.9075608403949357e-01   1.5434782522467308e-01   1.7357091523888971e-01   1.7486531730217625e-01   1.6826567042676516e-01   1.7051043741054867e-01   1.7172653043054753e-01   1.6346770076691536e-01   1.7165150556008593e-01   1.7413842952362030e-01   1.9731843744660021e-01   1.9448990852126080e-01   1.8220308931658458e-01   1.8270188132671755e-01   1.8128354576864547e-01   1.6225216816454879e-01   1.9075608403962366e-01   1.5434782522467308e-01   1.7357091523882326e-01   1.7486531730217625e-01   1.6826567042676516e-01   1.7051043741054869e-01   1.7172653043054753e-01   1.6346770076683056e-01   1.7165150556016309e-01   1.7413842952362030e-01   1.9731843744660021e-01   1.8220308931658458e-01   1.9448990852116244e-01   1.8270188132654411e-01   1.7357091523882326e-01   1.6826567042676516e-01   1.7486531730217630e-01   1.7051043741054869e-01   1.8128354576837138e-01   1.9075608403949357e-01   1.6225216816454877e-01   1.5434782522467308e-01   1.7165150556008593e-01   1.6346770076691536e-01   1.7172653043054753e-01   1.7413842952353686e-01   2.4158999046761775e-01   2.4173052930203989e-01   2.4173052930208916e-01   2.4303065569842197e-01   2.1729446139388811e-01   2.4501565759498695e-01   2.3410746889795422e-01   2.3007811576348317e-01   2.1729446139384184e-01   2.3410746889800374e-01   2.4501565759492677e-01   2.3007811576348308e-01   2.4221058806391671e-01   2.4886279655791810e-01   2.4221058806386772e-01   2.4754460310237386e-01   2.0710678118668777e-01   2.1433724460148745e-01   2.1433724460148795e-01   2.5621688830732742e-01   2.0591677569696967e-01   2.4230499143096385e-01   2.0756797526178952e-01   2.2452535097322121e-01   2.0591677569692113e-01   2.0756797526184909e-01   2.4230499143096362e-01   2.2452535097322102e-01   2.4022357587649468e-01   2.5559387975624842e-01   2.4022357587649518e-01   2.5440205275612687e-01   1.9731843744659977e-01   1.8220308931662257e-01   1.9448990852116244e-01   1.8270188132667389e-01   1.7357091523888971e-01   1.6826567042676535e-01   1.7486531730210600e-01   1.7051043741061883e-01   1.8128354576864622e-01   1.9075608403949307e-01   1.6225216816449883e-01   1.5434782522467291e-01   1.7165150556012462e-01   1.6346770076687356e-01   1.7172653043059843e-01   1.7413842952357927e-01   1.9731843744660055e-01   1.9448990852121067e-01   1.8220308931658510e-01   1.8270188132663143e-01   1.8128354576850900e-01   1.6225216816449875e-01   1.9075608403942865e-01   1.5434782522467297e-01   1.7357091523887308e-01   1.7486531730210625e-01   1.6826567042676557e-01   1.7051043741061916e-01   1.7172653043059768e-01   1.6346770076683068e-01   1.7165150556016340e-01   1.7413842952362016e-01   1.9731843744664287e-01   1.9448990852111231e-01   1.8220308931662302e-01   1.8270188132663143e-01   1.8128354576850900e-01   1.6225216816449875e-01   1.9075608403949371e-01   1.5434782522467297e-01   1.7357091523888971e-01   1.7486531730217625e-01   1.6826567042680318e-01   1.7051043741054869e-01   1.7172653043059768e-01   1.6346770076687306e-01   1.7165150556012485e-01   1.7413842952357844e-01   1.9731843744659977e-01   1.8220308931658466e-01   1.9448990852116244e-01   1.8270188132663054e-01   1.7357091523892293e-01   1.6826567042676535e-01   1.7486531730214100e-01   1.7051043741054833e-01   1.8128354576864622e-01   1.9075608403949307e-01   1.6225216816454813e-01   1.5434782522467291e-01   1.7165150556020176e-01   1.6346770076683115e-01   1.7172653043059843e-01   1.7413842952366271e-01   2.1166178814955874e-01   2.7027265685083729e-01   2.1259177310877736e-01   2.8660570563177357e-01   2.4684930138288894e-01   2.7779521714943239e-01   2.5973138284769448e-01   2.8336221687861224e-01   2.3247031841400978e-01   2.4403020185192884e-01   2.2179491406046151e-01   2.8546521856744500e-01   2.3227449021060684e-01   2.4548603614823097e-01   2.3368011323816645e-01   2.7541442111096770e-01   2.5526278870616809e-01   2.7284648509109172e-01   2.2277501449123535e-01   2.4014916810984571e-01   2.3897784234223562e-01   2.1160442719721148e-01   1.6039617270500031e-01   2.5532087026445049e-01   2.6853124140065016e-01   2.4049826399255703e-01   2.7580417534489771e-01   2.4804904935306235e-01   2.3595560552292824e-01   2.6600508190725641e-01   2.4819221005596825e-01   1.9505781658803750e-01   2.3507344449668668e-01   2.6515524948364005e-01   2.3759181637877652e-01   2.1461625179939239e-01   2.8275922751513499e-01   1.9890687879385879e-01   2.3993678284101838e-01   2.4107673280133843e-01   2.1005954722500997e-01   2.2906172570751462e-01   2.4965600364472731e-01   2.2629815881358700e-01   2.6660609691788312e-01   1.7831593796999701e-01   2.0056901537624586e-01   2.8521122177358593e-01   2.3598625654479349e-01   2.0359845772036964e-01   2.2027828784588993e-01   2.1193180399556261e-01   2.3039892821702243e-01   2.5102985569069819e-01   1.9956731585404000e-01   2.5556034453155974e-01   2.7530137634081253e-01   2.3774410962755321e-01   2.3748175827698220e-01   2.5467333939602788e-01   2.5940535748624682e-01   2.1160442719723704e-01   2.3771317440226605e-01   2.1432125353226991e-01   2.2288434687395151e-01   2.1051053334989164e-01   2.0690674920060198e-01   2.7376878798360832e-01   2.2900029606194250e-01   2.2812818888295361e-01   2.1732658213528583e-01   2.5299560468936216e-01   2.3085799276106608e-01   1.7927277092488353e-01   2.5469978552849909e-01   2.5831526652851522e-01   2.6159751227824662e-01   2.3305660890745095e-01   2.0112540974513346e-01   2.8209672436195804e-01   2.7635516159344875e-01   2.1810000245513469e-01   2.0316222635439077e-01   1.9835577319958489e-01   2.7654852373158900e-01   2.8613446480518190e-01   2.3178940472566481e-01   2.3734252134241285e-01   2.3734252134259584e-01   2.4245906551559668e-01   2.6506794772373832e-01   2.3818305166845746e-01   1.9039449630877131e-01   2.8459315894254422e-01   2.8285759731193627e-01   2.2129698076489640e-01   2.5506510849303948e-01   2.2296453496357624e-01   2.6594069879371135e-01   2.7792105675003403e-01   2.2708809253310425e-01   2.3141151953847322e-01   1.9029534058643102e-01   2.4801347185247669e-01   2.6721827652917862e-01   2.3463759028437872e-01   2.6600194409296751e-01   2.7844390687389559e-01   2.2304418774320944e-01   2.1823045994780657e-01   2.0902342727545106e-01   2.1065252849286484e-01   1.9232168464864038e-01   2.5587337876786054e-01   2.3270378365498179e-01   2.4866614364539094e-01   1.9068722482505010e-01   2.7293167202163598e-01   2.2522350012226217e-01   2.0235103413939187e-01   1.4884687390229059e-01   2.6872752991334137e-01   1.9896589006828988e-01   2.7635313085686775e-01   2.3060497003589309e-01   2.4103616418463003e-01   2.0194216348507404e-01   2.6221625653138925e-01   2.0686392070209367e-01   2.4242948310471185e-01   2.2145758216757336e-01   2.5993054333823801e-01   2.0166975599344072e-01   2.0837338110233547e-01   2.1460996800580334e-01   2.3774410962753617e-01   2.2729541874182432e-01   2.4246233423988911e-01   2.2669387709172203e-01   2.7224592776922857e-01   2.5776979238768327e-01   2.0333953285513778e-01   2.2718733500422642e-01   2.3752115208076552e-01   2.8265599391908519e-01   2.7922691959756291e-01   2.5003099666584122e-01   1.8512657823719431e-01   1.8335706874569169e-01   2.3319730910849390e-01   2.5397487320689038e-01   2.2641177959440389e-01   2.5554695844802411e-01   2.2047599659991518e-01   2.1042547568106304e-01   1.8239184332748931e-01   2.4237449555331839e-01   2.3141151953847289e-01   2.4863815985503990e-01   2.3449006974567538e-01   2.1724467736694589e-01   1.9223341869983515e-01   2.0661881188886727e-01   1.9522456085274664e-01   2.5530229143711980e-01   2.2026632308598842e-01   2.2912985769215183e-01   2.4284325012405869e-01   2.6762402438602739e-01   1.7533462992796833e-01   2.6690569719797319e-01   2.1348185240305353e-01   2.8572089578727289e-01   1.6108477728462889e-01   2.4445486456019100e-01   1.8561097643968966e-01   2.1910632056070453e-01   2.5564983670181979e-01   2.7271510091780898e-01   2.3611907007433444e-01   2.2515586733206136e-01   2.7990745491191632e-01   2.4231964644805049e-01   1.9927582629502943e-01   2.7117801789974116e-01   2.2563292839661991e-01   2.3932142651180335e-01   2.3056366534993927e-01   2.3305527372183527e-01   2.1245626489859901e-01   2.6066591481290291e-01   2.7897389496817487e-01   2.6792799368891468e-01   2.4807471346698201e-01   2.2401398296518873e-01   1.9511840983326084e-01   2.4602846167288539e-01   2.2583490228993286e-01   2.4784295009785171e-01   2.2338157993110649e-01   2.7888797118304814e-01   1.7808687933916692e-01   2.4630383859838614e-01   2.2710875977288017e-01   2.3561007565315992e-01   2.6703857677133241e-01   2.0540040256357661e-01   2.1010839094555903e-01   2.3922275179648639e-01   2.7561222492527210e-01   2.7159504388085837e-01   2.4804904935306216e-01   2.3356849873786628e-01   2.6379317045082917e-01   2.4926946726308649e-01   2.7044203795916993e-01   2.8249578847230478e-01   2.0135309725710207e-01   2.3403118864754230e-01   2.3471457222080602e-01   2.2593407389938983e-01   2.6189924510656704e-01   2.1731164764928182e-01   1.8169078449265011e-01   2.7723287519164919e-01   2.4250133794122317e-01   2.0915279943352311e-01   2.6342301100136167e-01   2.5667228480623605e-01   2.6002601500361250e-01   2.7853106220106505e-01   2.3623890198440467e-01   2.1427990874785519e-01   2.8210507887121239e-01   2.3487543136945568e-01   2.3839344599959142e-01   2.8316250150675659e-01   2.0468744820826093e-01   2.8709585730820153e-01   2.5473065473440187e-01   2.0877526047484901e-01   2.5574184893059237e-01   2.8540231225094986e-01   2.3325325783040282e-01   2.5528730065218780e-01   2.2533325177159366e-01   2.0711759965346410e-01   2.6080179523944158e-01   2.3786909514198731e-01   2.3060497003589311e-01   2.7513265380119312e-01   2.2917768432130667e-01   1.9094003726837425e-01   2.0953723185098544e-01   2.2258790729264799e-01   2.4640202932559827e-01   2.1264322053314696e-01   2.6544473548608605e-01   2.3956273188554400e-01   2.7872909675307089e-01   2.1960778811561907e-01   2.1777222697895462e-01   1.9433050942220703e-01   2.0684137158602667e-01   2.3913068566399359e-01   2.3068069789931392e-01   2.0570392418987893e-01   2.1834157057803696e-01   1.9597585712607413e-01   2.6577108578001329e-01   2.7087893223674220e-01   1.7182003350500522e-01   2.3970660024400700e-01   2.4007273449795424e-01   2.3654034321956668e-01   2.6917661280390975e-01   2.3491154201939088e-01   2.6344364751478344e-01   2.7381426523932395e-01   2.2021846236973819e-01   2.7830851827217207e-01   1.9094077419682556e-01   2.8216481469271548e-01   2.2822768790905371e-01   2.2629815881358589e-01   1.9201853034729802e-01   2.7700727294646432e-01   2.1620924244635534e-01   2.8195146958156225e-01   2.7743626522672754e-01   2.6211987781451374e-01   2.4851861667362718e-01   2.3087630695644815e-01   2.3285164944742237e-01   2.5939815297548086e-01   2.2150186983949269e-01   2.3087630695644812e-01   2.7151881552696916e-01   2.4838528392745499e-01   2.6669168750187583e-01   1.9059439702015435e-01   2.2802197208487757e-01   2.6185384401269041e-01   2.4362966780113868e-01   2.6218587811807947e-01   2.4994192397195555e-01   2.8210507887116487e-01   2.4697857791913713e-01   2.3847389650204576e-01   2.3366748708260526e-01   1.8355102875228529e-01   2.4543554823250613e-01   2.7957279708157812e-01   2.4539450547134845e-01   2.1990920921297918e-01   1.8090783969401358e-01   2.6423368136156594e-01   2.5073727365381299e-01   2.0465142548369922e-01   1.9620308510975032e-01   2.7542007123304746e-01   2.7542007123308354e-01   2.5021151761166427e-01   2.2186845738012273e-01   2.4861057203014789e-01   2.5300134815752284e-01   2.0597503799532169e-01   2.2881754542998065e-01   2.0837338110234035e-01   2.1454708062598490e-01   2.0100302106719373e-01   2.2702564748406270e-01   2.2641177959441763e-01   2.0757221999747869e-01   2.5311278419663558e-01   2.6768769062291004e-01   2.0797686778044319e-01   2.3237910026307473e-01   2.7472064790577994e-01   2.0221042635481157e-01   1.6170912737546933e-01   2.4454493704272193e-01   2.5942714948362328e-01   2.3579039884310751e-01   2.3238284940218287e-01   2.7641179162592905e-01   2.8419295708384196e-01   2.4855461708814647e-01   2.7132471509405021e-01   2.2455826405001122e-01   2.5762116426356035e-01   2.5764743643397570e-01   1.9887313348503671e-01   1.8415185995278804e-01   2.3234801544648884e-01   2.4373802638370995e-01   2.3479959620014612e-01   2.8111470110997017e-01   2.0436494986372750e-01   1.5237929567784672e-01   2.3508752836366201e-01   2.7514614398105208e-01   2.3277186800712116e-01   1.9882328382203165e-01   1.9786391703669595e-01   1.9678881831879155e-01   2.7788595262272126e-01   2.1203087111055241e-01   2.6711927636173488e-01   2.0221156465659704e-01   1.5894819830757370e-01   2.7002884098362068e-01   2.5382535877203477e-01   2.8358827544334075e-01   2.1499577131465258e-01   2.1429404099565491e-01   2.7815007296649075e-01   2.3010773683824631e-01   2.2061667299163820e-01   2.2303199087758488e-01   2.1683082327031211e-01   1.8760828960399700e-01   2.5575561859646473e-01   2.5374499825551106e-01   2.3483817497209689e-01   2.4626236842682914e-01   1.7099010270808293e-01   2.2258135875309371e-01   2.7651908070022146e-01   2.0235103413941449e-01   2.5252028458240822e-01   2.0798435376703511e-01   2.4903413571679800e-01   2.5591413041452377e-01   2.5099848950275500e-01   2.4959281318562254e-01   1.7522751997325747e-01   2.2389053302956607e-01   2.6780162414099951e-01   2.1333740014304897e-01   1.7823023303570262e-01   2.5080630706439078e-01   1.9545467283761594e-01   2.3756094197819252e-01   2.3649965003091242e-01   2.4629854801938977e-01   2.3304774084533106e-01   2.7365748978500787e-01   2.2411429123959872e-01   2.4040417408451858e-01   2.0683616726303261e-01   2.3749116990371527e-01   1.9776949264