<?xml version="1.0"?>
<VTKFile type="UnstructuredGrid"  version="0.1"  >
<UnstructuredGrid>
<Piece  NumberOfPoints="3984" NumberOfCells="7356">
<Points>
<DataArray  type="Float64"  NumberOfComponents="3"  format="ascii">3 0.504901692839906 0  2.870592087154655 0.4823683486186197 0  3 0.801932550640429 0  2.712819609700631 0.425639219401261 0  2.923581848878968 0.7707455466369024 0  3 0.969048513443635 0  2.517702506464375 0.3569366752858338 0  2.793348253300635 0.6900223799509527 0  2.976138185262463 0.9522763705249254 0  3 0.9990234747496692 0  2.292893218813733 0.2928932188137324 0  2.596341378041969 0.5963413780419684 0  2.889665833804265 0.8896658338042651 0  2.996096130844971 0.996096130844971 0  3 1 0  2.356936675285834 0.5177025064643754 0  2.690022379950953 0.7933482533006351 0  2.952276370524925 0.9761381852624627 0  2.999023474749669 1 0  3 1.000976525250331 0  3.003903869155029 1.003903869155029 0  3.000976525250331 1 0  2.425639219401261 0.7128196097006305 0  2.770745546636902 0.9235818488789674 0  2.969048513443635 1 0  2.996096130844971 1.003903869155029 0  3 1.030951486556365 0  3.023861814737537 1.047723629475075 0  3.110334166195735 1.110334166195735 0  3.047723629475075 1.023861814737537 0  3.030951486556365 1 0  2.482368348618619 0.8705920871546549 0  2.801932550640429 1 0  2.952276370524925 1.023861814737537 0  2.976138185262463 1.047723629475075 0  3 1.198067449359571 0  3.076418151121032 1.229254453363098 0  3.206651746699365 1.309977620049047 0  3.403658621958031 1.403658621958032 0  3.309977620049047 1.206651746699365 0  3.229254453363098 1.076418151121032 0  3.198067449359571 1 0  2.504901692839906 1 0  2.770745546636902 1.076418151121032 0  2.889665833804265 1.110334166195735 0  2.923581848878968 1.229254453363098 0  3 1.495098307160094 0  3.129407912845345 1.517631651381381 0  3.287180390299369 1.574360780598739 0  3.482297493535625 1.643063324714166 0  3.707106781186268 1.707106781186268 0  3.643063324714166 1.482297493535625 0  3.574360780598739 1.287180390299369 0  3.517631651381381 1.129407912845345 0  3.495098307160094 1 0  2.482368348618619 1.129407912845345 0  2.690022379950953 1.206651746699365 0  2.793348253300635 1.309977620049047 0  2.870592087154655 1.517631651381381 0  2.425639219401261 1.287180390299369 0  2.596341378041969 1.403658621958032 0  2.712819609700631 1.574360780598739 0  2.356936675285834 1.482297493535625 0  2.517702506464375 1.643063324714166 0  2.292893218813732 1.707106781186268 0  2 4.495098307160094 0  1.870592087154655 4.517631651381381 0  2 4.198067449359571 0  1.712819609700631 4.574360780598739 0  1.923581848878968 4.229254453363097 0  2 4.030951486556365 0  1.517702506464375 4.643063324714166 0  1.793348253300635 4.309977620049048 0  1.976138185262463 4.047723629475074 0  2 4.000976525250331 0  1.292893218813733 4.707106781186267 0  1.596341378041968 4.403658621958032 0  1.889665833804265 4.110334166195734 0  1.996096130844971 4.003903869155029 0  2 4 0  1.356936675285834 4.482297493535625 0  1.690022379950953 4.206651746699364 0  1.952276370524925 4.023861814737537 0  1.999023474749669 4 0  2 3.999023474749669 0  2.003903869155029 3.996096130844971 0  2.000976525250331 4 0  1.425639219401261 4.28718039029937 0  1.770745546636902 4.076418151121032 0  1.969048513443635 4 0  1.996096130844971 3.996096130844971 0  2 3.969048513443635 0  2.023861814737537 3.952276370524925 0  2.110334166195735 3.889665833804265 0  2.047723629475075 3.976138185262463 0  2.030951486556365 4 0  1.482368348618619 4.129407912845346 0  1.801932550640429 4 0  1.952276370524925 3.976138185262463 0  1.976138185262463 3.952276370524925 0  2 3.801932550640429 0  2.076418151121032 3.770745546636902 0  2.206651746699365 3.690022379950953 0  2.403658621958031 3.596341378041969 0  2.309977620049047 3.793348253300635 0  2.229254453363098 3.923581848878968 0  2.198067449359571 4 0  1.504901692839906 4 0  1.770745546636902 3.923581848878968 0  1.889665833804265 3.889665833804265 0  1.923581848878968 3.770745546636902 0  2 3.504901692839906 0  2.129407912845345 3.482368348618619 0  2.287180390299369 3.425639219401261 0  2.482297493535625 3.356936675285834 0  2.707106781186268 3.292893218813732 0  2.643063324714166 3.517702506464375 0  2.574360780598739 3.712819609700631 0  2.517631651381381 3.870592087154655 0  2.495098307160094 4 0  1.482368348618619 3.870592087154655 0  1.690022379950953 3.793348253300635 0  1.793348253300635 3.690022379950953 0  1.870592087154655 3.482368348618619 0  1.425639219401261 3.712819609700631 0  1.596341378041968 3.596341378041969 0  1.712819609700631 3.425639219401261 0  1.356936675285834 3.517702506464375 0  1.517702506464375 3.356936675285834 0  1.292893218813732 3.292893218813732 0  -6 5.495098307160094 0  -5.870592087154655 5.517631651381381 0  -6 5.198067449359571 0  -5.712819609700631 5.574360780598739 0  -5.923581848878968 5.229254453363097 0  -6 5.030951486556365 0  -5.517702506464375 5.643063324714166 0  -5.793348253300636 5.309977620049048 0  -5.976138185262463 5.047723629475074 0  -6 5.000976525250331 0  -5.292893218813733 5.707106781186267 0  -5.596341378041968 5.403658621958032 0  -5.889665833804266 5.110334166195734 0  -5.996096130844971 5.003903869155029 0  -6 5 0  -5.356936675285834 5.482297493535625 0  -5.690022379950952 5.206651746699364 0  -5.952276370524926 5.023861814737537 0  -5.999023474749669 5 0  -6 4.999023474749669 0  -6.003903869155029 4.996096130844971 0  -6.000976525250331 5 0  -5.425639219401261 5.28718039029937 0  -5.770745546636903 5.076418151121032 0  -5.969048513443635 5 0  -5.996096130844971 4.996096130844971 0  -6 4.969048513443635 0  -6.023861814737537 4.952276370524926 0  -6.110334166195734 4.889665833804266 0  -6.047723629475074 4.976138185262463 0  -6.030951486556365 5 0  -5.482368348618619 5.129407912845346 0  -5.801932550640429 5 0  -5.952276370524926 4.976138185262463 0  -5.976138185262463 4.952276370524926 0  -6 4.801932550640429 0  -6.076418151121032 4.770745546636903 0  -6.206651746699364 4.690022379950952 0  -6.403658621958032 4.596341378041968 0  -6.309977620049048 4.793348253300636 0  -6.229254453363097 4.923581848878968 0  -6.198067449359571 5 0  -5.504901692839906 5 0  -5.770745546636903 4.923581848878968 0  -5.889665833804266 4.889665833804266 0  -5.923581848878968 4.770745546636903 0  -6 4.504901692839906 0  -6.129407912845346 4.482368348618619 0  -6.28718039029937 4.425639219401261 0  -6.482297493535625 4.356936675285834 0  -6.707106781186267 4.292893218813733 0  -6.643063324714166 4.517702506464375 0  -6.574360780598739 4.71281960970063 0  -6.517631651381381 4.870592087154654 0  -6.495098307160094 5 0  -5.482368348618619 4.870592087154654 0  -5.690022379950952 4.793348253300636 0  -5.793348253300636 4.690022379950952 0  -5.870592087154654 4.482368348618619 0  -5.425639219401261 4.71281960970063 0  -5.596341378041968 4.596341378041968 0  -5.71281960970063 4.425639219401261 0  -5.356936675285834 4.517702506464375 0  -5.517702506464375 4.356936675285834 0  -5.292893218813733 4.292893218813733 0  -5 2.504901692839906 0  -4.870592087154655 2.482368348618619 0  -5 2.801932550640429 0  -4.712819609700631 2.425639219401261 0  -4.923581848878968 2.770745546636902 0  -5 2.969048513443635 0  -4.517702506464375 2.356936675285834 0  -4.793348253300636 2.690022379950953 0  -4.976138185262463 2.952276370524925 0  -5 2.999023474749669 0  -4.292893218813733 2.292893218813732 0  -4.596341378041968 2.596341378041969 0  -4.889665833804266 2.889665833804265 0  -4.996096130844971 2.996096130844971 0  -5 3 0  -4.356936675285834 2.517702506464375 0  -4.690022379950952 2.793348253300635 0  -4.952276370524926 2.976138185262463 0  -4.999023474749669 3 0  -5 3.000976525250331 0  -5.003903869155029 3.003903869155029 0  -5.000976525250331 3 0  -4.425639219401261 2.712819609700631 0  -4.770745546636903 2.923581848878968 0  -4.969048513443635 3 0  -4.996096130844971 3.003903869155029 0  -5 3.030951486556365 0  -5.023861814737537 3.047723629475075 0  -5.110334166195734 3.110334166195735 0  -5.047723629475074 3.023861814737537 0  -5.030951486556365 3 0  -4.482368348618619 2.870592087154655 0  -4.801932550640429 3 0  -4.952276370524926 3.023861814737537 0  -4.976138185262463 3.047723629475075 0  -5 3.198067449359571 0  -5.076418151121032 3.229254453363098 0  -5.206651746699364 3.309977620049047 0  -5.403658621958032 3.403658621958031 0  -5.309977620049048 3.206651746699365 0  -5.229254453363097 3.076418151121032 0  -5.198067449359571 3 0  -4.504901692839906 3 0  -4.770745546636903 3.076418151121032 0  -4.889665833804266 3.110334166195735 0  -4.923581848878968 3.229254453363098 0  -5 3.495098307160094 0  -5.129407912845346 3.517631651381381 0  -5.28718039029937 3.574360780598739 0  -5.482297493535625 3.643063324714166 0  -5.707106781186267 3.707106781186268 0  -5.643063324714166 3.482297493535625 0  -5.574360780598739 3.287180390299369 0  -5.517631651381381 3.129407912845345 0  -5.495098307160094 3 0  -4.482368348618619 3.129407912845345 0  -4.690022379950952 3.206651746699365 0  -4.793348253300636 3.309977620049047 0  -4.870592087154654 3.517631651381381 0  -4.425639219401261 3.287180390299369 0  -4.596341378041968 3.403658621958031 0  -4.71281960970063 3.574360780598739 0  -4.356936675285834 3.482297493535625 0  -4.517702506464375 3.643063324714166 0  -4.292893218813733 3.707106781186268 0  5 1 0  4.83038291558927 1.060287186691953 0  5 1.1875 0  4.660765831178542 1.120574373383906 0  4.752051342018341 1.352229284786525 0  5 1.375 0  4.491148746767813 1.180861560075859 0  4.4322882905522 1.432262198034769 0  4.613242116355901 1.55893932648076 0  5 1.5625 0  4.321531662357083 1.241148746767812 0  4.219575161945451 1.491797959243029 0  4.23268619585246 1.762072368835434 0  4.493304945754296 1.792284526517738 0  4.746989430303032 1.775180020690435 0  5 1.75 0  3.982297493535625 1.361723120151718 0  3.966678612559707 1.765358815105942 0  4.001984264978835 2.029033512423678 0  4.337442301453079 2.02507858124129 0  4.620523510659621 2.0217
[...]
<CellData  Scalars="f_7791"> 
<DataArray  type="Float64"  Name="f_7791"  format="ascii">2.8589834143359533e-01   2.8589834143363929e-01   2.8589834143364024e-01   2.8589834143364007e-01   2.4632838029944956e-01   2.4632838029944948e-01   2.4632838029945070e-01   2.4632838029949186e-01   2.4632838029945026e-01   2.4632838029945067e-01   2.4632838029945087e-01   2.4632838029940829e-01   2.7744761079470032e-01   2.7744761079470015e-01   2.7744761079466307e-01   2.7744761079470015e-01   1.5599092271695247e-01   1.7571306460539501e-01   1.5599092271695270e-01   1.7571306460539582e-01   2.4278007801490215e-01   1.6491975966825503e-01   2.4278007801490215e-01   1.6491975966819072e-01   1.9892816892786438e-01   2.0192123372017198e-01   1.9892816892786408e-01   2.0192123372013243e-01   2.2139653994355848e-01   1.6991506999675016e-01   2.2139653994346392e-01   1.6991506999678738e-01   1.5599092271692241e-01   1.7571306460543029e-01   1.5599092271695300e-01   1.7571306460539485e-01   1.9892816892786400e-01   2.0192123372017140e-01   1.9892816892790205e-01   2.0192123372017140e-01   2.4278007801499699e-01   1.6491975966819059e-01   2.4278007801490231e-01   1.6491975966819059e-01   2.2139653994351066e-01   1.6991506999671460e-01   2.2139653994351038e-01   1.6991506999675007e-01   2.2984546922239502e-01   2.2984546922243074e-01   2.2984546922243176e-01   2.2984546922239513e-01   1.5042182366272486e-01   2.3404644313679226e-01   1.5042182366272480e-01   2.3404644313684664e-01   2.2984546922239413e-01   2.2984546922243129e-01   2.2984546922239465e-01   2.2984546922243076e-01   1.5036452633964004e-01   2.3640329655382639e-01   1.5036452633964004e-01   2.3640329655382569e-01   2.0710678105661981e-01   2.0710677951343631e-01   2.0710678105661981e-01   2.0710678105661981e-01   7.4392276449232242e-02   6.2780977294063164e-02   7.4392276449232242e-02   6.2780977290249243e-02   7.4392276444715091e-02   6.2780977294063164e-02   7.4392276449232242e-02   6.2780977294063164e-02   1.1021051661295415e-01   1.2272129200228445e-01   1.1021051661295415e-01   1.2272129200228445e-01   1.2680870999898677e-01   1.1645963131156242e-01   1.2680870999894719e-01   1.1645963131152633e-01   2.5693021323106330e-01   1.5652923609364849e-01   2.5693021323106330e-01   1.5652923609364955e-01   8.1043311682348920e-02   6.8468440464774433e-02   8.1043311682204133e-02   6.8468440464774086e-02   2.0115073256032862e-01   1.5275733242464376e-01   2.0115073256032892e-01   1.5275733242473319e-01   1.2680870999894728e-01   1.1645963131156255e-01   1.2680870999898719e-01   1.1645963131152608e-01   8.1043311682348004e-02   6.8468440464896127e-02   8.1043311682203592e-02   6.8468440464774058e-02   2.5693021323121029e-01   1.5652923609355901e-01   2.5693021323106330e-01   1.5652923609364877e-01   2.0115073256032831e-01   1.5275733242473241e-01   2.0115073256021207e-01   1.5275733242473252e-01   2.7887570160916159e-01   1.4108314537867417e-01   2.7887570160916159e-01   1.4108314538008407e-01   1.1816279769250636e-01   1.3476098400432632e-01   1.1816279769227037e-01   1.3476098400432468e-01   2.7887570160917063e-01   1.4108314537867547e-01   2.7887570161195357e-01   1.4108314537867211e-01   1.4996381298797670e-01   2.4303504584504507e-01   1.4996381298727665e-01   2.4303504584731295e-01   1.7306803195964929e-01   1.4419901978162086e-01   1.7306803195964929e-01   1.4419901978162086e-01   2.0265675509877307e-01   1.2144642430823352e-01   2.0265675509875711e-01   1.2144642430824400e-01   1.8841221337078873e-01   1.3002197183919334e-01   1.8841221337078715e-01   1.3002197183915604e-01   1.0965899617668266e-01   8.2059527098252788e-02   1.0965899617668273e-01   8.2059527098238411e-02   2.7112911671262424e-01   1.2425472039900819e-01   2.7112911671262424e-01   1.2425472039900858e-01   2.3333475332972606e-01   8.5489823288000907e-02   2.3333475332972606e-01   8.5489823287990888e-02   2.3469473376661573e-01   1.1633897530413667e-01   2.3469473376663275e-01   1.1633897530413634e-01   2.4006471300080184e-01   1.0199494545336013e-01   2.4006471300077922e-01   1.0199494545335984e-01   7.6444182573705513e-02   6.0693660441778367e-02   7.6444182716186179e-02   6.0693660554902384e-02   2.7613864140847716e-01   1.2208407244890135e-01   2.7613864140848987e-01   1.2208407244890498e-01   1.0618453697583595e-01   5.5243812249904684e-02   1.0618453697583595e-01   5.5243812249905183e-02   2.4127000913040809e-02   2.0340095588188372e-02   2.4127000913040809e-02   2.0340095588188983e-02   1.6303884059349297e-01   8.2823051856911467e-02   1.6303884059351370e-01   8.2823051856911745e-02   1.0879278953535239e-01   5.4220201828403224e-02   1.0879278953531796e-01   5.4220201828386078e-02   4.7370733793190713e-02   3.7696483561860276e-02   4.7370733793190685e-02   3.7696483561859985e-02   2.1864479380432317e-01   9.1684526332372007e-02   2.1864479380432317e-01   9.1684526332371979e-02   1.7306803195965015e-01   1.4419901978162128e-01   1.7306803195965018e-01   1.4419901978163438e-01   1.8841221337084121e-01   1.3002197183919312e-01   1.8841221337073638e-01   1.3002197183919331e-01   2.0265675509875655e-01   1.2144642430823363e-01   2.0265675509875658e-01   1.2144642430822324e-01   1.0965899617668244e-01   8.2059527098224311e-02   1.0965899617668244e-01   8.2059527098238563e-02   7.6444182573706443e-02   6.0693660554902384e-02   7.6444182573701683e-02   6.0693660441778367e-02   1.0618453697553763e-01   5.5243812250059227e-02   1.0618453697583445e-01   5.5243812249905148e-02   2.7613864140573230e-01   1.2208407244890343e-01   2.7613864140847555e-01   1.2208407244890343e-01   2.4127000913041506e-02   2.0340095589471811e-02   2.4127000913041326e-02   2.0340095589471811e-02   2.7112911671262391e-01   1.2425472039900370e-01   2.7112911671262474e-01   1.2425472039900863e-01   2.3469473376661490e-01   1.1633897530414535e-01   2.3469473376663333e-01   1.1633897530414126e-01   2.3333475332972584e-01   8.5489823288000907e-02   2.3333475332969852e-01   8.5489823287990888e-02   2.4006471300078042e-01   1.0199494545335991e-01   2.4006471300078105e-01   1.0199494545336026e-01   4.7370733793190685e-02   3.7696483561937853e-02   4.7370733793190775e-02   3.7696483561821481e-02   1.0879278953528360e-01   5.4220201828385876e-02   1.0879278953535240e-01   5.4220201828403196e-02   1.6303884059349355e-01   8.2823051856911620e-02   1.6303884059349355e-01   8.2823051856911384e-02   2.1864479380432272e-01   9.1684526332371646e-02   2.1864479380432350e-01   9.1684526332371896e-02   1.7306803195968198e-01   1.4419901978164776e-01   1.7306803195964990e-01   1.4419901978164734e-01   1.8841221337078881e-01   1.3002197183919342e-01   1.8841221337078962e-01   1.3002197183926573e-01   2.0265675509875600e-01   1.2144642430825403e-01   2.0265675509875600e-01   1.2144642430823327e-01   1.0965899617668218e-01   8.2059527098238522e-02   1.0965899617672066e-01   8.2059527098209739e-02   7.6444182716186179e-02   6.0693660441778367e-02   7.6444182573705513e-02   6.0693660554902384e-02   1.0618453697613173e-01   5.5243812249904656e-02   1.0618453697553755e-01   5.5243812249905148e-02   2.7613864140847233e-01   1.2208407244890353e-01   2.7613864140572919e-01   1.2208407245011611e-01   2.4127000913041308e-02   2.0340095589471797e-02   2.4127000913041308e-02   2.0340095588188761e-02   2.7112911671254497e-01   1.2425472039900376e-01   2.7112911671254503e-01   1.2425472039900368e-01   2.3469473376663294e-01   1.1633897530412746e-01   2.3469473376659625e-01   1.1633897530416351e-01   2.3333475332972622e-01   8.5489823288000977e-02   2.3333475332978093e-01   8.5489823288020905e-02   2.4006471300080190e-01   1.0199494545335998e-01   2.4006471300080257e-01   1.0199494545332370e-01   4.7370733793190886e-02   3.7696483561782679e-02   4.7370733793190692e-02   3.7696483561937943e-02   1.0879278953535242e-01   5.4220201828368786e-02   1.0879278953528360e-01   5.4220201828403272e-02   1.6303884059349383e-01   8.2823051856932756e-02   1.6303884059341039e-01   8.2823051856932381e-02   2.1864479380432356e-01   9.1684526332371757e-02   2.1864479380432350e-01   9.1684526332338423e-02   1.7306803195968132e-01   1.4419901978159422e-01   1.7306803195964929e-01   1.4419901978164754e-01   2.0265675509872322e-01   1.2144642430819322e-01   2.0265675509875614e-01   1.2144642430823346e-01   1.8841221337078715e-01   1.3002197183919234e-01   1.8841221337078873e-01   1.3002197183919334e-01   1.0965899617664446e-01   8.2059527098238411e-02   1.0965899617668269e-01   8.2059527098209878e-02   2.7112911671262435e-01   1.2425472039896740e-01   2.7112911671262435e-01   1.2425472039902181e-01   2.3333475332978093e-01   8.5489823288020891e-02   2.3333475332978093e-01   8.5489823287980937e-02   2.3469473376659664e-01   1.1633897530414523e-01   2.3469473376663397e-01   1.1633897530416366e-01   2.4006471300080048e-01   1.0199494545335977e-01   2.4006471300080176e-01   1.0199494545334199e-01   7.6444182716186179e-02   6.0693660441778367e-02   7.6444182573705513e-02   6.0693660554902384e-02   2.7613864140849109e-01   1.2208407244890446e-01   2.7613864140847838e-01   1.2208407244890186e-01   1.0618453697583564e-01   5.5243812249905190e-02   1.0618453697553855e-01   5.5243812249904656e-02   2.4127000913040902e-02   2.0340095590754986e-02   2.4127000914562817e-02   2.0340095589471485e-02   1.6303884059349297e-01   8.2823051856911745e-02   1.6303884059349297e-01   8.2823051856911412e-02   1.0879278953528361e-01   5.4220201828368980e-02   1.0879278953535242e-01   5.4220201828368890e-02   4.7370733793093207e-02   3.7696483561860027e-02   4.7370733793093124e-02   3.7696483561860297e-02   2.1864479380432300e-01   9.1684526332338465e-02   2.1864479380440277e-01   9.1684526332371896e-02   2.8589834143355153e-01   2.8589834143359644e-01   2.8589834143363929e-01   2.8589834143359633e-01   2.4632838029945026e-01   2.4632838029945087e-01   2.4632838029945067e-01   2.4632838029945067e-01   2.4632838029953430e-01   2.4632838029953544e-01   2.4632838029953422e-01   2.4632838029944948e-01   2.7744761079470032e-01   2.7744761079470159e-01   2.7744761079466157e-01   2.7744761079466157e-01   1.5599092271692230e-01   1.7571306460536029e-01   1.5599092271698378e-01   1.7571306460543029e-01   2.4278007801509160e-01   1.6491975966819059e-01   2.4278007801471305e-01   1.6491975966819059e-01   1.9892816892782592e-01   2.0192123372021004e-01   1.9892816892782594e-01   2.0192123372021004e-01   2.2139653994355765e-01   1.6991506999678635e-01   2.2139653994346337e-01   1.6991506999678715e-01   1.5599092271698339e-01   1.7571306460536124e-01   1.5599092271698320e-01   1.7571306460536040e-01   1.9892816892790213e-01   2.0192123372013243e-01   1.9892816892782633e-01   2.0192123372013338e-01   2.4278007801490215e-01   1.6491975966819072e-01   2.4278007801490209e-01   1.6491975966819072e-01   2.2139653994346395e-01   1.6991506999678738e-01   2.2139653994355848e-01   1.6991506999678643e-01   2.2984546922239413e-01   2.2984546922239460e-01   2.2984546922239465e-01   2.2984546922239413e-01   1.5042182366275980e-01   2.3404644313684664e-01   1.5042182366275977e-01   2.3404644313684664e-01   2.2984546922239502e-01   2.2984546922239513e-01   2.2984546922239402e-01   2.2984546922246843e-01   1.5036452633956890e-01   2.3640329655388165e-01   1.5036452633964004e-01   2.3640329655388231e-01   2.0710677951343631e-01   2.0710677951343631e-01   2.0710678259980331e-01   2.0710678259980331e-01   7.4392276453749392e-02   6.2780977290251061e-02   7.4392276444715091e-02   6.2780977290251061e-02   7.4392276453749392e-02   6.2780977297873436e-02   7.4392276444715091e-02   6.2780977290251061e-02   1.1021051661295415e-01   1.2272129200228445e-01   1.1021051684773460e-01   1.2272129200228445e-01   1.2680870999894753e-01   1.1645963131152608e-01   1.2680870999902666e-01   1.1645963131152608e-01   2.5693021323121046e-01   1.5652923609364877e-01   2.5693021323121029e-01   1.5652923609364866e-01   8.1043311682347990e-02   6.8468440464896058e-02   8.1043311682348004e-02   6.8468440464896127e-02   2.0115073256044574e-01   1.5275733242464379e-01   2.0115073256021143e-01   1.5275733242482112e-01   1.2680870999894719e-01   1.1645963131152633e-01   1.2680870999894706e-01   1.1645963131152598e-01   8.1043311682348532e-02   6.8468440464896085e-02   8.1043311682060110e-02   6.8468440464652447e-02   2.5693021323121046e-01   1.5652923609364955e-01   2.5693021323121046e-01   1.5652923609364849e-01   2.0115073256044569e-01   1.5275733242464445e-01   2.0115073256021174e-01   1.5275733242464376e-01   2.7887570160916614e-01   1.4108314537867211e-01   2.7887570160917063e-01   1.4108314538149577e-01   1.1816279769227037e-01   1.3476098400405551e-01   1.1816279769227031e-01   1.3476098400405714e-01   2.7887570160916159e-01   1.4108314537867392e-01   2.7887570160358677e-01   1.4108314538149447e-01   1.4996381298657649e-01   2.4303504584731289e-01   1.4996381298797670e-01   2.4303504584731447e-01   1.7306803195968198e-01   1.4419901978159444e-01   1.7306803195968190e-01   1.4419901978164698e-01   2.0265675509875591e-01   1.2144642430823370e-01   2.0265675509875591e-01   1.2144642430823305e-01   1.8841221337078881e-01   1.3002197183919340e-01   1.8841221337078962e-01   1.3002197183919340e-01   1.0965899617668218e-01   8.2059527098238522e-02   1.0965899617668244e-01   8.2059527098238202e-02   2.7112911671262396e-01   1.2425472039900406e-01   2.7112911671270445e-01   1.2425472039904026e-01   2.3333475332967099e-01   8.5489823288020739e-02   2.3333475332978038e-01   8.5489823288020642e-02   2.3469473376659600e-01   1.1633897530416301e-01   2.3469473376659664e-01   1.1633897530412762e-01   2.4006471300080137e-01   1.0199494545335966e-01   2.4006471300071699e-01   1.0199494545336012e-01   7.6444182431247246e-02   6.0693660328668395e-02   7.6444182431247246e-02   6.0693660554888333e-02   2.7613864140847710e-01   1.2208407244890571e-01   2.7613864141396349e-01   1.2208407244890113e-01   1.0618453697583759e-01   5.5243812249905634e-02   1.0618453697583759e-01   5.5243812249904656e-02   2.4127000911519300e-02   2.0340095590755201e-02   2.4127000911519300e-02   2.0340095590754462e-02   1.6303884059349405e-01   8.2823051856911689e-02   1.6303884059341064e-01   8.2823051856911203e-02   1.0879278953535226e-01   5.4220201828472050e-02   1.0879278953535226e-01   5.4220201828403085e-02   4.7370733793190713e-02   3.7696483561860346e-02   4.7370733792995764e-02   3.7696483561860346e-02   2.1864479380448421e-01   9.1684526332338742e-02   2.1864479380432320e-01   9.1684526332338256e-02   1.7306803195974593e-01   1.4419901978159372e-01   1.7306803195968243e-01   1.4419901978164831e-01   1.8841221337057751e-01   1.3002197183919348e-01   1.8841221337079031e-01   1.3002197183933814e-01   2.0265675509875583e-01   1.2144642430823376e-01   2.0265675509875397e-01   1.2144642430827347e-01   1.0965899617675737e-01   8.2059527098237980e-02   1.0965899617652906e-01   8.2059527098238758e-02   7.6444182431221197e-02   6.0693660328669345e-02   7.6444182716182515e-02   6.0693660554887389e-02   1.0618453697524349e-01   5.5243812249905551e-02   1.0618453697524119e-01   5.5243812249904690e-02   2.7613864140846572e-01   1.2208407244890229e-01   2.7613864141397743e-01   1.2208407244890775e-01   2.4127000911518988e-02   2.0340095593320600e-02   2.4127000911518988e-02   2.0340095585623445e-02   2.7112911671262435e-01   1.2425472039904030e-01   2.7112911671262435e-01   1.2425472039900409e-01   2.3469473376667022e-01   1.1633897530412812e-01   2.3469473376659775e-01   1.1633897530412735e-01   2.3333475332977816e-01   8.5489823287980701e-02   2.3333475332966883e-01   8.5489823287980479e-02   2.4006471300089013e-01   1.0199494545332417e-01   2.4006471300080184e-01   1.0199494545335977e-01   4.7370733793385751e-02   3.7696483561860297e-02   4.7370733793385841e-02   3.7696483561705026e-02   1.0879278953548847e-01   5.4220201828471259e-02   1.0879278953521460e-01   5.4220201828334619e-02   1.6303884059349413e-01   8.2823051856953864e-02   1.6303884059357709e-01   8.2823051856911190e-02   2.1864479380448307e-01   9.1684526332337535e-02   2.1864479380432650e-01   9.1684526332338548e-02   1.7306803195961759e-01   1.4419901978159444e-01   1.7306803195968157e-01   1.4419901978159405e-01   1.8841221337078873e-01   1.3002197183919334e-01   1.8841221337078715e-01   1.3002197183919234e-01   2.0265675509875611e-01   1.2144642430827418e-01   2.0265675509875702e-01   1.2144642430823371e-01   1.0965899617668273e-01   8.2059527098238563e-02   1.0965899617668273e-01   8.2059527098238355e-02   7.6444182716186179e-02   6.0693660554902384e-02   7.6444182431224861e-02   6.0693660781150412e-02   1.0618453697524062e-01   5.5243812250522682e-02   1.0618453697583478e-01   5.5243812249596277e-02   2.7613864140299205e-01   1.2208407244890186e-01   2.7613864140849109e-01   1.2208407244890554e-01   2.4127000911518988e-02   2.0340095588188448e-02   2.4127000914562817e-02   2.0340095590755138e-02   2.7112911671270284e-01   1.2425472039900352e-01   2.7112911671262391e-01   1.2425472039903988e-01   2.3469473376666977e-01   1.1633897530412743e-01   2.3469473376659625e-01   1.1633897530412743e-01   2.3333475332978093e-01   8.5489823287980937e-02   2.3333475332989032e-01   8.5489823287980937e-02   2.4006471300080182e-01   1.0199494545332355e-01   2.4006471300071552e-01   1.0199494545335995e-01   4.7370733792995591e-02   3.7696483562015562e-02   4.7370733793190713e-02   3.7696483561860027e-02   1.0879278953549006e-01   5.4220201828403085e-02   1.0879278953521478e-01   5.4220201828403272e-02   1.6303884059349286e-01   8.2823051856869376e-02   1.6303884059349286e-01   8.2823051856911620e-02   2.1864479380448287e-01   9.1684526332271019e-02   2.1864479380448362e-01   9.1684526332338423e-02   1.7306803195968157e-01   1.4419901978159405e-01   1.7306803195968157e-01   1.4419901978164776e-01   2.0265675509875702e-01   1.2144642430819311e-01   2.0265675509875611e-01   1.2144642430819295e-01   1.8841221337078715e-01   1.3002197183904762e-01   1.8841221337078873e-01   1.3002197183919334e-01   1.0965899617668273e-01   8.2059527098238355e-02   1.0965899617660629e-01   8.2059527098181359e-02   2.7112911671270290e-01   1.2425472039896747e-01   2.7112911671270290e-01   1.2425472039896733e-01   2.3333475332967152e-01   8.5489823287980937e-02   2.3333475332978093e-01   8.5489823287940844e-02   2.3469473376659625e-01   1.1633897530412743e-01   2.3469473376659736e-01   1.1633897530412743e-01   2.4006471300080129e-01   1.0199494545332354e-01   2.4006471300071611e-01   1.0199494545339639e-01   7.6444183001147498e-02   6.0693660554902384e-02   7.6444182431224861e-02   6.0693660554902384e-02   2.7613864140300465e-01   1.2208407244890554e-01   2.7613864140847838e-01   1.2208407244890186e-01   1.0618453697583478e-01   5.5243812249905405e-02   1.0618453697524061e-01   5.5243812249904434e-02   2.4127000911518988e-02   2.0340095590755138e-02   2.4127000911518988e-02   2.0340095588188448e-02   1.6303884059332696e-01   8.2823051856995900e-02   1.6303884059349286e-01   8.2823051856953642e-02   1.0879278953549006e-01   5.4220201828334681e-02   1.0879278953549006e-01   5.4220201828403085e-02   4.7370733793190713e-02   3.7696483562015298e-02   4.7370733793385821e-02   3.7696483561860297e-02   2.1864479380432342e-01   9.1684526332338423e-02   2.1864479380416249e-01   9.1684526332338173e-02   2.8589834143373033e-01   2.8589834143338044e-01   2.8589834143372611e-01   2.8589834143338066e-01   2.4632838029936910e-01   2.4632838029936721e-01   2.4632838029936616e-01   2.4632838029970905e-01   2.4632838029936910e-01   2.4632838029936616e-01   2.4632838029936721e-01   2.4632838029937010e-01   2.7744761079473718e-01   2.7744761079473718e-01   2.7744761079443181e-01   2.7744761079442765e-01   1.5599092271698367e-01   1.7571306460542921e-01   1.5599092271698367e-01   1.7571306460542960e-01   2.4278007801490409e-01   1.6491975966818889e-01   2.4278007801490409e-01   1.6491975966819089e-01   1.9892816892797988e-01   2.0192123372028736e-01   1.9892816892798060e-01   2.0192123371997875e-01   2.2139653994