<?xml version="1.0"?>
<VTKFile type="UnstructuredGrid"  version="0.1"  >
<UnstructuredGrid>
<Piece  NumberOfPoints="2388" NumberOfCells="4365">
<Points>
<DataArray  type="Float64"  NumberOfComponents="3"  format="ascii">3 0.3059179772177343 0  2.826192235005252 0.3047689400210052 0  3 0.4876840732277087 0  2.650848904718999 0.3016978094379971 0  2.828721773526102 0.4861653205783054 0  3 0.6663313827030033 0  2.473127361874204 0.2975031491656049 0  2.654933606300413 0.4824004094506196 0  2.832075157123596 0.6641503142471923 0  3 0.8400450330852545 0  2.292893218813298 0.2928932188132978 0  2.477765466230188 0.4777654662301873 0  2.659590949023722 0.6595909490237226 0  2.836584264135747 0.8365842641357473 0  3 1 0  2.297503149165605 0.4731273618742037 0  2.482400409450619 0.654933606300413 0  2.664150314247192 0.8320751571235961 0  2.840045033085254 1 0  3 1.159954966914746 0  3.163415735864253 1.163415735864253 0  3.159954966914746 1 0  2.301697809437997 0.6508489047189985 0  2.486165320578305 0.8287217735261018 0  2.666331382703003 1 0  2.836584264135747 1.163415735864253 0  3 1.333668617296997 0  3.167924842876404 1.335849685752808 0  3.340409050976278 1.340409050976277 0  3.335849685752808 1.167924842876404 0  3.333668617296997 1 0  2.304768940021005 0.8261922350052512 0  2.487684073227709 1 0  2.664150314247192 1.167924842876404 0  2.832075157123596 1.335849685752808 0  3 1.512315926772291 0  3.171278226473898 1.513834679421695 0  3.345066393699587 1.51759959054938 0  3.522234533769812 1.522234533769813 0  3.517599590549381 1.345066393699587 0  3.513834679421695 1.171278226473898 0  3.512315926772291 1 0  2.305917977217734 1 0  2.486165320578305 1.171278226473898 0  2.659590949023722 1.340409050976277 0  2.828721773526102 1.513834679421695 0  3 1.694082022782266 0  3.173807764994749 1.695231059978995 0  3.349151095281001 1.698302190562003 0  3.526872638125796 1.702496850834395 0  3.707106781186702 1.707106781186702 0  3.702496850834395 1.526872638125796 0  3.698302190562003 1.349151095281002 0  3.695231059978995 1.173807764994749 0  3.694082022782266 1 0  2.304768940021005 1.173807764994749 0  2.482400409450619 1.345066393699587 0  2.654933606300413 1.51759959054938 0  2.826192235005251 1.695231059978995 0  2.301697809437997 1.349151095281002 0  2.477765466230188 1.522234533769813 0  2.650848904718999 1.698302190562003 0  2.297503149165605 1.526872638125796 0  2.473127361874204 1.702496850834395 0  2.292893218813298 1.707106781186702 0  2 4.694082022782266 0  1.826192235005251 4.695231059978995 0  2 4.512315926772291 0  1.650848904718999 4.698302190562003 0  1.828721773526102 4.513834679421695 0  2 4.333668617296997 0  1.473127361874204 4.702496850834395 0  1.654933606300413 4.517599590549381 0  1.832075157123596 4.335849685752808 0  2 4.159954966914746 0  1.292893218813298 4.707106781186702 0  1.477765466230187 4.522234533769812 0  1.659590949023723 4.340409050976278 0  1.836584264135747 4.163415735864253 0  2 4 0  1.297503149165605 4.526872638125797 0  1.48240040945062 4.345066393699587 0  1.664150314247192 4.167924842876404 0  1.840045033085254 4 0  2 3.840045033085254 0  2.163415735864253 3.836584264135747 0  2.159954966914746 4 0  1.301697809437997 4.349151095281002 0  1.486165320578305 4.171278226473898 0  1.666331382703003 4 0  1.836584264135747 3.836584264135747 0  2 3.666331382703003 0  2.167924842876404 3.664150314247192 0  2.340409050976278 3.659590949023722 0  2.335849685752808 3.832075157123596 0  2.333668617296997 4 0  1.304768940021005 4.173807764994748 0  1.487684073227709 4 0  1.664150314247192 3.832075157123596 0  1.832075157123596 3.664150314247192 0  2 3.487684073227709 0  2.171278226473898 3.486165320578305 0  2.345066393699587 3.482400409450619 0  2.522234533769812 3.477765466230188 0  2.517599590549381 3.654933606300413 0  2.513834679421695 3.828721773526102 0  2.512315926772291 4 0  1.305917977217734 4 0  1.486165320578305 3.828721773526102 0  1.659590949023723 3.659590949023722 0  1.828721773526102 3.486165320578305 0  2 3.305917977217734 0  2.173807764994749 3.304768940021005 0  2.349151095281001 3.301697809437997 0  2.526872638125796 3.297503149165605 0  2.707106781186702 3.292893218813298 0  2.702496850834395 3.473127361874204 0  2.698302190562003 3.650848904718999 0  2.695231059978995 3.826192235005251 0  2.694082022782266 4 0  1.304768940021005 3.826192235005251 0  1.48240040945062 3.654933606300413 0  1.654933606300413 3.482400409450619 0  1.826192235005251 3.304768940021005 0  1.301697809437997 3.650848904718999 0  1.477765466230187 3.477765466230188 0  1.650848904718998 3.301697809437997 0  1.297503149165605 3.473127361874204 0  1.473127361874204 3.297503149165605 0  1.292893218813298 3.292893218813298 0  -6 5.694082022782266 0  -5.826192235005252 5.695231059978995 0  -6 5.512315926772291 0  -5.650848904718998 5.698302190562003 0  -5.828721773526102 5.513834679421695 0  -6 5.333668617296997 0  -5.473127361874203 5.702496850834395 0  -5.654933606300413 5.517599590549381 0  -5.832075157123596 5.335849685752808 0  -6 5.159954966914746 0  -5.292893218813298 5.707106781186702 0  -5.477765466230188 5.522234533769812 0  -5.659590949023722 5.340409050976278 0  -5.836584264135747 5.163415735864253 0  -6 5 0  -5.297503149165605 5.526872638125797 0  -5.482400409450619 5.345066393699587 0  -5.664150314247192 5.167924842876404 0  -5.840045033085254 5 0  -6 4.840045033085254 0  -6.163415735864253 4.836584264135747 0  -6.159954966914746 5 0  -5.301697809437997 5.349151095281002 0  -5.486165320578305 5.171278226473898 0  -5.666331382703003 5 0  -5.836584264135747 4.836584264135747 0  -6 4.666331382703003 0  -6.167924842876404 4.664150314247192 0  -6.340409050976278 4.659590949023722 0  -6.335849685752808 4.832075157123596 0  -6.333668617296997 5 0  -5.304768940021005 5.173807764994748 0  -5.487684073227709 5 0  -5.664150314247192 4.832075157123596 0  -5.832075157123596 4.664150314247192 0  -6 4.487684073227709 0  -6.171278226473898 4.486165320578305 0  -6.345066393699587 4.482400409450619 0  -6.522234533769812 4.477765466230188 0  -6.517599590549381 4.654933606300413 0  -6.513834679421695 4.828721773526102 0  -6.512315926772291 5 0  -5.305917977217734 5 0  -5.486165320578305 4.828721773526102 0  -5.659590949023722 4.659590949023722 0  -5.828721773526102 4.486165320578305 0  -6 4.305917977217734 0  -6.173807764994748 4.304768940021005 0  -6.349151095281002 4.301697809437997 0  -6.526872638125797 4.297503149165605 0  -6.707106781186702 4.292893218813298 0  -6.702496850834395 4.473127361874203 0  -6.698302190562003 4.650848904718998 0  -6.695231059978995 4.826192235005252 0  -6.694082022782266 5 0  -5.304768940021005 4.826192235005252 0  -5.482400409450619 4.654933606300413 0  -5.654933606300413 4.482400409450619 0  -5.826192235005252 4.304768940021005 0  -5.301697809437997 4.650848904718998 0  -5.477765466230188 4.477765466230188 0  -5.650848904718998 4.301697809437997 0  -5.297503149165605 4.473127361874203 0  -5.473127361874203 4.297503149165605 0  -5.292893218813298 4.292893218813298 0  -5 2.305917977217734 0  -4.826192235005252 2.304768940021005 0  -5 2.487684073227709 0  -4.650848904718998 2.301697809437997 0  -4.828721773526102 2.486165320578305 0  -5 2.666331382703003 0  -4.473127361874203 2.297503149165605 0  -4.654933606300413 2.482400409450619 0  -4.832075157123596 2.664150314247192 0  -5 2.840045033085254 0  -4.292893218813298 2.292893218813298 0  -4.477765466230188 2.477765466230188 0  -4.659590949023722 2.659590949023722 0  -4.836584264135747 2.836584264135747 0  -5 3 0  -4.297503149165605 2.473127361874204 0  -4.482400409450619 2.654933606300413 0  -4.664150314247192 2.832075157123596 0  -4.840045033085254 3 0  -5 3.159954966914746 0  -5.163415735864253 3.163415735864253 0  -5.159954966914746 3 0  -4.301697809437997 2.650848904718999 0  -4.486165320578305 2.828721773526102 0  -4.666331382703003 3 0  -4.836584264135747 3.163415735864253 0  -5 3.333668617296997 0  -5.167924842876404 3.335849685752808 0  -5.340409050976278 3.340409050976278 0  -5.335849685752808 3.167924842876404 0  -5.333668617296997 3 0  -4.304768940021005 2.826192235005251 0  -4.487684073227709 3 0  -4.664150314247192 3.167924842876404 0  -4.832075157123596 3.335849685752808 0  -5 3.512315926772291 0  -5.171278226473898 3.513834679421695 0  -5.345066393699587 3.517599590549381 0  -5.522234533769812 3.522234533769812 0  -5.517599590549381 3.345066393699587 0  -5.513834679421695 3.171278226473898 0  -5.512315926772291 3 0  -4.305917977217734 3 0  -4.486165320578305 3.171278226473898 0  -4.659590949023722 3.340409050976278 0  -4.828721773526102 3.513834679421695 0  -5 3.694082022782266 0  -5.173807764994748 3.695231059978995 0  -5.349151095281002 3.698302190562003 0  -5.526872638125797 3.702496850834395 0  -5.707106781186702 3.707106781186702 0  -5.702496850834395 3.526872638125796 0  -5.698302190562003 3.349151095281001 0  -5.695231059978995 3.173807764994749 0  -5.694082022782266 3 0  -4.304768940021005 3.173807764994749 0  -4.482400409450619 3.345066393699587 0  -4.654933606300413 3.517599590549381 0  -4.826192235005252 3.695231059978995 0  -4.301697809437997 3.349151095281001 0  -4.477765466230188 3.522234533769812 0  -4.650848904718998 3.698302190562003 0  -4.297503149165605 3.526872638125796 0  -4.473127361874203 3.702496850834395 0  -4.292893218813298 3.707106781186702 0  5 1 0  5 1.1875 0  4.836760252847784 1 0  4.777715803246315 1.196559610919311 0  4.839460463216996 1.347314472439327 0  5 1.375 0  4.673520505695566 1 0  4.632635625466378 1.365213346993499 0  4.556044961094186 1.171744017769988 0  4.510280758543349 1 0  4.794773055276885 1.503974827597894 0  5 1.5625 0  4.509532852384659 1.302052263620541 0  4.410856208148409 1.131488582867765 0  4.347041011391132 1 0  4.456349169075412 1.451051581694457 0  4.607229733549753 1.536976478139674 0  4.689743592565922 1.689749170841861 0  4.856245648493844 1.661305922135441 0  5 1.75 0  4.374259326167071 1.272988741846429 0  4.255464305052109 1.375617786941471
[...]
<CellData  Scalars="f_6194"> 
<DataArray  type="Float64"  Name="f_6194"  format="ascii">2.1463690144578756e-01   2.1434795878241036e-01   2.1434795878242249e-01   2.1468196364127257e-01   2.0995643730375052e-01   2.1412648110103857e-01   2.1292035460752223e-01   2.1217032616766784e-01   2.0995643730375027e-01   2.1292035460752246e-01   2.1412648110102619e-01   2.1217032616768014e-01   2.1424672452733343e-01   2.1484609039159230e-01   2.1424672452732169e-01   2.1480965700146440e-01   2.0710678118654344e-01   2.0987673244871091e-01   2.0987673244871063e-01   2.1333620920772894e-01   2.0809094374500545e-01   2.1367510285512317e-01   2.0866744256603750e-01   2.1103903388720607e-01   2.0809094374501164e-01   2.0866744256603781e-01   2.1367510285513591e-01   2.1103903388721873e-01   2.1279384191789996e-01   2.1489023230997539e-01   2.1279384191788658e-01   2.1480625232011349e-01   2.0596417634428449e-01   2.0241808266230280e-01   2.0565505086472530e-01   2.0349238796443950e-01   1.9963394588627345e-01   1.9946908561418858e-01   2.0035027863826618e-01   1.9952490503584533e-01   2.0397254266267290e-01   2.0510829648584883e-01   1.9944915029221616e-01   1.9997213580797388e-01   2.0052817180385385e-01   1.9937047531453567e-01   2.0217523380381688e-01   2.0115326349882504e-01   2.0596417634429093e-01   2.0565505086471894e-01   2.0241808266230324e-01   2.0349238796443145e-01   2.0397254266266596e-01   1.9944915029221022e-01   2.0510829648584900e-01   1.9997213580797407e-01   1.9963394588627625e-01   2.0035027863826305e-01   1.9946908561418294e-01   1.9952490503584228e-01   2.0217523380381650e-01   1.9937047531454166e-01   2.0052817180385427e-01   2.0115326349882534e-01   2.0596417634428438e-01   2.0565505086472491e-01   2.0241808266230310e-01   2.0349238796440450e-01   2.0397254266267290e-01   1.9944915029220425e-01   2.0510829648583651e-01   1.9997213580798034e-01   1.9963394588629205e-01   2.0035027863827137e-01   1.9946908561418294e-01   1.9952490503583684e-01   2.0217523380382851e-01   1.9937047531453586e-01   2.0052817180384278e-01   2.0115326349883106e-01   2.0596417634429595e-01   2.0241808266230274e-01   2.0565505086471347e-01   2.0349238796442784e-01   1.9963394588629196e-01   1.9946908561418294e-01   2.0035027863826080e-01   1.9952490503583711e-01   2.0397254266265902e-01   2.0510829648586118e-01   1.9944915029222809e-01   1.9997213580798009e-01   2.0052817180385374e-01   1.9937047531452415e-01   2.0217523380381691e-01   2.0115326349883086e-01   2.1463690144578756e-01   2.1434795878242249e-01   2.1434795878242227e-01   2.1468196364126080e-01   2.0995643730376212e-01   2.1412648110101384e-01   2.1292035460751052e-01   2.1217032616768014e-01   2.0995643730372684e-01   2.1292035460754610e-01   2.1412648110106330e-01   2.1217032616765591e-01   2.1424672452732169e-01   2.1484609039158012e-01   2.1424672452735721e-01   2.1480965700145221e-01   2.0710678118652906e-01   2.0987673244872376e-01   2.0987673244872401e-01   2.1333620920775734e-01   2.0809094374499384e-01   2.1367510285512359e-01   2.0866744256602546e-01   2.1103903388721873e-01   2.0809094374501733e-01   2.0866744256602515e-01   2.1367510285512317e-01   2.1103903388721837e-01   2.1279384191791270e-01   2.1489023230997539e-01   2.1279384191788692e-01   2.1480625232013917e-01   2.0596417634430800e-01   2.0241808266230252e-01   2.0565505086473687e-01   2.0349238796445132e-01   1.9963394588627062e-01   1.9946908561418294e-01   2.0035027863827101e-01   1.9952490503583648e-01   2.0397254266265902e-01   2.0510829648583703e-01   1.9944915029219221e-01   1.9997213580796810e-01   2.0052817180384250e-01   1.9937047531452376e-01   2.0217523380381663e-01   2.0115326349885385e-01   2.0596417634428443e-01   2.0565505086473715e-01   2.0241808266230388e-01   2.0349238796442823e-01   2.0397254266268672e-01   1.9944915029221619e-01   2.0510829648583620e-01   1.9997213580796749e-01   1.9963394588629241e-01   2.0035027863824978e-01   1.9946908561418294e-01   1.9952490503585932e-01   2.0217523380381641e-01   1.9937047531454732e-01   2.0052817180384341e-01   2.0115326349883073e-01   2.0596417634428438e-01   2.0565505086473709e-01   2.0241808266230310e-01   2.0349238796442776e-01   2.0397254266268672e-01   1.9944915029221597e-01   2.0510829648586118e-01   1.9997213580796749e-01   1.9963394588629177e-01   2.0035027863827165e-01   1.9946908561418331e-01   1.9952490503585918e-01   2.0217523380381675e-01   1.9937047531454746e-01   2.0052817180384283e-01   2.0115326349883114e-01   2.0596417634430755e-01   2.0241808266230310e-01   2.0565505086473709e-01   2.0349238796442776e-01   1.9963394588626993e-01   1.9946908561420590e-01   2.0035027863824945e-01   1.9952490503585918e-01   2.0397254266265902e-01   2.0510829648583620e-01   1.9944915029223981e-01   1.9997213580796749e-01   2.0052817180386556e-01   1.9937047531454746e-01   2.0217523380384078e-01   2.0115326349878493e-01   2.1463690144575340e-01   2.1434795878241103e-01   2.1434795878241103e-01   2.1468196364124981e-01   2.0995643730372746e-01   2.1412648110101368e-01   2.1292035460747483e-01   2.1217032616775242e-01   2.0995643730372746e-01   2.1292035460757039e-01   2.1412648110101368e-01   2.1217032616765677e-01   2.1424672452731053e-01   2.1484609039145813e-01   2.1424672452731058e-01   2.1480965700150048e-01   2.0710678118658657e-01   2.0987673244867125e-01   2.0987673244867125e-01   2.1333620920781413e-01   2.0809094374501758e-01   2.1367510285512281e-01   2.0866744256597711e-01   2.1103903388719461e-01   2.0809094374501752e-01   2.0866744256607594e-01   2.1367510285512281e-01   2.1103903388719461e-01   2.1279384191796508e-01   2.1489023230997398e-01   2.1279384191786060e-01   2.1480625232008674e-01   2.0596417634430783e-01   2.0241808266230346e-01   2.0565505086473690e-01   2.0349238796440511e-01   1.9963394588624825e-01   1.9946908561404780e-01   2.0035027863831575e-01   1.9952490503585876e-01   2.0397254266260356e-01   2.0510829648588669e-01   1.9944915029228735e-01   1.9997213580796785e-01   2.0052817180388874e-01   1.9937047531461652e-01   2.0217523380381638e-01   2.0115326349880755e-01   2.0596417634430783e-01   2.0565505086464136e-01   2.0241808266239394e-01   2.0349238796440511e-01   2.0397254266260356e-01   1.9944915029228735e-01   2.0510829648578677e-01   1.9997213580786694e-01   1.9963394588624825e-01   2.0035027863822708e-01   1.9946908561413815e-01   1.9952490503585876e-01   2.0217523380381638e-01   1.9937047531461652e-01   2.0052817180388879e-01   2.0115326349890000e-01   2.0596417634421521e-01   2.0565505086473690e-01   2.0241808266230346e-01   2.0349238796440511e-01   2.0397254266260356e-01   1.9944915029219198e-01   2.0510829648588669e-01   1.9997213580806875e-01   1.9963394588633560e-01   2.0035027863831575e-01   1.9946908561413815e-01   1.9952490503585876e-01   2.0217523380372021e-01   1.9937047531452376e-01   2.0052817180388874e-01   2.0115326349880755e-01   2.0596417634440048e-01   2.0241808266230346e-01   2.0565505086464136e-01   2.0349238796440511e-01   1.9963394588624825e-01   1.9946908561422849e-01   2.0035027863813834e-01   1.9952490503585876e-01   2.0397254266271447e-01   2.0510829648588669e-01   1.9944915029219198e-01   1.9997213580796785e-01   2.0052817180388874e-01   1.9937047531452376e-01   2.0217523380372021e-01   2.0115326349890000e-01   2.1463690144575290e-01   2.1434795878245824e-01   2.1434795878236312e-01   2.1468196364134334e-01   2.0995643730377461e-01   2.1412648110111257e-01   2.1292035460752332e-01   2.1217032616765716e-01   2.0995643730377408e-01   2.1292035460752207e-01   2.1412648110106344e-01   2.1217032616765608e-01   2.1424672452735774e-01   2.1484609039160410e-01   2.1424672452730997e-01   2.1480965700145183e-01   2.0710678118658657e-01   2.0987673244877630e-01   2.0987673244872376e-01   2.1333620920775734e-01   2.0809094374501733e-01   2.1367510285512334e-01   2.0866744256602598e-01   2.1103903388719442e-01   2.0809094374497003e-01   2.0866744256602598e-01   2.1367510285512295e-01   2.1103903388719425e-01   2.1279384191791287e-01   2.1489023230997456e-01   2.1279384191791270e-01   2.1480625232008715e-01   2.0596417634430739e-01   2.0241808266234940e-01   2.0565505086473690e-01   2.0349238796440480e-01   1.9963394588629177e-01   1.9946908561418331e-01   2.0035027863827176e-01   1.9952490503585918e-01   2.0397254266265902e-01   2.0510829648583620e-01   1.9944915029219212e-01   1.9997213580791701e-01   2.0052817180384375e-01   1.9937047531452426e-01   2.0217523380386429e-01   2.0115326349880791e-01   2.0596417634426209e-01   2.0565505086473709e-01   2.0241808266230263e-01   2.0349238796445190e-01   2.0397254266271447e-01   1.9944915029219198e-01   2.0510829648588669e-01   1.9997213580796785e-01   1.9963394588629194e-01   2.0035027863827129e-01   1.9946908561418331e-01   1.9952490503581433e-01   2.0217523380381688e-01   1.9937047531457014e-01   2.0052817180384255e-01   2.0115326349880769e-01   2.0596417634426165e-01   2.0565505086473709e-01   2.0241808266234773e-01   2.0349238796440480e-01   2.0397254266260356e-01   1.9944915029223967e-01   2.0510829648583673e-01   1.9997213580796785e-01   1.9963394588620456e-01   2.0035027863822694e-01   1.9946908561418331e-01   1.9952490503581433e-01   2.0217523380386496e-01   1.9937047531452376e-01   2.0052817180384255e-01   2.0115326349880769e-01   2.0596417634430739e-01   2.0241808266234940e-01   2.0565505086473690e-01   2.0349238796445132e-01   1.9963394588633548e-01   1.9946908561418331e-01   2.0035027863822741e-01   1.9952490503585918e-01   2.0397254266265902e-01   2.0510829648583620e-01   1.9944915029223981e-01   1.9997213580796749e-01   2.0052817180388913e-01   1.9937047531447791e-01   2.0217523380381625e-01   2.0115326349880791e-01   2.0568322108026008e-01   2.2101819421897398e-01   2.3665511429342997e-01   2.5474092502557177e-01   2.4137985161918540e-01   1.9746900113478832e-01   2.3533382273130871e-01   2.2304905240722064e-01   2.0434658027948949e-01   2.1471581332217102e-01   2.8791712130277025e-01   2.2483918162944000e-01   2.5753838400739482e-01   2.5920761622665178e-01   2.6302113399883703e-01   1.7433790172059807e-01   2.5065224315881096e-01   2.2345735479954912e-01   1.9828380430453504e-01   2.5473390876030017e-01   2.2221326605805000e-01   1.9866796174179677e-01   2.3757962553624085e-01   2.5048905848421682e-01   2.7042436245190588e-01   2.1585332516104772e-01   2.8176812262294276e-01   2.2545600286500264e-01   2.7578729708319438e-01   2.5201783660501703e-01   2.0834579795377101e-01   2.5141806671962308e-01   2.6014331362048526e-01   2.1487545032065111e-01   2.1495632040058235e-01   2.0756995905882572e-01   2.3847795543461475e-01   2.7163834863697434e-01   2.2006436239012406e-01   2.3461556087754146e-01   2.7765315162311421e-01   2.4547811283059817e-01   2.5777484367137937e-01   2.7144904933755504e-01   2.1768472036069644e-01   2.5605094541472068e-01   2.0377912573272311e-01   2.4886622017850343e-01   2.6922241009752118e-01   2.0400212500487611e-01   2.1389519551247488e-01   2.0814910546546450e-01   2.3631959506220293e-01   2.1232365574705511e-01   2.0075368475327790e-01   2.7446714689658697e-01   2.1928312135418276e-01   2.2895673573948047e-01   2.1432125353228518e-01   2.0841234680927775e-01   2.3484195654190329e-01   2.4070129234548049e-01   2.3256601537001301e-01   2.5139863087051839e-01   2.0862623691769014e-01   2.4306190807461867e-01   2.0862623691770649e-01   2.5054014622127718e-01   2.3295023615811045e-01   2.2332963881675957e-01   2.4488086744487808e-01   2.4363030483281045e-01   2.7899575258285575e-01   2.0725778968202896e-01   2.5649807774462119e-01   2.8515842272562897e-01   2.1292187696847037e-01   2.4579369439915735e-01   2.5879257796026844e-01   2.2972480661153824e-01   2.7251750285617327e-01   2.4259339225350501e-01   2.0662595065506992e-01   2.0662595065508321e-01   2.2371538960516893e-01   2.6318396888942985e-01   2.7418957260856858e-01   2.5241463819658277e-01   2.5980567443151459e-01   2.3089144998109440e-01   1.8998820838326541e-01   2.3219217999158981e-01   2.1246265200267225e-01   1.5509470567685141e-01   2.1300605543788351e-01   2.4657138990696739e-01   2.1524297021291566e-01   2.0641118435445513e-01   2.7721412818246727e-01   2.4645737290509273e-01   2.1213222769093865e-01   1.7039707575547866e-01   2.2009264919579588e-01   1.7590721822051217e-01   2.6740821767275175e-01   2.3563335317537398e-01   2.5692733132499873e-01   1.8838075419487313e-01   2.3959045358177386e-01   2.6296558644576956e-01   2.7960097962330960e-01   2.3180413710145720e-01   1.9698044877144105e-01   2.1591194166824851e-01   2.2594148173261602e-01   2.1263225499597205e-01   2.6016738106113074e-01   2.3544030734971419e-01   2.7600128734690554e-01   2.7417996793812383e-01   2.2193920654218097e-01   1.8615339812918749e-01   2.8576917235682747e-01   2.7344561654717214e-01   2.7438560950178725e-01   2.8507343975145832e-01   2.0263079825678407e-01   1.8540862185456905e-01   2.0224607728001695e-01   2.3436707344800681e-01   2.3373743857842658e-01   2.5473953474824179e-01   1.8809859980276497e-01   2.4800409291022274e-01   2.0895122881558204e-01   2.5297703780500364e-01   2.3443170622435622e-01   2.3228426677674349e-01   2.2169066754268227e-01   1.8756193790472536e-01   2.6986005724124335e-01   2.7847107531037824e-01   2.6725216807866903e-01   2.4376314414333225e-01   1.8696974090612262e-01   2.6356541405505884e-01   2.6032634693725087e-01   1.7896308661104590e-01   1.8033336374933756e-01   2.1080730975462839e-01   2.0558620366782906e-01   2.7390619283933054e-01   2.8052086193123205e-01   2.4573972188748699e-01   2.8820944480807065e-01   2.5138185333871960e-01   2.5822088418582267e-01   2.6071156190528921e-01   2.3442031858507117e-01   2.1406694741049817e-01   2.3150618820517757e-01   2.8557258431910110e-01   2.4253322645682820e-01   2.3747999708358622e-01   2.2170165650114171e-01   1.8358342237872657e-01   2.4552649761012776e-01   1.5896299838446373e-01   2.2893081622212494e-01   2.6568134980605518e-01   2.3919220109042769e-01   1.6472800924065667e-01   1.8541017160960263e-01   2.8095658345227575e-01   2.6065820539959011e-01   2.3073013380493032e-01   2.6782331159206135e-01   1.5516959144740927e-01   2.8771296367356980e-01   2.5122647178345270e-01   2.3162452058497723e-01   2.6867284121756130e-01   2.4421218568372821e-01   1.8696974090612237e-01   1.8748038987868507e-01   1.8672358965289815e-01   2.2913714917692485e-01   2.3587914068615812e-01   2.6034148135842383e-01   2.2253280109850618e-01   2.8124593551135713e-01   2.4863833724496262e-01   2.6862982163558136e-01   2.4503124525659686e-01   2.6111974873280913e-01   2.5698645666158798e-01   2.3441538333869011e-01   2.7572741895009106e-01   1.6405474985590984e-01   2.5587123817350549e-01   2.4670874121863060e-01   2.5283385217427495e-01   1.8441707087383469e-01   1.7835648938693338e-01   2.7390539218886722e-01   2.1584483206555477e-01   2.3639953900871469e-01   1.6595650621620195e-01   1.9828380430469403e-01   2.6863711808001717e-01   2.1678915080355257e-01   2.2523311730360210e-01   2.7755999381608676e-01   2.3328192033655701e-01   1.8748038987868554e-01   2.3969044406066589e-01   2.0898524936601715e-01   2.5720939479577010e-01   2.1773769007513377e-01   2.5548226928031681e-01   2.0451975928250962e-01   2.7211707133142737e-01   1.9898237762832990e-01   2.8427588384047398e-01   2.2559990027943239e-01   1.5651258026319237e-01   2.2556115846696362e-01   2.7736910215124999e-01   2.8258443253843363e-01   2.2711265936254132e-01   2.4167805511961596e-01   2.4260577362920158e-01   1.8426178413940744e-01   2.7055032842666710e-01   2.2024992874218630e-01   2.2295764144568606e-01   2.6951575585676851e-01   2.8100356538981253e-01   2.4996127534684498e-01   2.2329718597066459e-01   2.7856872653010567e-01   2.7130095196121040e-01   2.5063779988241308e-01   1.6735226208702630e-01   2.5494622009518686e-01   2.5274387854808122e-01   2.4915890508461308e-01   2.2884045714244478e-01   2.0147571084612323e-01   2.3441538333868273e-01   2.4847517877449243e-01   2.4980686577865202e-01   2.6590979264449804e-01   2.4157310766196888e-01   2.4509637266296136e-01   2.4114400299803396e-01   2.1808927943043621e-01   2.3081125625800239e-01   1.8921115896545276e-01   2.2386798816464681e-01   2.2691975282360557e-01   2.2212920450865586e-01   2.4424100466314036e-01   2.1153085264175864e-01   2.2471767158466643e-01   2.0794794985163176e-01   1.9094459200359182e-01   2.4241783886089838e-01   2.7709549169265379e-01   1.9468434827724840e-01   2.0501073952871626e-01   2.1482872373588055e-01   1.8758131542820355e-01   2.3764756072895221e-01   1.8371930160478273e-01   2.4435784487133713e-01   2.3321834947494355e-01   2.5072933084217969e-01   2.7295112587796305e-01   2.6267370148304731e-01   2.3981550841590751e-01   2.4074596126018505e-01   2.5298321971901794e-01   2.7604663516690409e-01   2.4648997956105351e-01   2.4001537537167206e-01   2.6714463865398097e-01   2.5137202044571394e-01   2.5151570426715297e-01   2.7978819701670521e-01   2.1350451159466788e-01   1.9485666876144286e-01   2.2356851110498274e-01   2.7194378018244492e-01   2.3056700247229694e-01   1.8247729618166811e-01   2.7549203715107551e-01   2.1361741053110331e-01   1.8443224124820984e-01   2.6082813759432072e-01   2.8535235717186858e-01   2.8182788653825647e-01   2.5822202576114189e-01   2.1065932352401387e-01   2.3163173146848401e-01   1.9795987287742123e-01   2.6753832914387948e-01   2.1885122086088482e-01   2.4400171730713266e-01   2.1317542182368068e-01   2.1812599613259664e-01   2.7540546245296110e-01   2.0400469621351455e-01   2.2834016872275945e-01   2.1587379660847389e-01   2.2896660276770003e-01   2.7270485750445544e-01   2.2548156727185931e-01   2.3086033670576972e-01   2.7795012705071831e-01   2.6666209172820982e-01   1.9366090122636606e-01   2.5902124487003697e-01   2.6350873945097086e-01   2.2982563202248255e-01   2.2476651387628593e-01   2.4846046059656779e-01   2.3712117811761874e-01   2.6324164510713460e-01   2.0437637753055440e-01   2.0394713283715316e-01   2.4203295550326759e-01   2.5834248957463712e-01   2.3665511429339911e-01   1.8300164572511179e-01   2.2149875581718786e-01   2.5831950144753424e-01   2.0624747547921221e-01   2.4911694151571373e-01   1.9219035097640916e-01   2.1911828182822599e-01   2.6309828648713524e-01   2.3289107207724397e-01   2.6388263431995718e-01   2.0607487519491763e-01   2.7105175253873565e-01   2.2903972080640497e-01   2.2580412884618661e-01   2.4248800841192700e-01   2.3204479085023458e-01   2.1424933100254204e-01   2.8740705984998333e-01   2.8160965709174851e-01   2.8477037084065521e-01   2.6426167759228225e-01   2.8347646851950742e-01   2.5986049345916534e-01   1.9427436777827317e-01   1.6297520340574975e-01   2.4509466298597557e-01   1.5100127948270020e-01   2.2700124096550994e-01   2.3788843765766576e-01   2.5750476947968681e-01   2.2501533475620697e-01   2.7780344084995129e-01   2.0001762767613934e-01   1.8509868755168801e-01   2.0067141825531981e-01   2.3949469372562965e-01   2.5447469299048397e-01   2.5145004273087090e-01   2.8478265940981640e-01   2.4402720356799054e-01   2.5810573133935788e-01   2.5191760310393696e-01   1.9508900669360563e-01   2.1289457396359648e-01   2.2721258235389527e-01   2.5919302450875387e-01   2.2929674125220251e-01   2.6557420713064001e-01   2.2291233130214003e-01   2.3188395961864386e-01   2.3298719620822886e-01   2.6553024354305305e-01   1.8761756223533183e-01   2.7249258792697179e-01   2.2151125121431811e-01   2.3969841362787042e-01   2.3833558013937522e-01   2.6427333931988251e-01   1.8572948102487935e-01   2.8099431053843560e-01   2.2296247276936521e-01   2.0071533195903235e-01   1.8783933460874389e-01   2.2908880725404382e-01   2.0653870438850050e-01   2.3019236672445259e-01   2.3427173449031941e-01   1.8704749512447555e-01   2.7322486045046268e-01   2.5696747838384665e-01   2.5859044523799302e-01   2.2559990027943247e-01   1.8571667944936110e-01   2.7480275317333136e-01   2.7639567212571575e-01   2.5652351723932287e-01   1.8359250462499269e-01   1.8559174185203217e-01   2.3504861293