<?xml version="1.0"?>
<VTKFile type="UnstructuredGrid"  version="0.1"  >
<UnstructuredGrid>
<Piece  NumberOfPoints="1075" NumberOfCells="1839">
<Points>
<DataArray  type="Float64"  NumberOfComponents="3"  format="ascii">3 0.504901692839906 0  2.870592087154655 0.4823683486186197 0  3 0.801932550640429 0  2.712819609700631 0.425639219401261 0  2.923581848878968 0.7707455466369024 0  3 0.969048513443635 0  2.517702506464375 0.3569366752858338 0  2.793348253300635 0.6900223799509527 0  2.976138185262463 0.9522763705249254 0  3 0.9990234747496692 0  2.292893218813733 0.2928932188137324 0  2.596341378041969 0.5963413780419684 0  2.889665833804265 0.8896658338042651 0  2.996096130844971 0.996096130844971 0  3 1 0  2.356936675285834 0.5177025064643754 0  2.690022379950953 0.7933482533006351 0  2.952276370524925 0.9761381852624627 0  2.999023474749669 1 0  3 1.000976525250331 0  3.003903869155029 1.003903869155029 0  3.000976525250331 1 0  2.425639219401261 0.7128196097006305 0  2.770745546636902 0.9235818488789674 0  2.969048513443635 1 0  2.996096130844971 1.003903869155029 0  3 1.030951486556365 0  3.023861814737537 1.047723629475075 0  3.110334166195735 1.110334166195735 0  3.047723629475075 1.023861814737537 0  3.030951486556365 1 0  2.482368348618619 0.8705920871546549 0  2.801932550640429 1 0  2.952276370524925 1.023861814737537 0  2.976138185262463 1.047723629475075 0  3 1.198067449359571 0  3.076418151121032 1.229254453363098 0  3.206651746699365 1.309977620049047 0  3.403658621958031 1.403658621958032 0  3.309977620049047 1.206651746699365 0  3.229254453363098 1.076418151121032 0  3.198067449359571 1 0  2.504901692839906 1 0  2.770745546636902 1.076418151121032 0  2.889665833804265 1.110334166195735 0  2.923581848878968 1.229254453363098 0  3 1.495098307160094 0  3.129407912845345 1.517631651381381 0  3.287180390299369 1.574360780598739 0  3.482297493535625 1.643063324714166 0  3.707106781186268 1.707106781186268 0  3.643063324714166 1.482297493535625 0  3.574360780598739 1.287180390299369 0  3.517631651381381 1.129407912845345 0  3.495098307160094 1 0  2.482368348618619 1.129407912845345 0  2.690022379950953 1.206651746699365 0  2.793348253300635 1.309977620049047 0  2.870592087154655 1.517631651381381 0  2.425639219401261 1.287180390299369 0  2.596341378041969 1.403658621958032 0  2.712819609700631 1.574360780598739 0  2.356936675285834 1.482297493535625 0  2.517702506464375 1.643063324714166 0  2.292893218813732 1.707106781186268 0  2 4.495098307160094 0  1.870592087154655 4.517631651381381 0  2 4.198067449359571 0  1.712819609700631 4.574360780598739 0  1.923581848878968 4.229254453363097 0  2 4.030951486556365 0  1.517702506464375 4.643063324714166 0  1.793348253300635 4.309977620049048 0  1.976138185262463 4.047723629475074 0  2 4.000976525250331 0  1.292893218813733 4.707106781186267 0  1.596341378041968 4.403658621958032 0  1.889665833804265 4.110334166195734 0  1.996096130844971 4.003903869155029 0  2 4 0  1.356936675285834 4.482297493535625 0  1.690022379950953 4.206651746699364 0  1.952276370524925 4.023861814737537 0  1.999023474749669 4 0  2 3.999023474749669 0  2.003903869155029 3.996096130844971 0  2.000976525250331 4 0  1.425639219401261 4.28718039029937 0  1.770745546636902 4.076418151121032 0  1.969048513443635 4 0  1.996096130844971 3.996096130844971 0  2 3.969048513443635 0  2.023861814737537 3.952276370524925 0  2.110334166195735 3.889665833804265 0  2.047723629475075 3.976138185262463 0  2.030951486556365 4 0  1.482368348618619 4.129407912845346 0  1.801932550640429 4 0  1.952276370524925 3.976138185262463 0  1.976138185262463 3.952276370524925 0  2 3.801932550640429 0  2.076418151121032 3.770745546636902 0  2.206651746699365 3.690022379950953 0  2.403658621958031 3.596341378041969 0  2.309977620049047 3.793348253300635 0  2.229254453363098 3.923581848878968 0  2.198067449359571 4 0  1.504901692839906 4 0  1.770745546636902 3.923581848878968 0  1.889665833804265 3.889665833804265 0  1.923581848878968 3.770745546636902 0  2 3.504901692839906 0  2.129407912845345 3.482368348618619 0  2.287180390299369 3.425639219401261 0  2.482297493535625 3.356936675285834 0  2.707106781186268 3.292893218813732 0  2.643063324714166 3.517702506464375 0  2.574360780598739 3.712819609700631 0  2.517631651381381 3.870592087154655 0  2.495098307160094 4 0  1.482368348618619 3.870592087154655 0  1.690022379950953 3.793348253300635 0  1.793348253300635 3.690022379950953 0  1.870592087154655 3.482368348618619 0  1.425639219401261 3.712819609700631 0  1.596341378041968 3.596341378041969 0  1.712819609700631 3.425639219401261 0  1.356936675285834 3.517702506464375 0  1.517702506464375 3.356936675285834 0  1.292893218813732 3.292893218813732 0  -6 5.495098307160094 0  -5.870592087154655 5.517631651381381 0  -6 5.198067449359571 0  -5.712819609700631 5.574360780598739 0  -5.923581848878968 5.229254453363097 0  -6 5.030951486556365 0  -5.517702506464375 5.643063324714166 0  -5.793348253300636 5.309977620049048 0  -5.976138185262463 5.047723629475074 0  -6 5.000976525250331 0  -5.292893218813733 5.707106781186267 0  -5.596341378041968 5.403658621958032 0  -5.889665833804266 5.110334166195734 0  -5.996096130844971 5.003903869155029 0  -6 5 0  -5.356936675285834 5.482297493535625 0  -5.690022379950952 5.206651746699364 0  -5.952276370524926 5.023861814737537 0  -5.999023474749669 5 0  -6 4.999023474749669 0  -6.003903869155029 4.996096130844971 0  -6.000976525250331 5 0  -5.425639219401261 5.28718039029937 0  -5.770745546636903 5.076418151121032 0  -5.969048513443635 5 0  -5.996096130844971 4.996096130844971 0  -6 4.969048513443635 0  -6.023861814737537 4.952276370524926 0  -6.110334166195734 4.889665833804266 0  -6.047723629475074 4.976138185262463 0  -6.030951486556365 5 0  -5.482368348618619 5.129407912845346 0  -5.801932550640429 5 0  -5.952276370524926 4.976138185262463 0  -5.976138185262463 4.952276370524926 0  -6 4.801932550640429 0  -6.076418151121032 4.770745546636903 0  -6.206651746699364 4.690022379950952 0  -6.403658621958032 4.596341378041968 0  -6.309977620049048 4.793348253300636 0  -6.229254453363097 4.923581848878968 0  -6.198067449359571 5 0  -5.504901692839906 5 0  -5.770745546636903 4.923581848878968 0  -5.889665833804266 4.889665833804266 0  -5.923581848878968 4.770745546636903 0  -6 4.504901692839906 0  -6.129407912845346 4.482368348618619 0  -6.28718039029937 4.425639219401261 0  -6.482297493535625 4.356936675285834 0  -6.707106781186267 4.292893218813733 0  -6.643063324714166 4.517702506464375 0  -6.574360780598739 4.71281960970063 0  -6.517631651381381 4.870592087154654 0  -6.495098307160094 5 0  -5.482368348618619 4.870592087154654 0  -5.690022379950952 4.793348253300636 0  -5.793348253300636 4.690022379950952 0  -5.870592087154654 4.482368348618619 0  -5.425639219401261 4.71281960970063 0  -5.596341378041968 4.596341378041968 0  -5.71281960970063 4.425639219401261 0  -5.356936675285834 4.517702506464375 0  -5.517702506464375 4.356936675285834 0  -5.292893218813733 4.292893218813733 0  -5 2.504901692839906 0  -4.870592087154655 2.482368348618619 0  -5 2.801932550640429 0  -4.712819609700631 2.425639219401261 0  -4.923581848878968 2.770745546636902 0  -5 2.969048513443635 0  -4.517702506464375 2.356936675285834 0  -4.793348253300636 2.690022379950953 0  -4.976138185262463 2.952276370524925 0  -5 2.999023474749669 0  -4.292893218813733 2.292893218813732 0  -4.596341378041968 2.596341378041969 0  -4.889665833804266 2.889665833804265 0  -4.996096130844971 2.996096130844971 0  -5 3 0  -4.356936675285834 2.517702506464375 0  -4.690022379950952 2.793348253300635 0  -4.952276370524926 2.976138185262463 0  -4.999023474749669 3 0  -5 3.000976525250331 0  -5.003903869155029 3.003903869155029 0  -5.000976525250331 3 0  -4.425639219401261 2.712819609700631 0  -4.770745546636903 2.923581848878968 0  -4.969048513443635 3 0  -4.996096130844971 3.003903869155029 0  -5 3.030951486556365 0  -5.023861814737537 3.047723629475075 0  -5.110334166195734 3.110334166195735 0  -5.047723629475074 3.023861814737537 0  -5.030951486556365 3 0  -4.482368348618619 2.870592087154655 0  -4.801932550640429 3 0  -4.952276370524926 3.023861814737537 0  -4.976138185262463 3.047723629475075 0  -5 3.198067449359571 0  -5.076418151121032 3.229254453363098 0  -5.206651746699364 3.309977620049047 0  -5.403658621958032 3.403658621958031 0  -5.309977620049048 3.206651746699365 0  -5.229254453363097 3.076418151121032 0  -5.198067449359571 3 0  -4.504901692839906 3 0  -4.770745546636903 3.076418151121032 0  -4.889665833804266 3.110334166195735 0  -4.923581848878968 3.229254453363098 0  -5 3.495098307160094 0  -5.129407912845346 3.517631651381381 0  -5.28718039029937 3.574360780598739 0  -5.482297493535625 3.643063324714166 0  -5.707106781186267 3.707106781186268 0  -5.643063324714166 3.482297493535625 0  -5.574360780598739 3.287180390299369 0  -5.517631651381381 3.129407912845345 0  -5.495098307160094 3 0  -4.482368348618619 3.129407912845345 0  -4.690022379950952 3.206651746699365 0  -4.793348253300636 3.309977620049047 0  -4.870592087154654 3.517631651381381 0  -4.425639219401261 3.287180390299369 0  -4.596341378041968 3.403658621958031 0  -4.71281960970063 3.574360780598739 0  -4.356936675285834 3.482297493535625 0  -4.517702506464375 3.643063324714166 0  -4.292893218813733 3.707106781186268 0  5 1 0  4.83038291558927 1.060287186691953 0  5 1.1875 0  4.660765831178542 1.120574373383906 0  4.752051342018341 1.352229284786525 0  5 1.375 0  4.491148746767813 1.180861560075859 0  4.4322882905522 1.432262198034769 0  4.613242116355901 1.55893932648076 0  5 1.5625 0  4.321531662357083 1.241148746767812 0  4.219575161945451 1.491797959243029 0  4.23268619585246 1.762072368835434 0  4.493304945754296 1.792284526517738 0  4.746989430303032 1.775180020690435 0  5 1.75 0  3.982297493535625 1.361723120151718 0  3.966678612559707 1.765358815105942 0  4.001984264978835 2.029033512423678 0  4.337442301453079 2.02507858124129 0  4.620523510659621 2.0217
[...]
<CellData  Scalars="f_7775"> 
<DataArray  type="Float64"  Name="f_7775"  format="ascii">2.8589834143359566e-01   2.4632838029946075e-01   2.4632838029946119e-01   2.7744761079470098e-01   1.7571306460538683e-01   1.6491975966819072e-01   2.0192123372018106e-01   1.6991506999675063e-01   1.7571306460539532e-01   2.0192123372018106e-01   1.6491975966820685e-01   1.6991506999675951e-01   2.2984546922239449e-01   2.3404644313683307e-01   2.2984546922241297e-01   2.3640329655386794e-01   2.0710678105661981e-01   6.2780977292156204e-02   6.2780977293110135e-02   1.2272129200228445e-01   1.1645963131152616e-01   1.5652923609364902e-01   6.8468440464774238e-02   1.5275733242471062e-01   1.1645963131153517e-01   6.8468440464804547e-02   1.5652923609364883e-01   1.5275733242468820e-01   1.4108314537902658e-01   1.3476098400412342e-01   1.4108314537902608e-01   2.4303504584674859e-01   1.4419901978163088e-01   1.2144642430823617e-01   1.3002197183919284e-01   8.2059527098231305e-02   1.2425472039900499e-01   8.5489823287998395e-02   1.1633897530414103e-01   1.0199494545335769e-01   6.0693660470059370e-02   1.2208407244829657e-01   5.5243812249904940e-02   2.0340095589792481e-02   8.2823051856911606e-02   5.4220201828398935e-02   3.7696483561840730e-02   9.1684526332346805e-02   1.4419901978163116e-01   1.3002197183918418e-01   1.2144642430823605e-01   8.2059527098231430e-02   6.0693660498340601e-02   5.5243812249904933e-02   1.2208407244890343e-01   2.0340095589471804e-02   1.2425472039900508e-01   1.1633897530414104e-01   8.5489823287995884e-02   1.0199494545335777e-01   3.7696483561840854e-02   5.4220201828394536e-02   8.2823051856914132e-02   9.1684526332350830e-02   1.4419901978163424e-01   1.3002197183919337e-01   1.2144642430823348e-01   8.2059527098224130e-02   6.0693660470059370e-02   5.5243812249904919e-02   1.2208407244860023e-01   2.0340095589151039e-02   1.2425472039900372e-01   1.1633897530414550e-01   8.5489823288000907e-02   1.0199494545336001e-01   3.7696483561840896e-02   5.4220201828386036e-02   8.2823051856916755e-02   9.1684526332346764e-02   1.4419901978162752e-01   1.2144642430823362e-01   1.3002197183919287e-01   8.2059527098231291e-02   1.2425472039900366e-01   8.5489823288000907e-02   1.1633897530414551e-01   1.0199494545335087e-01   6.0693660498340379e-02   1.2208407244890297e-01   5.5243812249866298e-02   2.0340095589471720e-02   8.2823051856911578e-02   5.4220201828403224e-02   3.7696483561860138e-02   9.1684526332355187e-02   2.8589834143361759e-01   2.4632838029947177e-01   2.4632838029949253e-01   2.7744761079470104e-01   1.7571306460537806e-01   1.6491975966822292e-01   2.0192123372017140e-01   1.6991506999675043e-01   1.7571306460537819e-01   2.0192123372017140e-01   1.6491975966822289e-01   1.6991506999675063e-01   2.2984546922241297e-01   2.3404644313684664e-01   2.2984546922241283e-01   2.3640329655388193e-01   2.0710678182821154e-01   6.2780977292157120e-02   6.2780977292156204e-02   1.2272129187156844e-01   1.1645963131154426e-01   1.5652923609364883e-01   6.8468440464835037e-02   1.5275733242468820e-01   1.1645963131154438e-01   6.8468440464774238e-02   1.5652923609360420e-01   1.5275733242464407e-01   1.4108314537867356e-01   1.3476098400405614e-01   1.4108314537937910e-01   2.4303504584674859e-01   1.4419901978163405e-01   1.2144642430822322e-01   1.3002197183919337e-01   8.2059527098224061e-02   1.2425472039900412e-01   8.5489823288000644e-02   1.1633897530413644e-01   1.0199494545335984e-01   6.0693660441778367e-02   1.2208407244829703e-01   5.5243812249905148e-02   2.0340095589471797e-02   8.2823051856911425e-02   5.4220201828386126e-02   3.7696483561860297e-02   9.1684526332355312e-02   1.4419901978160757e-01   1.3002197183915715e-01   1.2144642430823337e-01   8.2059527098238411e-02   6.0693660498340379e-02   5.5243812249827891e-02   1.2208407244829819e-01   2.0340095589472019e-02   1.2425472039900409e-01   1.1633897530413673e-01   8.5489823287990610e-02   1.0199494545336013e-01   3.7696483561821467e-02   5.4220201828402981e-02   8.2823051856911439e-02   9.1684526332354827e-02   1.4419901978162086e-01   1.3002197183919290e-01   1.2144642430824376e-01   8.2059527098224130e-02   6.0693660498340379e-02   5.5243812249904919e-02   1.2208407244890353e-01   2.0340095590754836e-02   1.2425472039901264e-01   1.1633897530413645e-01   8.5489823288010997e-02   1.0199494545335082e-01   3.7696483561860158e-02   5.4220201828386036e-02   8.2823051856911578e-02   9.1684526332355118e-02   1.4419901978162086e-01   1.2144642430823362e-01   1.3002197183919287e-01   8.2059527098252746e-02   1.2425472039899456e-01   8.5489823287990957e-02   1.1633897530413645e-01   1.0199494545335991e-01   6.0693660498340379e-02   1.2208407244890353e-01   5.5243812249827634e-02   2.0340095590113315e-02   8.2823051856890498e-02   5.4220201828368890e-02   3.7696483561821342e-02   9.1684526332371924e-02   2.8589834143355347e-01   2.4632838029945095e-01   2.4632838029953569e-01   2.7744761079474017e-01   1.7571306460542940e-01   1.6491975966831848e-01   2.0192123372021048e-01   1.6991506999671407e-01   1.7571306460536029e-01   2.0192123372021048e-01   1.6491975966818989e-01   1.6991506999678666e-01   2.2984546922239468e-01   2.3404644313684470e-01   2.2984546922239474e-01   2.3640329655388026e-01   2.0710677951343631e-01   6.2780977290251061e-02   6.2780977297875268e-02   1.2272129200228445e-01   1.1645963131152598e-01   1.5652923609364888e-01   6.8468440464896058e-02   1.5275733242464368e-01   1.1645963131159889e-01   6.8468440464652058e-02   1.5652923609364885e-01   1.5275733242464368e-01   1.4108314537867622e-01   1.3476098400405712e-01   1.4108314537867622e-01   2.4303504584732100e-01   1.4419901978159405e-01   1.2144642430823327e-01   1.3002197183919334e-01   8.2059527098181151e-02   1.2425472039900429e-01   8.5489823287980396e-02   1.1633897530412758e-01   1.0199494545335991e-01   6.0693660554902384e-02   1.2208407244890515e-01   5.5243812249905405e-02   2.0340095590755138e-02   8.2823051856911398e-02   5.4220201828403022e-02   3.7696483561860290e-02   9.1684526332338132e-02   1.4419901978154115e-01   1.3002197183919331e-01   1.2144642430827410e-01   8.2059527098238508e-02   6.0693660554902384e-02   5.5243812249905405e-02   1.2208407244890515e-01   2.0340095590755138e-02   1.2425472039900429e-01   1.1633897530412750e-01   8.5489823287980396e-02   1.0199494545335991e-01   3.7696483561860297e-02   5.4220201828471613e-02   8.2823051856911550e-02   9.1684526332270963e-02   1.4419901978159405e-01   1.3002197183904865e-01   1.2144642430823327e-01   8.2059527098238355e-02   6.0693660554902384e-02   5.5243812250214526e-02   1.2208407244647954e-01   2.0340095590755138e-02   1.2425472039900429e-01   1.1633897530416348e-01   8.5489823288020475e-02   1.0199494545335991e-01   3.7696483562015562e-02   5.4220201828403022e-02   8.2823051856953545e-02   9.1684526332338132e-02   1.4419901978159405e-01   1.2144642430823327e-01   1.3002197183919334e-01   8.2059527098238355e-02   1.2425472039896808e-01   8.5489823287980396e-02   1.1633897530416348e-01   1.0199494545335991e-01   6.0693660328654350e-02   1.2208407244890515e-01   5.5243812249905405e-02   2.0340095588189059e-02   8.2823051856911398e-02   5.4220201828334431e-02   3.7696483561860297e-02   9.1684526332405300e-02   2.8589834143359644e-01   2.4632838029945062e-01   2.4632838029945026e-01   2.7744761079470104e-01   1.7571306460539499e-01   1.6491975966818970e-01   2.0192123372021062e-01   1.6991506999675024e-01   1.7571306460539532e-01   2.0192123372017129e-01   1.6491975966819089e-01   1.6991506999671446e-01   2.2984546922239527e-01   2.3404644313679088e-01   2.2984546922239410e-01   2.3640329655388084e-01   2.0710678105661981e-01   6.2780977294063164e-02   6.2780977290251061e-02   1.2272129200228445e-01   1.1645963131152604e-01   1.5652923609355923e-01   6.8468440464896085e-02   1.5275733242482123e-01   1.1645963131156242e-01   6.8468440464896058e-02   1.5652923609364866e-01   1.5275733242464368e-01   1.4108314538008432e-01   1.3476098400405631e-01   1.4108314538008640e-01   2.4303504584618288e-01   1.4419901978162086e-01   1.2144642430823337e-01   1.3002197183919334e-01   8.2059527098238411e-02   1.2425472039900395e-01   8.5489823288000699e-02   1.1633897530414561e-01   1.0199494545336009e-01   6.0693660441778367e-02   1.2208407244769234e-01   5.5243812249750592e-02   2.0340095590755138e-02   8.2823051856911439e-02   5.4220201828368612e-02   3.7696483561782665e-02   9.1684526332371535e-02   1.4419901978164784e-01   1.3002197183919287e-01   1.2144642430821342e-01   8.2059527098238522e-02   6.0693660441778367e-02   5.5243812250059712e-02   1.2208407244890353e-01   2.0340095590754836e-02   1.2425472039900395e-01   1.1633897530414525e-01   8.5489823288000713e-02   1.0199494545335976e-01   3.7696483561782519e-02   5.4220201828403272e-02   8.2823051856911675e-02   9.1684526332338492e-02   1.4419901978159405e-01   1.3002197183919290e-01   1.2144642430823352e-01   8.2059527098238369e-02   6.0693660554902384e-02   5.5243812249750585e-02   1.2208407244890353e-01   2.0340095589471797e-02   1.2425472039902204e-01   1.1633897530414533e-01   8.5489823288000699e-02   1.0199494545335976e-01   3.7696483561860158e-02   5.4220201828403272e-02   8.2823051856911509e-02   9.1684526332372077e-02   1.4419901978162086e-01   1.2144642430825368e-01   1.3002197183919334e-01   8.2059527098238411e-02   1.2425472039900395e-01   8.5489823288020739e-02   1.1633897530414561e-01   1.0199494545334187e-01   6.0693660554902384e-02   1.2208407244890515e-01   5.5243812250059726e-02   2.0340095589472099e-02   8.2823051856911439e-02   5.4220201828402918e-02   3.7696483561782665e-02   9.1684526332337951e-02   2.7404909151053192e-01   2.4168791610871374e-01   2.7744124157084005e-01   2.8829060867311518e-01   2.5944464172545811e-01   2.4547427933353724e-01   1.7380651170772463e-01   1.9108995291958963e-01   2.5329540369942438e-01   2.3133093317445372e-01   2.4156304127128503e-01   2.5421156001014467e-01   2.2187651763401095e-01   1.8919951517858047e-01   2.5335029993042035e-01   2.3288968827585838e-01   1.8259911752514132e-01   2.3612859955411639e-01   2.2408683503822097e-01   2.3985792795437894e-01   2.8284899325387730e-01   2.7281642301277709e-01   2.5123284146871955e-01   2.7015729365854307e-01   2.3508513247277538e-01   2.0992830365766466e-01   2.0992830365766466e-01   2.0992830365767676e-01   2.5295400926200656e-01   2.1653126464540029e-01   1.9700589646402819e-01   2.4162211939334854e-01   2.1409628074571807e-01   1.9625242894508502e-01   2.0803201021907586e-01   2.8214383513041114e-01   2.6467316033821192e-01   2.5979329323276307e-01   2.3560517961244049e-01   2.7850368365411149e-01   1.9179460462614009e-01   2.3611050128145564e-01   2.6153904436761932e-01   2.5548864309178015e-01   2.4604455766672817e-01   2.5451757993041496e-01   1.7761910827607305e-01   2.5944464172545850e-01   2.3854927628091710e-01   2.0174277680505101e-01   2.1544051789895374e-01   2.0910319005205724e-01   2.8075200733867800e-01   2.4642902164742217e-01   2.5549291272779279e-01   2.2855333733112845e-01   2.6684920900970105e-01   2.7146110522781391e-01   2.7016251499603677e-01   2.3751623748851461e-01   2.1059543300516648e-01   2.7298887527426030e-01   1.9800576626694633e-01   2.5198557442000186e-01   2.4318469358861472e-01   2.4730086211426908e-01   2.1397961245207217e-01   2.4652824814420035e-01   2.6202170608199193e-01   2.0562073228090505e-01   2.3433867372160017e-01   2.4838116337976626e-01   2.3688158336812137e-01   2.3266069096623548e-01   2.2824112478548045e-01   2.1686196528250370e-01   2.4163394275270961e-01   2.2950821315939746e-01   2.2582226017707102e-01   2.4530658771999939e-01   1.6689493145836964e-01   2.6498719444705027e-01   2.5371177019897329e-01   2.5246957454159441e-01   2.1085509283787462e-01   2.5987245725974817e-01   2.5686237925118172e-01   1.5769933395220420e-01   2.5051496729401568e-01   2.5789376014404530e-01   2.4202087998952015e-01   2.5960861864916362e-01   2.3529849779101644e-01   2.6743141536598658e-01   2.4193796162154557e-01   2.7454964459102832e-01   1.8576616924322900e-01   2.4100241275912621e-01   2.5395463625533099e-01   2.4820939930572647e-01   2.1238913220831215e-01   2.8254079875716015e-01   2.2417524054068122e-01   2.1904942284230766e-01   1.6193338721918923e-01   1.9179460462613124e-01   2.0609743802247885e-01   2.4924796079863296e-01   2.4149409622021970e-01   1.9352187579728952e-01   2.6268727390893909e-01   2.6475977631507519e-01   2.7756728605859360e-01   2.0478989219588301e-01   2.4000801048505957e-01   2.5679505179114109e-01   2.3788685967226084e-01   2.0608799517722612e-01   2.5914473654485704e-01   2.7743059320972074e-01   1.9839218847424597e-01   2.4771843870801122e-01   2.3881362900961603e-01   2.3024430851416755e-01   2.3948898740457222e-01   2.1014741448292421e-01   2.6655714409263770e-01   2.7880654884328632e-01   2.5562591102172838e-01   2.2855333733112837e-01   2.6321181650864645e-01   2.6498719444705010e-01   2.7959821920753763e-01   1.7635074421218919e-01   2.6796540128363938e-01   2.3946125247828615e-01   2.3051264726025442e-01   2.5477677294863399e-01   2.3743493525704024e-01   2.3394666219957957e-01   2.6566765754885230e-01   2.1859506503163723e-01   1.9753676817341623e-01   2.5550940964778579e-01   2.6371424334428101e-01   2.3788786158407074e-01   2.7611472167542050e-01   2.0281629401892440e-01   2.5011528974961378e-01   2.2322956616776377e-01   2.6802171753267173e-01   2.2485850426304843e-01   2.7370674158620134e-01   2.7241290930793421e-01   2.0937011693194660e-01   2.1661811297384212e-01   2.3925952687450988e-01   1.9686624588023549e-01   2.7330957394032274e-01   2.5865977769782733e-01   2.3169631016404182e-01   2.6120044664569869e-01   2.1153874426136277e-01   2.2509458376199509e-01   2.2489612896245231e-01   2.5213136905084982e-01   2.4222333616440866e-01   2.0076247592670168e-01   1.8968436011821735e-01   1.7239416941386837e-01   2.4101183749038538e-01   2.3661845516194605e-01   2.1286272231472422e-01   2.2857894007075300e-01   1.5422558376483048e-01   2.0994957562013486e-01   2.3426272136528994e-01   1.7063333107138640e-01   2.2040710985028009e-01   2.3559962608162610e-01   2.4506639620278101e-01   2.4281725589851141e-01   2.6721416153677685e-01   2.2570117157695391e-01   2.2920159175612634e-01   2.4579383483606976e-01   2.4831049649004111e-01   2.7775239899233356e-01   2.5293832232295677e-01   1.7235763455712869e-01   2.7355440315695367e-01   2.5485857834976372e-01   2.3078796011045932e-01   2.5755713385542411e-01   2.1322342901099953e-01   2.0367131694858281e-01   2.5225531297888748e-01   2.1712744384457033e-01   2.4257707977837592e-01   2.4399635212665977e-01   2.3261400247498981e-01   2.0234897776042279e-01   2.3877039067105416e-01   2.3087675250211875e-01   2.0506975241980288e-01   2.0182292749998645e-01   2.0899762430450233e-01   2.4997957749199956e-01   2.2693991678725661e-01   2.3237704771343098e-01   2.6396312189257271e-01   2.4803927573059864e-01   2.3469886144042812e-01   2.0910319005203273e-01   2.6207319416373448e-01   2.8734984764581073e-01   2.6028416357301626e-01   2.4708770679074255e-01   2.0182292749998626e-01   2.6613964130653572e-01   2.4133390751243436e-01   2.3014886724408365e-01   1.8745098703099375e-01   2.2785558633053440e-01   2.5841254666504615e-01   2.7253934597006191e-01   2.6113944191472371e-01   2.6083380702962100e-01   2.3791596420341335e-01   2.8426832154001674e-01   2.3646418229450855e-01   1.8842564248786209e-01   2.0533518753607027e-01   2.1507349785880120e-01   2.7835105392130310e-01   2.8802299197895648e-01   2.1894194455365124e-01   2.3573556998737491e-01   2.7803984949807725e-01   2.6028416357304490e-01   2.6684920900970283e-01   2.1615887523300950e-01   2.7610822971844590e-01   2.2959253276794650e-01   2.8689868153315928e-01   2.4648444439123102e-01   2.1771935896242028e-01   2.0268064899678861e-01   2.3213294023254627e-01   2.4601141838923168e-01   2.3172361882392153e-01   2.4683953562212560e-01   2.7197994975732959e-01   2.3549782526530114e-01   1.5272899715779370e-01   2.7149036636915064e-01   2.6278194765525381e-01   2.3158807003698406e-01   2.5081706213081012e-01   2.8241759720078125e-01   2.6965037509585271e-01   2.5660812949501532e-01   2.7455192870291562e-01   2.6807386459363153e-01   1.6994058124205963e-01   2.2447554257291863e-01   2.5759943256539020e-01   2.5338181329284998e-01   2.2196724926043893e-01   2.0582312870127353e-01   2.6609887332336585e-01   2.7814362258085656e-01   2.5289211107488130e-01   2.5937607424271386e-01   2.3950158440579805e-01   2.4366372491823754e-01   2.4593100933694911e-01   2.0259165217160854e-01   2.7016251499603683e-01   2.0229649712802344e-01   2.0040248370400207e-01   2.6597673447200115e-01   2.3018726890355989e-01   2.7455634340162860e-01   2.3435316000594611e-01   2.6900066222188013e-01   2.7278360865056955e-01   2.7498839905658734e-01   2.6014311207186380e-01   2.6154205397971153e-01   2.4998536830310134e-01   2.1078797408448427e-01   1.9218902077980340e-01   2.6597673447200115e-01   2.0894604719047413e-01   2.6083273626970915e-01   2.8019377893005787e-01   1.7674295232684503e-01   2.2482971770850882e-01   2.2186549707190234e-01   2.4766604217340693e-01   2.4510056887830420e-01   2.7101708677239322e-01   2.6943537033620213e-01   2.4146820921637022e-01   2.1387849641972773e-01   2.1981167845047062e-01   2.2247840313548925e-01   2.5988961805073157e-01   2.3037077359299282e-01   2.5741422408292630e-01   1.8555595653200141e-01   1.7465530564202716e-01   1.8584750323963192e-01   2.3924421663127846e-01   2.7573600210691135e-01   2.5489841365772420e-01   2.4211570705349086e-01   1.4535797932027358e-01   2.0391690336948948e-01   2.2908838097288539e-01   2.3412408658196379e-01   2.1151656171542596e-01   2.6414536443367603e-01   2.6776145204852086e-01   2.1876850506500289e-01   2.2595629511982129e-01   2.7065256421548889e-01   2.4895713521463725e-01   2.4686694781577997e-01   2.4061115975049099e-01   2.4125365986607139e-01   2.0299983178704545e-01   2.5445606441001428e-01   2.4407656733610575e-01   1.9594646687260434e-01   2.6051018043211349e-01   2.4379448156229949e-01   1.8714924597575164e-01   2.5595346748589881e-01   2.3106078894410345e-01   1.9850615469359204e-01   2.3014886724408923e-01   2.3318668516809313e-01   2.5034589079423986e-01   2.1678112238585159e-01   2.4318469358861214e-01   2.5142829860857979e-01   2.7790130316944878e-01   2.0292684394194022e-01   2.5340203510410969e-01   2.1602211950275910e-01   2.0084662613449358e-01   2.0815722037244669e-01   2.2861118011445977e-01   2.1787972554298213e-01   2.0894604719047408e-01   2.0122305748252869e-01   2.1592582359396867e-01   2.4703589509922891e-01   2.3023038272380739e-01   2.7794858090892149e-01   2.2102834186185849e-01   2.2672388969504065e-01   2.6100001868810901e-01   2.4289766442454228e-01   2.4182911250564204e-01   1.9984713029688519e-01   1.9915059367245064e-01   1.8873449155650759e-01   2.6055878062399634e-01   2.5399671523799267e-01   2.1420263678101681e-01   2.6923376950874395e-01   2.4974409674295628e-01   2.2687863522681179e-01   2.1305539087887634e-01   2.1076606265526845e-01   2.0426863185040819e-01   2.1545773201562535e-01   2.3931558591917226e-01   2.3931558591917232e-01   2.5930949311048040e-01   2.3140858489637700e-01   2.5116708723561443e-01   2.5416193841326762e-01   2.3416110898471137e-01   2.1424517475013494e-01   2.5571489426903110e-01   2.6380976872455708e-01   2.4303346477967186e-01   2.5213136905082845e-01   2.6655124936540703e-01   1.9685399485946811e-01   2.2954367961133304e-01   2.1233597050431888e-01   1.6611001741931930e-01   2.7744124157084760e-01   2.2465828139618818e-01   2.3571605968201662e-01   2.1766814372660520e-01   1.9194022998750543e-01   2.1341763191408467e-01   2.1274491218600228e-01   1.6675495067228585e-01   1.9570921613459771e-01   2.5312543317192876e-01   2.3206516528181004e-01   2.8164146869140838e-01   2.3882626029468332e-01   2.5364439108812908e-01   2.5762730819149859e-01   2.4984078429