<?xml version="1.0"?>
<VTKFile type="UnstructuredGrid"  version="0.1"  >
<UnstructuredGrid>
<Piece  NumberOfPoints="4638" NumberOfCells="8620">
<Points>
<DataArray  type="Float64"  NumberOfComponents="3"  format="ascii">3 0.4505813909508334 0  2.858706694155233 0.4348267766209324 0  3 0.7083486900555757 0  2.697160447111943 0.3943208942238857 0  2.895262666184017 0.6857879985520519 0  3 0.9065018226950635 0  2.507383127572992 0.3431775034306555 0  2.753392185228413 0.6300882778426198 0  2.941422924974046 0.8828458499480929 0  3 0.990182154601809 0  2.292893218813706 0.292893218813706 0  2.565213330712254 0.565213330712254 0  2.822205042701531 0.8222050427015308 0  2.978182683361986 0.9781826833619861 0  3 1 0  2.343177503430655 0.5073831275729916 0  2.63008827784262 0.7533921852284131 0  2.882845849948093 0.9414229249740464 0  2.990182154601809 1 0  3 1.009817845398191 0  3.021817316638014 1.021817316638014 0  3.009817845398191 1 0  2.394320894223886 0.6971604471119428 0  2.685787998552052 0.8952626661840173 0  2.906501822695064 1 0  2.978182683361986 1.021817316638014 0  3 1.093498177304937 0  3.058577075025954 1.117154150051907 0  3.177794957298469 1.177794957298469 0  3.117154150051907 1.058577075025954 0  3.093498177304936 1 0  2.434826776620932 0.858706694155233 0  2.708348690055576 1 0  2.882845849948093 1.058577075025954 0  2.941422924974046 1.117154150051907 0  3 1.291651309944424 0  3.104737333815983 1.314212001447948 0  3.246607814771587 1.36991172215738 0  3.434786669287746 1.434786669287746 0  3.36991172215738 1.246607814771587 0  3.314212001447948 1.104737333815983 0  3.291651309944424 1 0  2.450581390950833 1 0  2.685787998552052 1.104737333815983 0  2.822205042701531 1.177794957298469 0  2.895262666184017 1.314212001447948 0  3 1.549418609049167 0  3.141293305844767 1.565173223379068 0  3.302839552888057 1.605679105776114 0  3.492616872427008 1.656822496569345 0  3.707106781186294 1.707106781186294 0  3.656822496569345 1.492616872427008 0  3.605679105776114 1.302839552888057 0  3.565173223379068 1.141293305844767 0  3.549418609049167 1 0  2.434826776620932 1.141293305844767 0  2.63008827784262 1.246607814771587 0  2.753392185228413 1.36991172215738 0  2.858706694155233 1.565173223379068 0  2.394320894223886 1.302839552888057 0  2.565213330712254 1.434786669287746 0  2.697160447111943 1.605679105776114 0  2.343177503430655 1.492616872427008 0  2.507383127572992 1.656822496569345 0  2.292893218813706 1.707106781186294 0  2 4.549418609049167 0  1.858706694155233 4.565173223379068 0  2 4.291651309944425 0  1.697160447111943 4.605679105776114 0  1.895262666184017 4.314212001447948 0  2 4.093498177304936 0  1.507383127572992 4.656822496569345 0  1.753392185228413 4.36991172215738 0  1.941422924974046 4.117154150051907 0  2 4.009817845398191 0  1.292893218813706 4.707106781186294 0  1.565213330712254 4.434786669287746 0  1.822205042701531 4.177794957298469 0  1.978182683361986 4.021817316638014 0  2 4 0  1.343177503430655 4.492616872427009 0  1.63008827784262 4.246607814771587 0  1.882845849948093 4.058577075025953 0  1.990182154601809 4 0  2 3.990182154601809 0  2.021817316638014 3.978182683361986 0  2.009817845398191 4 0  1.394320894223886 4.302839552888058 0  1.685787998552052 4.104737333815983 0  1.906501822695063 4 0  1.978182683361986 3.978182683361986 0  2 3.906501822695064 0  2.058577075025954 3.882845849948093 0  2.177794957298469 3.822205042701531 0  2.117154150051907 3.941422924974046 0  2.093498177304936 4 0  1.434826776620932 4.141293305844767 0  1.708348690055576 4 0  1.882845849948093 3.941422924974046 0  1.941422924974046 3.882845849948093 0  2 3.708348690055576 0  2.104737333815983 3.685787998552052 0  2.246607814771587 3.63008827784262 0  2.434786669287746 3.565213330712254 0  2.36991172215738 3.753392185228413 0  2.314212001447948 3.895262666184017 0  2.291651309944424 4 0  1.450581390950833 4 0  1.685787998552052 3.895262666184017 0  1.822205042701531 3.822205042701531 0  1.895262666184017 3.685787998552052 0  2 3.450581390950833 0  2.141293305844767 3.434826776620932 0  2.302839552888057 3.394320894223886 0  2.492616872427008 3.343177503430655 0  2.707106781186294 3.292893218813706 0  2.656822496569345 3.507383127572992 0  2.605679105776114 3.697160447111943 0  2.565173223379068 3.858706694155233 0  2.549418609049167 4 0  1.434826776620932 3.858706694155233 0  1.63008827784262 3.753392185228413 0  1.753392185228413 3.63008827784262 0  1.858706694155233 3.434826776620932 0  1.394320894223886 3.697160447111943 0  1.565213330712254 3.565213330712254 0  1.697160447111943 3.394320894223886 0  1.343177503430655 3.507383127572992 0  1.507383127572992 3.343177503430655 0  1.292893218813706 3.292893218813706 0  -6 5.549418609049167 0  -5.858706694155233 5.565173223379068 0  -6 5.291651309944425 0  -5.697160447111943 5.605679105776114 0  -5.895262666184017 5.314212001447948 0  -6 5.093498177304936 0  -5.507383127572992 5.656822496569345 0  -5.753392185228413 5.36991172215738 0  -5.941422924974047 5.117154150051907 0  -6 5.009817845398191 0  -5.292893218813706 5.707106781186294 0  -5.565213330712254 5.434786669287746 0  -5.822205042701531 5.177794957298469 0  -5.978182683361986 5.021817316638014 0  -6 5 0  -5.343177503430655 5.492616872427009 0  -5.63008827784262 5.246607814771587 0  -5.882845849948093 5.058577075025953 0  -5.990182154601809 5 0  -6 4.990182154601809 0  -6.021817316638014 4.978182683361986 0  -6.009817845398191 5 0  -5.394320894223886 5.302839552888058 0  -5.685787998552052 5.104737333815983 0  -5.906501822695064 5 0  -5.978182683361986 4.978182683361986 0  -6 4.906501822695064 0  -6.058577075025953 4.882845849948093 0  -6.177794957298469 4.822205042701531 0  -6.117154150051907 4.941422924974047 0  -6.093498177304936 5 0  -5.434826776620932 5.141293305844767 0  -5.708348690055575 5 0  -5.882845849948093 4.941422924974047 0  -5.941422924974047 4.882845849948093 0  -6 4.708348690055575 0  -6.104737333815983 4.685787998552052 0  -6.246607814771587 4.63008827784262 0  -6.434786669287746 4.565213330712254 0  -6.36991172215738 4.753392185228413 0  -6.314212001447948 4.895262666184017 0  -6.291651309944425 5 0  -5.450581390950833 5 0  -5.685787998552052 4.895262666184017 0  -5.822205042701531 4.822205042701531 0  -5.895262666184017 4.685787998552052 0  -6 4.450581390950833 0  -6.141293305844767 4.434826776620932 0  -6.302839552888058 4.394320894223886 0  -6.492616872427009 4.343177503430655 0  -6.707106781186294 4.292893218813706 0  -6.656822496569345 4.507383127572991 0  -6.605679105776114 4.697160447111942 0  -6.565173223379068 4.858706694155233 0  -6.549418609049167 5 0  -5.434826776620932 4.858706694155233 0  -5.63008827784262 4.753392185228413 0  -5.753392185228413 4.63008827784262 0  -5.858706694155233 4.434826776620932 0  -5.394320894223886 4.697160447111942 0  -5.565213330712254 4.565213330712254 0  -5.697160447111942 4.394320894223886 0  -5.343177503430655 4.507383127572991 0  -5.507383127572991 4.343177503430655 0  -5.292893218813706 4.292893218813706 0  -5 2.450581390950833 0  -4.858706694155233 2.434826776620932 0  -5 2.708348690055576 0  -4.697160447111943 2.394320894223886 0  -4.895262666184017 2.685787998552052 0  -5 2.906501822695064 0  -4.507383127572992 2.343177503430655 0  -4.753392185228413 2.63008827784262 0  -4.941422924974047 2.882845849948093 0  -5 2.990182154601809 0  -4.292893218813706 2.292893218813706 0  -4.565213330712254 2.565213330712254 0  -4.822205042701531 2.822205042701531 0  -4.978182683361986 2.978182683361986 0  -5 3 0  -4.343177503430655 2.507383127572992 0  -4.63008827784262 2.753392185228413 0  -4.882845849948093 2.941422924974046 0  -4.990182154601809 3 0  -5 3.009817845398191 0  -5.021817316638014 3.021817316638014 0  -5.009817845398191 3 0  -4.394320894223886 2.697160447111943 0  -4.685787998552052 2.895262666184017 0  -4.906501822695064 3 0  -4.978182683361986 3.021817316638014 0  -5 3.093498177304936 0  -5.058577075025953 3.117154150051907 0  -5.177794957298469 3.177794957298469 0  -5.117154150051907 3.058577075025954 0  -5.093498177304936 3 0  -4.434826776620932 2.858706694155233 0  -4.708348690055575 3 0  -4.882845849948093 3.058577075025954 0  -4.941422924974047 3.117154150051907 0  -5 3.291651309944424 0  -5.104737333815983 3.314212001447948 0  -5.246607814771587 3.36991172215738 0  -5.434786669287746 3.434786669287746 0  -5.36991172215738 3.246607814771587 0  -5.314212001447948 3.104737333815983 0  -5.291651309944425 3 0  -4.450581390950833 3 0  -4.685787998552052 3.104737333815983 0  -4.822205042701531 3.177794957298469 0  -4.895262666184017 3.314212001447948 0  -5 3.549418609049167 0  -5.141293305844767 3.565173223379068 0  -5.302839552888058 3.605679105776114 0  -5.492616872427009 3.656822496569345 0  -5.707106781186294 3.707106781186294 0  -5.656822496569345 3.492616872427008 0  -5.605679105776114 3.302839552888057 0  -5.565173223379068 3.141293305844767 0  -5.549418609049167 3 0  -4.434826776620932 3.141293305844767 0  -4.63008827784262 3.246607814771587 0  -4.753392185228413 3.36991172215738 0  -4.858706694155233 3.565173223379068 0  -4.394320894223886 3.302839552888057 0  -4.565213330712254 3.434786669287746 0  -4.697160447111942 3.605679105776114 0  -4.343177503430655 3.492616872427008 0  -4.507383127572991 3.656822496569345 0  -4.292893218813706 3.707106781186294 0  5 1 0  5 1.1875 0  4.825709888222015 1.037854944111007 0  4.786264867164171 1.260115678616865 0  4.651419776444029 1.075709888222014 0  5 1.375 0  4.644818160953175 1.436037744007759 0  4.465641823823532 1.303565771594816 0  4.302839552888058 1.151419776444029 0  5 1.5625 0  4.421294993849391 1.718733939153952 0  4.746742394938785 1.678619710993132 0  5 1.75 0  4.296598959349347 1.448746669899425 0  4.128549441110072 1.189274720555036 0  4.699672700402207 1.9375 0  5 2.125 0  4.410658553323315 2.018768213700664 0  4.267130272717368 1.863474356104607 0  4.220399009241286 1.64772992213087 0  4.023462850188271 1.566385491943431 0  4.078391068383893 1.3784946945315
[...]
<CellData  Scalars="f_7608"> 
<DataArray  type="Float64"  Name="f_7608"  format="ascii">2.7826189034696652e-01   2.7826189034692067e-01   2.7826189034692161e-01   2.7826189034692067e-01   2.6602490513635974e-01   2.6602490513635974e-01   2.6602490513631150e-01   2.6602490513635974e-01   2.6602490513635974e-01   2.6602490513631227e-01   2.6602490513635962e-01   2.6602490513626326e-01   2.8634458167899535e-01   2.8634458167903926e-01   2.8634458167904020e-01   2.8634458167899596e-01   1.5190123927929686e-01   2.0739851194859815e-01   1.5190123927929675e-01   2.0739851194864006e-01   2.2451572225106978e-01   2.2451572225106978e-01   2.2451572225100166e-01   2.2451572225106978e-01   1.6657203989544045e-01   2.3422044794671401e-01   1.6657203989544045e-01   2.3422044794671409e-01   1.7968238098467226e-01   2.1080684838284705e-01   1.7968238098463421e-01   2.1080684838284702e-01   1.5190123927932778e-01   2.0739851194859765e-01   1.5190123927929666e-01   2.0739851194868270e-01   1.6657203989540739e-01   2.3422044794671404e-01   1.6657203989547348e-01   2.3422044794676053e-01   2.2451572225100241e-01   2.2451572225107008e-01   2.2451572225106892e-01   2.2451572225107011e-01   1.7968238098459743e-01   2.1080684838284802e-01   1.7968238098463557e-01   2.1080684838289207e-01   2.5556930958755458e-01   2.5556930958750967e-01   2.5556930958750967e-01   2.5556930958746510e-01   2.7065505232284093e-01   2.7065505232290155e-01   2.7065505232290071e-01   2.7065505232290071e-01   2.5556930958755392e-01   2.5556930958755397e-01   2.5556930958750990e-01   2.5556930958746471e-01   2.7382726676610963e-01   2.7382726676604807e-01   2.7382726676610869e-01   2.7382726676611041e-01   2.0710678119492337e-01   2.0710678119492337e-01   2.0710678119492337e-01   2.0710678119490458e-01   1.4022880843489846e-01   1.1889069361827810e-01   1.4022880843489977e-01   1.1889069361781647e-01   1.4022880843544552e-01   1.1889069361781765e-01   1.4022880843489713e-01   1.1889069361827798e-01   1.4852322143530605e-01   2.0937862223023168e-01   1.4852322143530383e-01   2.0937862223023168e-01   1.3639968970929353e-01   1.6828536429608015e-01   1.3639968970925762e-01   1.6828536429612437e-01   2.0221191205207692e-01   2.0828340337447315e-01   2.0221191205207650e-01   2.0828340337454376e-01   1.3867796913999156e-01   1.3151767176174406e-01   1.3867796913999195e-01   1.3151767176166410e-01   1.7084280284964481e-01   1.9617442784577441e-01   1.7084280284964465e-01   1.9617442784584457e-01   1.3639968970925737e-01   1.6828536429608054e-01   1.3639968970925742e-01   1.6828536429607968e-01   1.3867796913999167e-01   1.3151767176166401e-01   1.3867796914007655e-01   1.3151767176174342e-01   2.0221191205200822e-01   2.0828340337454490e-01   2.0221191205200822e-01   2.0828340337447365e-01   1.7084280284964465e-01   1.9617442784584549e-01   1.7084280284958311e-01   1.9617442784584557e-01   2.1725639523072640e-01   1.9204538888954936e-01   2.1725639523105433e-01   1.9204538888925843e-01   1.5023516949848512e-01   2.2482799833563685e-01   1.5023516949858640e-01   2.2482799833578695e-01   2.1725639523105331e-01   1.9204538888954861e-01   2.1725639523105331e-01   1.9204538888925923e-01   2.6368234712083510e-01   2.6368234712107419e-01   2.6368234712107741e-01   2.6368234712107419e-01   1.9107323601187151e-01   1.6714256154622839e-01   1.9107323601188989e-01   1.6714256154621149e-01   2.3163423383263929e-01   1.4346576258659560e-01   2.3163423383266035e-01   1.4346576258660865e-01   1.9913327334367914e-01   1.5457079413551400e-01   1.9913327334361053e-01   1.5457079413551400e-01   1.6756807774080490e-01   1.2369059271696024e-01   1.6756807774078064e-01   1.2369059271695966e-01   2.8195839730459926e-01   1.3907706230607569e-01   2.8195839730459926e-01   1.3907706230607569e-01   2.6884662981712648e-01   1.1374097726304025e-01   2.6884662981712648e-01   1.1374097726304025e-01   2.5905400630226089e-01   1.3561326371794594e-01   2.5905400630228281e-01   1.3561326371794594e-01   2.6198692539642365e-01   1.2478007031204554e-01   2.6198692539644813e-01   1.2478007031203388e-01   1.5187221424916711e-01   1.0587298099912242e-01   1.5187221424917322e-01   1.0587298100263554e-01   2.5330939491459897e-01   1.4894584884998044e-01   2.5330939491459897e-01   1.4894584885019821e-01   2.0992987079695277e-01   9.0730763654535931e-02   2.0992987079703390e-01   9.0730763654571070e-02   7.5749863283433791e-02   5.3749469658944476e-02   7.5749863283763111e-02   5.3749469658479106e-02   2.1050147452386739e-01   1.1512708817791871e-01   2.1050147452389206e-01   1.1512708817790522e-01   1.9177053810763151e-01   9.1074607867358562e-02   1.9177053810763151e-01   9.1074607867358548e-02   1.1751610661862402e-01   8.3902007960705488e-02   1.1751610661866399e-01   8.3902007960648436e-02   2.3867490390171089e-01   1.2030220533847441e-01   2.3867490390174428e-01   1.2030220533844073e-01   1.9107323601189052e-01   1.6714256154622811e-01   1.9107323601189052e-01   1.6714256154622892e-01   1.9913327334364486e-01   1.5457079413548730e-01   1.9913327334357667e-01   1.5457079413548752e-01   2.3163423383266102e-01   1.4346576258659580e-01   2.3163423383265033e-01   1.4346576258660904e-01   1.6756807774078095e-01   1.2369059271694265e-01   1.6756807774078095e-01   1.2369059271696031e-01   1.5187221424917016e-01   1.0587298100263404e-01   1.5187221424917016e-01   1.0587298099912298e-01   2.0992987079703254e-01   9.0730763654535806e-02   2.0992987079695064e-01   9.0730763654535793e-02   2.5330939491496518e-01   1.4894584884998199e-01   2.5330939491459831e-01   1.4894584885019668e-01   7.5749863283763458e-02   5.3749469658711996e-02   7.5749863283763180e-02   5.3749469658711663e-02   2.8195839730458916e-01   1.3907706230608127e-01   2.8195839730459993e-01   1.3907706230607023e-01   2.5905400630228320e-01   1.3561326371794596e-01   2.5905400630228304e-01   1.3561326371794599e-01   2.6884662981709628e-01   1.1374097726305299e-01   2.6884662981712637e-01   1.1374097726304018e-01   2.6198692539639906e-01   1.2478007031204560e-01   2.6198692539643575e-01   1.2478007031203969e-01   1.1751610661866327e-01   8.3902007960648284e-02   1.1751610661866387e-01   8.3902007960648423e-02   1.9177053810766781e-01   9.1074607867358548e-02   1.9177053810759437e-01   9.1074607867393090e-02   2.1050147452386753e-01   1.1512708817790550e-01   2.1050147452386780e-01   1.1512708817789889e-01   2.3867490390177712e-01   1.2030220533845760e-01   2.3867490390171103e-01   1.2030220533845758e-01   1.9107323601185275e-01   1.6714256154626053e-01   1.9107323601192730e-01   1.6714256154622845e-01   1.9913327334361119e-01   1.5457079413546101e-01   1.9913327334367914e-01   1.5457079413551394e-01   2.3163423383261822e-01   1.4346576258660887e-01   2.3163423383266035e-01   1.4346576258663496e-01   1.6756807774078095e-01   1.2369059271695980e-01   1.6756807774082771e-01   1.2369059271699448e-01   1.5187221424413225e-01   1.0587298100263404e-01   1.5187221424413225e-01   1.0587298100263404e-01   2.0992987079711387e-01   9.0730763654535723e-02   2.0992987079711387e-01   9.0730763654465474e-02   2.5330939491496501e-01   1.4894584884998183e-01   2.5330939491496501e-01   1.4894584884998080e-01   7.5749863283435095e-02   5.3749469658945025e-02   7.5749863283435095e-02   5.3749469658711663e-02   2.8195839730458966e-01   1.3907706230607006e-01   2.8195839730467886e-01   1.3907706230602548e-01   2.5905400630223890e-01   1.3561326371796886e-01   2.5905400630228287e-01   1.3561326371796906e-01   2.6884662981706658e-01   1.1374097726306565e-01   2.6884662981706658e-01   1.1374097726301478e-01   2.6198692539649654e-01   1.2478007031202218e-01   2.6198692539634966e-01   1.2478007031202229e-01   1.1751610661870321e-01   8.3902007960705446e-02   1.1751610661870403e-01   8.3902007960705446e-02   1.9177053810763178e-01   9.1074607867358562e-02   1.9177053810763037e-01   9.1074607867358562e-02   2.1050147452384260e-01   1.1512708817789197e-01   2.1050147452384313e-01   1.1512708817794599e-01   2.3867490390170995e-01   1.2030220533844080e-01   2.3867490390177823e-01   1.2030220533847445e-01   1.9107323601188989e-01   1.6714256154622778e-01   1.9107323601189014e-01   1.6714256154619578e-01   2.3163423383266030e-01   1.4346576258658247e-01   2.3163423383257603e-01   1.4346576258660870e-01   1.9913327334361028e-01   1.5457079413551422e-01   1.9913327334367886e-01   1.5457079413551389e-01   1.6756807774073393e-01   1.2369059271695970e-01   1.6756807774078158e-01   1.2369059271696020e-01   2.8195839730458705e-01   1.3907706230606950e-01   2.8195839730458755e-01   1.3907706230606995e-01   2.6884662981706597e-01   1.1374097726306587e-01   2.6884662981706597e-01   1.1374097726304017e-01   2.5905400630228287e-01   1.3561326371792284e-01   2.5905400630228287e-01   1.3561326371794602e-01   2.6198692539644797e-01   1.2478007031204544e-01   2.6198692539644824e-01   1.2478007031202229e-01   1.5187221424413530e-01   1.0587298099912242e-01   1.5187221424916711e-01   1.0587298100263444e-01   2.5330939491459897e-01   1.4894584884998233e-01   2.5330939491459897e-01   1.4894584885019635e-01   2.0992987079711586e-01   9.0730763654606542e-02   2.0992987079711484e-01   9.0730763654535765e-02   7.5749863283763208e-02   5.3749469658712135e-02   7.5749863283762139e-02   5.3749469658711448e-02   2.1050147452384277e-01   1.1512708817791864e-01   2.1050147452384277e-01   1.1512708817791877e-01   1.9177053810763137e-01   9.1074607867358465e-02   1.9177053810763137e-01   9.1074607867324089e-02   1.1751610661862420e-01   8.3902007960648575e-02   1.1751610661870389e-01   8.3902007960648381e-02   2.3867490390177767e-01   1.2030220533847430e-01   2.3867490390171087e-01   1.2030220533844080e-01   2.7826189034687560e-01   2.7826189034696708e-01   2.7826189034692067e-01   2.7826189034687515e-01   2.6602490513626326e-01   2.6602490513635962e-01   2.6602490513636051e-01   2.6602490513635974e-01   2.6602490513635974e-01   2.6602490513631150e-01   2.6602490513626326e-01   2.6602490513635974e-01   2.8634458167899535e-01   2.8634458167899596e-01   2.8634458167895077e-01   2.8634458167895172e-01   1.5190123927929666e-01   2.0739851194855599e-01   1.5190123927929686e-01   2.0739851194855541e-01   2.2451572225100241e-01   2.2451572225100080e-01   2.2451572225100200e-01   2.2451572225113819e-01   1.6657203989547348e-01   2.3422044794666752e-01   1.6657203989540739e-01   2.3422044794666758e-01   1.7968238098459755e-01   2.1080684838280281e-01   1.7968238098459741e-01   2.1080684838289263e-01   1.5190123927923488e-01   2.0739851194864006e-01   1.5190123927929686e-01   2.0739851194864040e-01   1.6657203989547348e-01   2.3422044794666760e-01   1.6657203989547348e-01   2.3422044794666758e-01   2.2451572225113789e-01   2.2451572225100166e-01   2.2451572225113789e-01   2.2451572225100166e-01   1.7968238098459621e-01   2.1080684838289165e-01   1.7968238098459619e-01   2.1080684838289165e-01   2.5556930958759849e-01   2.5556930958750990e-01   2.5556930958750940e-01   2.5556930958750929e-01   2.7065505232296050e-01   2.7065505232284093e-01   2.7065505232284176e-01   2.7065505232296050e-01   2.5556930958759916e-01   2.5556930958759888e-01   2.5556930958750973e-01   2.5556930958750973e-01   2.7382726676598496e-01   2.7382726676598407e-01   2.7382726676611047e-01   2.7382726676611047e-01   2.0710678117965642e-01   2.0710678117963766e-01   2.0710678121019030e-01   2.0710678121019030e-01   1.4022880843435134e-01   1.1889069361827798e-01   1.4022880843544552e-01   1.1889069361828036e-01   1.4022880843544552e-01   1.1889069361827917e-01   1.4022880843435270e-01   1.1889069361827810e-01   1.4852322142895139e-01   2.0937862222575068e-01   1.4852322143530861e-01   2.0937862222575176e-01   1.3639968970925742e-01   1.6828536429607968e-01   1.3639968970925737e-01   1.6828536429608054e-01   2.0221191205214706e-01   2.0828340337461673e-01   2.0221191205200822e-01   2.0828340337447337e-01   1.3867796914016145e-01   1.3151767176166290e-01   1.3867796913982186e-01   1.3151767176150300e-01   1.7084280284964506e-01   1.9617442784570333e-01   1.7084280284952078e-01   1.9617442784584549e-01   1.3639968970918581e-01   1.6828536429608007e-01   1.3639968970932939e-01   1.6828536429608015e-01   1.3867796913982217e-01   1.3151767176166410e-01   1.3867796913999156e-01   1.3151767176166357e-01   2.0221191205200706e-01   2.0828340337447224e-01   2.0221191205200748e-01   2.0828340337447318e-01   1.7084280284964465e-01   1.9617442784584457e-01   1.7084280284952091e-01   1.9617442784584552e-01   2.1725639523105331e-01   1.9204538888896983e-01   2.1725639523105328e-01   1.9204538888954861e-01   1.5023516949858640e-01   2.2482799833578695e-01   1.5023516949858642e-01   2.2482799833548522e-01   2.1725639523039955e-01   1.9204538888954786e-01   2.1725639523039900e-01   1.9204538888897055e-01   2.6368234712131633e-01   2.6368234712083510e-01   2.6368234712131949e-01   2.6368234712131633e-01   1.9107323601185275e-01   1.6714256154619531e-01   1.9107323601185275e-01   1.6714256154613008e-01   2.3163423383261816e-01   1.4346576258658278e-01   2.3163423383261816e-01   1.4346576258658247e-01   1.9913327334367939e-01   1.5457079413551394e-01   1.9913327334354283e-01   1.5457079413551394e-01   1.6756807774082771e-01   1.2369059271699430e-01   1.6756807774073418e-01   1.2369059271699426e-01   2.8195839730467964e-01   1.3907706230607025e-01   2.8195839730458977e-01   1.3907706230607025e-01   2.6884662981718621e-01   1.1374097726306522e-01   2.6884662981706747e-01   1.1374097726301510e-01   2.5905400630232694e-01   1.3561326371792251e-01   2.5905400630223896e-01   1.3561326371796942e-01   2.6198692539649626e-01   1.2478007031197533e-01   2.6198692539639984e-01   1.2478007031202282e-01   1.5187221424413225e-01   1.0587298100614606e-01   1.5187221424413225e-01   1.0587298099912201e-01   2.5330939491423060e-01   1.4894584885019774e-01   2.5330939491496501e-01   1.4894584885019788e-01   2.0992987079727457e-01   9.0730763654535168e-02   2.0992987079695194e-01   9.0730763654536306e-02   7.5749863283435095e-02   5.3749469658711996e-02   7.5749863283435095e-02   5.3749469658711996e-02   2.1050147452379281e-01   1.1512708817786498e-01   2.1050147452399018e-01   1.1512708817786459e-01   1.9177053810763003e-01   9.1074607867358076e-02   1.9177053810748534e-01   9.1074607867427743e-02   1.1751610661862356e-01   8.3902007960762498e-02   1.1751610661862397e-01   8.3902007960648395e-02   2.3867490390177618e-01   1.2030220533840634e-01   2.3867490390177834e-01   1.2030220533840701e-01   1.9107323601185433e-01   1.6714256154632581e-01   1.9107323601192888e-01   1.6714256154626186e-01   1.9913327334354117e-01   1.5457079413540806e-01   1.9913327334367753e-01   1.5457079413551422e-01   2.3163423383270124e-01   1.4346576258663493e-01   2.3163423383270365e-01   1.4346576258663479e-01   1.6756807774082619e-01   1.2369059271692498e-01   1.6756807774073443e-01   1.2369059271699506e-01   1.5187221424413133e-01   1.0587298099912240e-01   1.5187221425420716e-01   1.0587298099912240e-01   2.0992987079727604e-01   9.0730763654676500e-02   2.0992987079727987e-01   9.0730763654677651e-02   2.5330939491496346e-01   1.4894584885019510e-01   2.5330939491496618e-01   1.4894584885019821e-01   7.5749863282776914e-02   5.3749469658244779e-02   7.5749863283435859e-02   5.3749469658712044e-02   2.8195839730449818e-01   1.3907706230607028e-01   2.8195839730458860e-01   1.3907706230607028e-01   2.5905400630223890e-01   1.3561326371796906e-01   2.5905400630223890e-01   1.3561326371796886e-01   2.6884662981718677e-01   1.1374097726301427e-01   2.6884662981718999e-01   1.1374097726301535e-01   2.6198692539649576e-01   1.2478007031202219e-01   2.6198692539640045e-01   1.2478007031202201e-01   1.1751610661878380e-01   8.3902007960648381e-02   1.1751610661862422e-01   8.3902007960534486e-02   1.9177053810763137e-01   9.1074607867358645e-02   1.9177053810763137e-01   9.1074607867358451e-02   2.1050147452389209e-01   1.1512708817797276e-01   2.1050147452379345e-01   1.1512708817786468e-01   2.3867490390177767e-01   1.2030220533847445e-01   2.3867490390164406e-01   1.2030220533847430e-01   1.9107323601192716e-01   1.6714256154613030e-01   1.9107323601192688e-01   1.6714256154619542e-01   1.9913327334367886e-01   1.5457079413540806e-01   1.9913327334367847e-01   1.5457079413551389e-01   2.3163423383261822e-01   1.4346576258663468e-01   2.3163423383270249e-01   1.4346576258658278e-01   1.6756807774082813e-01   1.2369059271699462e-01   1.6756807774082724e-01   1.2369059271699426e-01   1.5187221424412919e-01   1.0587298100614645e-01   1.5187221424413530e-01   1.0587298100614646e-01   2.0992987079695064e-01   9.0730763654535723e-02   2.0992987079727712e-01   9.0730763654394697e-02   2.5330939491423354e-01   1.4894584885019696e-01   2.5330939491496796e-01   1.4894584885019765e-01   7.5749863283433944e-02   5.3749469658711614e-02   7.5749863284091834e-02   5.3749469658711961e-02   2.8195839730458844e-01   1.3907706230611447e-01   2.8195839730458755e-01   1.3907706230611350e-01   2.5905400630223890e-01   1.3561326371796886e-01   2.5905400630232683e-01   1.3561326371792284e-01   2.6884662981694601e-01   1.1374097726306587e-01   2.6884662981718715e-01   1.1374097726306580e-01   2.6198692539639862e-01   1.2478007031202218e-01   2.6198692539639862e-01   1.2478007031211531e-01   1.1751610661878358e-01   8.3902007960648436e-02   1.1751610661862422e-01   8.3902007960648436e-02   1.9177053810777736e-01   9.1074607867358562e-02   1.9177053810777667e-01   9.1074607867289464e-02   2.1050147452379322e-01   1.1512708817786479e-01   2.1050147452389245e-01   1.1512708817786504e-01   2.3867490390177759e-01   1.2030220533840712e-01   2.3867490390177837e-01   1.2030220533847445e-01   1.9107323601192688e-01   1.6714256154626064e-01   1.9107323601192716e-01   1.6714256154619553e-01   2.3163423383261822e-01   1.4346576258663496e-01   2.3163423383270249e-01   1.4346576258658247e-01   1.9913327334367847e-01   1.5457079413540806e-01   1.9913327334367886e-01   1.5457079413551389e-01   1.6756807774082724e-01   1.2369059271699426e-01   1.6756807774082813e-01   1.2369059271699462e-01   2.8195839730458755e-01   1.3907706230611350e-01   2.8195839730458844e-01   1.3907706230611447e-01   2.6884662981706658e-01   1.1374097726306580e-01   2.6884662981706658e-01   1.1374097726301485e-01   2.5905400630223890e-01   1.3561326371792284e-01   2.5905400630232683e-01   1.3561326371801491e-01   2.6198692539639862e-01   1.2478007031211531e-01   2.6198692539639862e-01   1.2478007031197555e-01   1.5187221423405947e-01   1.0587298099912242e-01   1.5187221425420502e-01   1.0587298100614646e-01   2.5330939491496796e-01   1.4894584885062945e-01   2.5330939491423354e-01   1.4894584885019696e-01   2.0992987079695064e-01   9.0730763654535806e-02   2.0992987079727712e-01   9.0730763654676833e-02   7.5749863284091834e-02   5.3749469658711961e-02   7.5749863283433944e-02   5.3749469658711614e-02   2.1050147452389245e-01   1.1512708817786504e-01   2.1050147452379322e-01   1.1512708817791875e-01   1.9177053810763112e-01   9.1074607867220367e-02   1.9177053810763187e-01   9.1074607867358562e-02   1.1751610661878399e-01   8.3902007960420272e-02   1.1751610661846400e-01   8.3902007960648436e-02   2.3867490390177837e-01   1.2030220533847445e-01   2.3867490390177759e-01   1.2030220533833978e-01   2.7826189034674281e-01   2.7826189034674187e-01   2.7826189034674187e-01   2.7826189034674459e-01   2.6602490513655425e-01   2.6602490513655386e-01   2.6602490513616500e-01   2.6602490513616789e-01   2.6602490513616828e-01   2.6602490513616500e-01   2.6602490513616789e-01   2.6602490513693988e-01   2.8634458167899851e-01   2.8634458167899485e-01   2.8634458167934906e-01   2.8634458167899668e-01   1.5190123927929616e-01   2.0739851194864017e-01   1.5190123927929616e-01   2.0739851194863954e-01   2.2451572225154767e-01   2.2451572225154712e-01   2.2451572225045627e-01   2.2451572225100280e-01   1.6657203989527472e-01   2.3422044794648200e-01   1.6657203989553912e-01   2.3422044794648134e-01   1.7968238098