<?xml version="1.0"?>
<VTKFile type="UnstructuredGrid"  version="0.1"  >
<UnstructuredGrid>
<Piece  NumberOfPoints="5138" NumberOfCells="9604">
<Points>
<DataArray  type="Float64"  NumberOfComponents="3"  format="ascii">3 0.4118207621415985 0  2.850097571428131 0.4003902857125256 0  3 0.6451325180728931 0  2.685321360221745 0.3706427204434891 0  2.876293965053353 0.62888189516006 0  3 0.8443666535747749 0  2.499093303904763 0.3321244052063501 0  2.726084095315085 0.5891261429726272 0  2.911582771125035 0.8231655422500692 0  3 0.9693365453905908 0  2.292893218813691 0.292893218813691 0  2.542331217136824 0.5423312171368238 0  2.775577275295324 0.7755772752953246 0  2.950052991924517 0.9500529919245165 0  3 1 0  2.33212440520635 0.4990933039047626 0  2.589126142972627 0.7260840953150849 0  2.823165542250069 0.9115827711250346 0  2.969336545390591 1 0  3 1.030663454609409 0  3.049947008075483 1.049947008075483 0  3.030663454609409 1 0  2.370642720443489 0.6853213602217444 0  2.62888189516006 0.8762939650533533 0  2.844366653574775 1 0  2.950052991924517 1.049947008075483 0  3 1.155633346425225 0  3.088417228874965 1.176834457749931 0  3.224422724704676 1.224422724704675 0  3.176834457749931 1.088417228874965 0  3.155633346425225 1 0  2.400390285712525 0.8500975714281314 0  2.645132518072893 1 0  2.823165542250069 1.088417228874965 0  2.911582771125035 1.176834457749931 0  3 1.354867481927107 0  3.123706034946647 1.37111810483994 0  3.273915904684915 1.410873857027373 0  3.457668782863176 1.457668782863176 0  3.410873857027373 1.273915904684915 0  3.37111810483994 1.123706034946647 0  3.354867481927107 1 0  2.411820762141598 1 0  2.62888189516006 1.123706034946647 0  2.775577275295324 1.224422724704675 0  2.876293965053353 1.37111810483994 0  3 1.588179237858402 0  3.149902428571869 1.599609714287475 0  3.314678639778255 1.629357279556511 0  3.500906696095238 1.66787559479365 0  3.707106781186309 1.707106781186309 0  3.66787559479365 1.500906696095238 0  3.629357279556511 1.314678639778255 0  3.599609714287475 1.149902428571869 0  3.588179237858402 1 0  2.400390285712525 1.149902428571869 0  2.589126142972627 1.273915904684915 0  2.726084095315085 1.410873857027373 0  2.850097571428131 1.599609714287475 0  2.370642720443489 1.314678639778255 0  2.542331217136824 1.457668782863176 0  2.685321360221745 1.629357279556511 0  2.33212440520635 1.500906696095238 0  2.499093303904762 1.66787559479365 0  2.292893218813691 1.707106781186309 0  2 4.588179237858402 0  1.850097571428131 4.599609714287475 0  2 4.354867481927107 0  1.685321360221745 4.629357279556511 0  1.876293965053353 4.37111810483994 0  2 4.155633346425225 0  1.499093303904763 4.667875594793649 0  1.726084095315085 4.410873857027373 0  1.911582771125035 4.176834457749931 0  2 4.030663454609409 0  1.292893218813691 4.707106781186309 0  1.542331217136824 4.457668782863176 0  1.775577275295325 4.224422724704676 0  1.950052991924517 4.049947008075484 0  2 4 0  1.33212440520635 4.500906696095237 0  1.589126142972627 4.273915904684915 0  1.823165542250069 4.088417228874965 0  1.969336545390591 4 0  2 3.969336545390591 0  2.049947008075483 3.950052991924517 0  2.030663454609409 4 0  1.370642720443489 4.314678639778256 0  1.62888189516006 4.123706034946647 0  1.844366653574775 4 0  1.950052991924517 3.950052991924517 0  2 3.844366653574775 0  2.088417228874965 3.823165542250069 0  2.224422724704676 3.775577275295324 0  2.176834457749931 3.911582771125035 0  2.155633346425225 4 0  1.400390285712525 4.149902428571869 0  1.645132518072893 4 0  1.823165542250069 3.911582771125035 0  1.911582771125035 3.823165542250069 0  2 3.645132518072893 0  2.123706034946647 3.62888189516006 0  2.273915904684915 3.589126142972627 0  2.457668782863176 3.542331217136824 0  2.410873857027373 3.726084095315085 0  2.37111810483994 3.876293965053353 0  2.354867481927107 4 0  1.411820762141598 4 0  1.62888189516006 3.876293965053353 0  1.775577275295325 3.775577275295324 0  1.876293965053353 3.62888189516006 0  2 3.411820762141598 0  2.149902428571869 3.400390285712525 0  2.314678639778255 3.370642720443489 0  2.500906696095238 3.33212440520635 0  2.707106781186309 3.292893218813691 0  2.66787559479365 3.499093303904762 0  2.629357279556511 3.685321360221745 0  2.599609714287475 3.850097571428131 0  2.588179237858402 4 0  1.400390285712525 3.850097571428131 0  1.589126142972627 3.726084095315085 0  1.726084095315085 3.589126142972627 0  1.850097571428131 3.400390285712525 0  1.370642720443489 3.685321360221745 0  1.542331217136824 3.542331217136824 0  1.685321360221745 3.370642720443489 0  1.33212440520635 3.499093303904762 0  1.499093303904762 3.33212440520635 0  1.292893218813691 3.292893218813691 0  -6 5.588179237858402 0  -5.850097571428131 5.599609714287475 0  -6 5.354867481927107 0  -5.685321360221745 5.629357279556511 0  -5.876293965053353 5.37111810483994 0  -6 5.155633346425225 0  -5.499093303904763 5.667875594793649 0  -5.726084095315085 5.410873857027373 0  -5.911582771125035 5.176834457749931 0  -6 5.030663454609409 0  -5.292893218813691 5.707106781186309 0  -5.542331217136824 5.457668782863176 0  -5.775577275295324 5.224422724704676 0  -5.950052991924516 5.049947008075484 0  -6 5 0  -5.332124405206351 5.500906696095237 0  -5.589126142972627 5.273915904684915 0  -5.823165542250069 5.088417228874965 0  -5.969336545390591 5 0  -6 4.969336545390591 0  -6.049947008075484 4.950052991924516 0  -6.030663454609409 5 0  -5.370642720443489 5.314678639778256 0  -5.62888189516006 5.123706034946647 0  -5.844366653574775 5 0  -5.950052991924516 4.950052991924516 0  -6 4.844366653574775 0  -6.088417228874965 4.823165542250069 0  -6.224422724704676 4.775577275295324 0  -6.176834457749931 4.911582771125035 0  -6.155633346425225 5 0  -5.400390285712525 5.149902428571869 0  -5.645132518072893 5 0  -5.823165542250069 4.911582771125035 0  -5.911582771125035 4.823165542250069 0  -6 4.645132518072893 0  -6.123706034946647 4.62888189516006 0  -6.273915904684915 4.589126142972627 0  -6.457668782863176 4.542331217136824 0  -6.410873857027373 4.726084095315085 0  -6.37111810483994 4.876293965053353 0  -6.354867481927107 5 0  -5.411820762141598 5 0  -5.62888189516006 4.876293965053353 0  -5.775577275295324 4.775577275295324 0  -5.876293965053353 4.62888189516006 0  -6 4.411820762141598 0  -6.149902428571869 4.400390285712525 0  -6.314678639778256 4.370642720443489 0  -6.500906696095237 4.332124405206351 0  -6.707106781186309 4.292893218813691 0  -6.667875594793649 4.499093303904763 0  -6.629357279556511 4.685321360221744 0  -6.599609714287475 4.850097571428131 0  -6.588179237858402 5 0  -5.400390285712525 4.850097571428131 0  -5.589126142972627 4.726084095315085 0  -5.726084095315085 4.589126142972627 0  -5.850097571428131 4.400390285712525 0  -5.370642720443489 4.685321360221744 0  -5.542331217136824 4.542331217136824 0  -5.685321360221744 4.370642720443489 0  -5.332124405206351 4.499093303904763 0  -5.499093303904763 4.332124405206351 0  -5.292893218813691 4.292893218813691 0  -5 2.411820762141598 0  -4.850097571428131 2.400390285712525 0  -5 2.645132518072893 0  -4.685321360221745 2.370642720443489 0  -4.876293965053353 2.62888189516006 0  -5 2.844366653574775 0  -4.499093303904763 2.33212440520635 0  -4.726084095315085 2.589126142972627 0  -4.911582771125035 2.823165542250069 0  -5 2.969336545390591 0  -4.292893218813691 2.292893218813691 0  -4.542331217136824 2.542331217136824 0  -4.775577275295324 2.775577275295324 0  -4.950052991924516 2.950052991924517 0  -5 3 0  -4.332124405206351 2.499093303904762 0  -4.589126142972627 2.726084095315085 0  -4.823165542250069 2.911582771125035 0  -4.969336545390591 3 0  -5 3.030663454609409 0  -5.049947008075484 3.049947008075483 0  -5.030663454609409 3 0  -4.370642720443489 2.685321360221745 0  -4.62888189516006 2.876293965053353 0  -4.844366653574775 3 0  -4.950052991924516 3.049947008075483 0  -5 3.155633346425225 0  -5.088417228874965 3.176834457749931 0  -5.224422724704676 3.224422724704676 0  -5.176834457749931 3.088417228874965 0  -5.155633346425225 3 0  -4.400390285712525 2.850097571428131 0  -4.645132518072893 3 0  -4.823165542250069 3.088417228874965 0  -4.911582771125035 3.176834457749931 0  -5 3.354867481927107 0  -5.123706034946647 3.37111810483994 0  -5.273915904684915 3.410873857027373 0  -5.457668782863176 3.457668782863176 0  -5.410873857027373 3.273915904684915 0  -5.37111810483994 3.123706034946647 0  -5.354867481927107 3 0  -4.411820762141598 3 0  -4.62888189516006 3.123706034946647 0  -4.775577275295324 3.224422724704676 0  -4.876293965053353 3.37111810483994 0  -5 3.588179237858402 0  -5.149902428571869 3.599609714287475 0  -5.314678639778256 3.629357279556511 0  -5.500906696095237 3.66787559479365 0  -5.707106781186309 3.707106781186309 0  -5.667875594793649 3.500906696095238 0  -5.629357279556511 3.314678639778255 0  -5.599609714287475 3.149902428571869 0  -5.588179237858402 3 0  -4.400390285712525 3.149902428571869 0  -4.589126142972627 3.273915904684915 0  -4.726084095315085 3.410873857027373 0  -4.850097571428131 3.599609714287475 0  -4.370642720443489 3.314678639778255 0  -4.542331217136824 3.457668782863176 0  -4.685321360221744 3.629357279556511 0  -4.332124405206351 3.500906696095238 0  -4.499093303904763 3.66787559479365 0  -4.292893218813691 3.707106781186309 0  5 1 0  5 1.1875 0  4.828669659944564 1.039334829972282 0  5 1.375 0  4.799955282837507 1.28125 0  4.657339319889128 1.078669659944564 0  4.820634918236892 1.506417692786598 0  4.6452355475728 1.438948303365132 0  4.608183587928194 1.257360882676231 0  4.486008979833692 1.118004489916846 0  5 1.5625 0  4.747895110462368 1.679697749640207 0  5 1.75 0  4.573762165742714 1.611688335159911 0  4.356652757945501 1.442880316242406 0  4.314678639778256 1.157339319889128 0  4.702758856255141 1.9375 0  4.42396586971011 1.723530333486135 0  4.232041642026576 1.621165377692019 0  4.149300793242634 1.407019981108342 0  4.143348299722819 1.19667414986141 0  5 1.9375 0  4.761477544891046 
[...]
<CellData  Scalars="f_7413"> 
<DataArray  type="Float64"  Name="f_7413"  format="ascii">2.6458123069103379e-01   2.6458123069103340e-01   2.6458123069107925e-01   2.6458123069107925e-01   2.6702590902323164e-01   2.6702590902323120e-01   2.6702590902323164e-01   2.6702590902328183e-01   2.6702590902338352e-01   2.6702590902328155e-01   2.6702590902328299e-01   2.6702590902318041e-01   2.6935276764169797e-01   2.6935276764165333e-01   2.6935276764165333e-01   2.6935276764169858e-01   1.6827643616762947e-01   2.1565269824297997e-01   1.6827643616762947e-01   2.1565269824293604e-01   2.5650670478591175e-01   2.5650670478591142e-01   2.5650670478590976e-01   2.5650670478591142e-01   2.5026420905059027e-01   2.5026420905058877e-01   2.5026420905058988e-01   2.5026420905058988e-01   1.5381680782484206e-01   2.3675260667746689e-01   1.5381680782484183e-01   2.3675260667751613e-01   1.6827643616759380e-01   2.1565269824293548e-01   1.6827643616762900e-01   2.1565269824298061e-01   2.5026420905053987e-01   2.5026420905058955e-01   2.5026420905064045e-01   2.5026420905059099e-01   2.5650670478597981e-01   2.5650670478583976e-01   2.5650670478591081e-01   2.5650670478590976e-01   1.5381680782484206e-01   2.3675260667746634e-01   1.5381680782484206e-01   2.3675260667746634e-01   2.6938785040896529e-01   2.6938785040896507e-01   2.6938785040896551e-01   2.6938785040901553e-01   2.8789745830442048e-01   2.8789745830441943e-01   2.8789745830441799e-01   2.8789745830441998e-01   2.6938785040896479e-01   2.6938785040896507e-01   2.6938785040901603e-01   2.6938785040896507e-01   2.8454406741181526e-01   2.8454406741188126e-01   2.8454406741187988e-01   2.8454406741187932e-01   2.0710678118635975e-01   2.0710678118636272e-01   2.0710678118635975e-01   2.0710678118635975e-01   1.5622370424876464e-01   1.6908001175163603e-01   1.5622370424876519e-01   1.6908001175144358e-01   1.5622370424876408e-01   1.6908001175144335e-01   1.5622370424876467e-01   1.6908001175144335e-01   2.6354828473467257e-01   2.6354828473467995e-01   2.6354828473555358e-01   2.6354828473467329e-01   1.6276428555826689e-01   1.9003127826291188e-01   1.6276428555826689e-01   1.9003127826291205e-01   2.4121767090130686e-01   2.4121767090137525e-01   2.4121767090130664e-01   2.4121767090130686e-01   1.4167237950109643e-01   1.8083548583901612e-01   1.4167237950103942e-01   1.8083548583908896e-01   1.5173363212267801e-01   2.2652706360198788e-01   1.5173363212277002e-01   2.2652706360191949e-01   1.6276428555826608e-01   1.9003127826291147e-01   1.6276428555828615e-01   1.9003127826293564e-01   1.4167237950103936e-01   1.8083548583901651e-01   1.4167237950103936e-01   1.8083548583908948e-01   2.4121767090130544e-01   2.4121767090130761e-01   2.4121767090130566e-01   2.4121767090130564e-01   1.5173363212277019e-01   2.2652706360192001e-01   1.5173363212272423e-01   2.2652706360198827e-01   1.7346686274295400e-01   2.3049480097948508e-01   1.7346686274295425e-01   2.3049480097948488e-01   2.7263087225317517e-01   2.7263087225329374e-01   2.7263087225329186e-01   2.7263087225329363e-01   1.7346686274283588e-01   2.3049480097948657e-01   1.7346686274295436e-01   2.3049480097948405e-01   2.8257537442659819e-01   2.8257537442673353e-01   2.8257537442673358e-01   2.8257537442673353e-01   2.0050134852670756e-01   1.8170463541255427e-01   2.0050134852670756e-01   1.8170463541253581e-01   2.3788204152102249e-01   1.5974835147304378e-01   2.3788204152102210e-01   1.5974835147304320e-01   2.0478890083680101e-01   1.7327187859460622e-01   2.0478890083677109e-01   1.7327187859458038e-01   2.0259919613391797e-01   1.5115271253368340e-01   2.0259919613391755e-01   1.5115271253370269e-01   2.6687970446769155e-01   1.5189777105410798e-01   2.6687970446766840e-01   1.5189777105410798e-01   2.8615613935170037e-01   1.3594305904868700e-01   2.8615613935170020e-01   1.3594305904870188e-01   2.6256297775538495e-01   1.5103844314232326e-01   2.6256297775540849e-01   1.5103844314232343e-01   2.7404348589211147e-01   1.4287907022745283e-01   2.7404348589213778e-01   1.4287907022745297e-01   2.1121898340751785e-01   1.4003109080934081e-01   2.1121898340849463e-01   1.4003109081063686e-01   2.3011106241209653e-01   1.6725162798497956e-01   2.3011106241209653e-01   1.6725162798487203e-01   2.6606838175818542e-01   1.1944423922343103e-01   2.6606838175824543e-01   1.1944423922345805e-01   1.4338082555558548e-01   9.1763485234389167e-02   1.4338082555558423e-01   9.1763485234272635e-02   2.3904567328504006e-01   1.3899810608927671e-01   2.3904567328503859e-01   1.3899810608929208e-01   2.3819854843889016e-01   1.2118070164258744e-01   2.3819854843889163e-01   1.2118070164260661e-01   1.7724337900952894e-01   1.2316987441929536e-01   1.7724337900945231e-01   1.2316987441932130e-01   2.5794192164991475e-01   1.4278816159037458e-01   2.5794192164991631e-01   1.4278816159037513e-01   2.0050134852672810e-01   1.8170463541255469e-01   2.0050134852671792e-01   1.8170463541256371e-01   2.0478890083677129e-01   1.7327187859460533e-01   2.0478890083680085e-01   1.7327187859455556e-01   2.3788204152099970e-01   1.5974835147305896e-01   2.3788204152103407e-01   1.5974835147305183e-01   2.0259919613391802e-01   1.5115271253370294e-01   2.0259919613391791e-01   1.5115271253370277e-01   2.1121898340850054e-01   1.4003109080999071e-01   2.1121898340849971e-01   1.4003109080933795e-01   2.6606838175824715e-01   1.1944423922345872e-01   2.6606838175824715e-01   1.1944423922345802e-01   2.3011106241209817e-01   1.6725162798497989e-01   2.3011106241209836e-01   1.6725162798497911e-01   1.4338082555576681e-01   9.1763485234389236e-02   1.4338082555576717e-01   9.1763485234330533e-02   2.6687970446767978e-01   1.5189777105411451e-01   2.6687970446767978e-01   1.5189777105410804e-01   2.6256297775540927e-01   1.5103844314232362e-01   2.6256297775540927e-01   1.5103844314231690e-01   2.8615613935170015e-01   1.3594305904868692e-01   2.8615613935170003e-01   1.3594305904868681e-01   2.7404348589213851e-01   1.4287907022745311e-01   2.7404348589211186e-01   1.4287907022745999e-01   1.7724337900945100e-01   1.2316987441932133e-01   1.7724337900945181e-01   1.2316987441929485e-01   2.3819854843885357e-01   1.2118070164262500e-01   2.3819854843889079e-01   1.2118070164262522e-01   2.3904567328503956e-01   1.3899810608929228e-01   2.3904567328504017e-01   1.3899810608929278e-01   2.5794192164994734e-01   1.4278816159037439e-01   2.5794192164991497e-01   1.4278816159039306e-01   2.0050134852672791e-01   1.8170463541253623e-01   2.0050134852668719e-01   1.8170463541253581e-01   2.0478890083668227e-01   1.7327187859460572e-01   2.0478890083674114e-01   1.7327187859460519e-01   2.3788204152106859e-01   1.5974835147307392e-01   2.3788204152102296e-01   1.5974835147307481e-01   2.0259919613391777e-01   1.5115271253366436e-01   2.0259919613386587e-01   1.5115271253366402e-01   2.1121898340850093e-01   1.4003109080999071e-01   2.1121898340752096e-01   1.4003109080998843e-01   2.6606838175824732e-01   1.1944423922345879e-01   2.6606838175812414e-01   1.1944423922340283e-01   2.3011106241209817e-01   1.6725162798487195e-01   2.3011106241209817e-01   1.6725162798497906e-01   1.4338082555558390e-01   9.1763485234272482e-02   1.4338082555558465e-01   9.1763485234272288e-02   2.6687970446768100e-01   1.5189777105416652e-01   2.6687970446768033e-01   1.5189777105411451e-01   2.6256297775540710e-01   1.5103844314232290e-01   2.6256297775540732e-01   1.5103844314232351e-01   2.8615613935176398e-01   1.3594305904873222e-01   2.8615613935170037e-01   1.3594305904867171e-01   2.7404348589213967e-01   1.4287907022749427e-01   2.7404348589213939e-01   1.4287907022749469e-01   1.7724337900949036e-01   1.2316987441929515e-01   1.7724337900941359e-01   1.2316987441934801e-01   2.3819854843889035e-01   1.2118070164258755e-01   2.3819854843896471e-01   1.2118070164262533e-01   2.3904567328506562e-01   1.3899810608924432e-01   2.3904567328501181e-01   1.3899810608927682e-01   2.5794192164994784e-01   1.4278816159035612e-01   2.5794192164988250e-01   1.4278816159035673e-01   2.0050134852668719e-01   1.8170463541253581e-01   2.0050134852668719e-01   1.8170463541257276e-01   2.3788204152102210e-01   1.5974835147301253e-01   2.3788204152097664e-01   1.5974835147307467e-01   2.0478890083674159e-01   1.7327187859455523e-01   2.0478890083674198e-01   1.7327187859460622e-01   2.0259919613391741e-01   1.5115271253370269e-01   2.0259919613391777e-01   1.5115271253366411e-01   2.6687970446768033e-01   1.5189777105411437e-01   2.6687970446768100e-01   1.5189777105414054e-01   2.8615613935170037e-01   1.3594305904867160e-01   2.8615613935176398e-01   1.3594305904873230e-01   2.6256297775536047e-01   1.5103844314235071e-01   2.6256297775545628e-01   1.5103844314229584e-01   2.7404348589208433e-01   1.4287907022743890e-01   2.7404348589213795e-01   1.4287907022743898e-01   2.1121898340751472e-01   1.4003109081063753e-01   2.1121898340947773e-01   1.4003109080999049e-01   2.3011106241194856e-01   1.6725162798497956e-01   2.3011106241194856e-01   1.6725162798497956e-01   2.6606838175824671e-01   1.1944423922345791e-01   2.6606838175824798e-01   1.1944423922340373e-01   1.4338082555558415e-01   9.1763485234272635e-02   1.4338082555558559e-01   9.1763485234505685e-02   2.3904567328506582e-01   1.3899810608930796e-01   2.3904567328501283e-01   1.3899810608927682e-01   2.3819854843889154e-01   1.2118070164262533e-01   2.3819854843881638e-01   1.2118070164258747e-01   1.7724337900941395e-01   1.2316987441934786e-01   1.7724337900949061e-01   1.2316987441929536e-01   2.5794192164988344e-01   1.4278816159039340e-01   2.5794192164988178e-01   1.4278816159039284e-01   2.6458123069112555e-01   2.6458123069103340e-01   2.6458123069103340e-01   2.6458123069103340e-01   2.6702590902323164e-01   2.6702590902318174e-01   2.6702590902318035e-01   2.6702590902323103e-01   2.6702590902323164e-01   2.6702590902318102e-01   2.6702590902328183e-01   2.6702590902328183e-01   2.6935276764169797e-01   2.6935276764169858e-01   2.6935276764165333e-01   2.6935276764156291e-01   1.6827643616755858e-01   2.1565269824298061e-01   1.6827643616762900e-01   2.1565269824298061e-01   2.5650670478590981e-01   2.5650670478605075e-01   2.5650670478576976e-01   2.5650670478604976e-01   2.5026420905059099e-01   2.5026420905058933e-01   2.5026420905058955e-01   2.5026420905059099e-01   1.5381680782484206e-01   2.3675260667756740e-01   1.5381680782484206e-01   2.3675260667746634e-01   1.6827643616762947e-01   2.1565269824298117e-01   1.6827643616762947e-01   2.1565269824297997e-01   2.5026420905059027e-01   2.5026420905048763e-01   2.5026420905058877e-01   2.5026420905058988e-01   2.5650670478591175e-01   2.5650670478590976e-01   2.5650670478591142e-01   2.5650670478577148e-01   1.5381680782484183e-01   2.3675260667746553e-01   1.5381680782484206e-01   2.3675260667746689e-01   2.6938785040901486e-01   2.6938785040891594e-01   2.6938785040891500e-01   2.6938785040901508e-01   2.8789745830442048e-01   2.8789745830429136e-01   2.8789745830441943e-01   2.8789745830429336e-01   2.6938785040891522e-01   2.6938785040901553e-01   2.6938785040891500e-01   2.6938785040901553e-01   2.8454406741200738e-01   2.8454406741200794e-01   2.8454406741188126e-01   2.8454406741187932e-01   2.0710678118635975e-01   2.0710678118635975e-01   2.0710678118322959e-01   2.0710678118323256e-01   1.5622370424912035e-01   1.6908001175144335e-01   1.5622370424876408e-01   1.6908001175144335e-01   1.5622370424876519e-01   1.6908001175105863e-01   1.5622370424876467e-01   1.6908001175182852e-01   2.6354828473467257e-01   2.6354828473467146e-01   2.6354828473467995e-01   2.6354828473467329e-01   1.6276428555826608e-01   1.9003127826291227e-01   1.6276428555826608e-01   1.9003127826291147e-01   2.4121767090130544e-01   2.4121767090130566e-01   2.4121767090116905e-01   2.4121767090130564e-01   1.4167237950109648e-01   1.8083548583894357e-01   1.4167237950098219e-01   1.8083548583894357e-01   1.5173363212267829e-01   2.2652706360219407e-01   1.5173363212267829e-01   2.2652706360192001e-01   1.6276428555826689e-01   1.9003127826291205e-01   1.6276428555834704e-01   1.9003127826291188e-01   1.4167237950098224e-01   1.8083548583908896e-01   1.4167237950109643e-01   1.8083548583894321e-01   2.4121767090144539e-01   2.4121767090130664e-01   2.4121767090130597e-01   2.4121767090144539e-01   1.5173363212277002e-01   2.2652706360191949e-01   1.5173363212267801e-01   2.2652706360205646e-01   1.7346686274295436e-01   2.3049480097948405e-01   1.7346686274295436e-01   2.3049480097917169e-01   2.7263087225317517e-01   2.7263087225341121e-01   2.7263087225341304e-01   2.7263087225341298e-01   1.7346686274295423e-01   2.3049480097948488e-01   1.7346686274295400e-01   2.3049480097917022e-01   2.8257537442659619e-01   2.8257537442687286e-01   2.8257537442687092e-01   2.8257537442687092e-01   2.0050134852676865e-01   1.8170463541261003e-01   2.0050134852668719e-01   1.8170463541253581e-01   2.3788204152106857e-01   1.5974835147301231e-01   2.3788204152097711e-01   1.5974835147301270e-01   2.0478890083668227e-01   1.7327187859460572e-01   2.0478890083668208e-01   1.7327187859460519e-01   2.0259919613386604e-01   1.5115271253366436e-01   2.0259919613386590e-01   1.5115271253366402e-01   2.6687970446767922e-01   1.5189777105411445e-01   2.6687970446758796e-01   1.5189777105411451e-01   2.8615613935170142e-01   1.3594305904870241e-01   2.8615613935157413e-01   1.3594305904870149e-01   2.6256297775541027e-01   1.5103844314226914e-01   2.6256297775541010e-01   1.5103844314226833e-01   2.7404348589208460e-01   1.4287907022743959e-01   2.7404348589208433e-01   1.4287907022743879e-01   2.1121898340750914e-01   1.4003109080933590e-01   2.1121898340946901e-01   1.4003109080934131e-01   2.3011106241209817e-01   1.6725162798497950e-01   2.3011106241180218e-01   1.6725162798498008e-01   2.6606838175812225e-01   1.1944423922351417e-01   2.6606838175812159e-01   1.1944423922340283e-01   1.4338082555594919e-01   9.1763485234039127e-02   1.4338082555558582e-01   9.1763485234272885e-02   2.3904567328506621e-01   1.3899810608930752e-01   2.3904567328506621e-01   1.3899810608937141e-01   2.3819854843889074e-01   1.2118070164255038e-01   2.3819854843889066e-01   1.2118070164262448e-01   1.7724337900926082e-01   1.2316987441929515e-01   1.7724337900941353e-01   1.2316987441940129e-01   2.5794192164988311e-01   1.4278816159042992e-01   2.5794192164988178e-01   1.4278816159035607e-01   2.0050134852668719e-01   1.8170463541260964e-01   2.0050134852668719e-01   1.8170463541260964e-01   2.0478890083668438e-01   1.7327187859470475e-01   2.0478890083668516e-01   1.7327187859470639e-01   2.3788204152107020e-01   1.5974835147307428e-01   2.3788204152116191e-01   1.5974835147301381e-01   2.0259919613397046e-01   1.5115271253374127e-01   2.0259919613376362e-01   1.5115271253374127e-01   2.1121898340751813e-01   1.4003109081063539e-01   2.1121898340947792e-01   1.4003109081064063e-01   2.6606838175837055e-01   1.1944423922340436e-01   2.6606838175812286e-01   1.1944423922340276e-01   2.3011106241209653e-01   1.6725162798497956e-01   2.3011106241180054e-01   1.6725162798476445e-01   1.4338082555522175e-01   9.1763485234272635e-02   1.4338082555595000e-01   9.1763485234039585e-02   2.6687970446768167e-01   1.5189777105416641e-01   2.6687970446768161e-01   1.5189777105406277e-01   2.6256297775540821e-01   1.5103844314237946e-01   2.6256297775531179e-01   1.5103844314232320e-01   2.8615613935157125e-01   1.3594305904876267e-01   2.8615613935157019e-01   1.3594305904870130e-01   2.7404348589208583e-01   1.4287907022744020e-01   2.7404348589208488e-01   1.4287907022743904e-01   1.7724337900941106e-01   1.2316987441929385e-01   1.7724337900941348e-01   1.2316987441929503e-01   2.3819854843889154e-01   1.2118070164262501e-01   2.3819854843903551e-01   1.2118070164262494e-01   2.3904567328495538e-01   1.3899810608924437e-01   2.3904567328495815e-01   1.3899810608930896e-01   2.5794192164987989e-01   1.4278816159042937e-01   2.5794192164988317e-01   1.4278816159042937e-01   2.0050134852668719e-01   1.8170463541260964e-01   2.0050134852676865e-01   1.8170463541260964e-01   2.0478890083680101e-01   1.7327187859460624e-01   2.0478890083668252e-01   1.7327187859460519e-01   2.3788204152097614e-01   1.5974835147307437e-01   2.3788204152097575e-01   1.5974835147301283e-01   2.0259919613396946e-01   1.5115271253366411e-01   2.0259919613396915e-01   1.5115271253366414e-01   2.1121898340556103e-01   1.4003109081064144e-01   2.1121898340751774e-01   1.4003109081063622e-01   2.6606838175837055e-01   1.1944423922340373e-01   2.6606838175812414e-01   1.1944423922340257e-01   2.3011106241209744e-01   1.6725162798498008e-01   2.3011106241209744e-01   1.6725162798476398e-01   1.4338082555558537e-01   9.1763485234272954e-02   1.4338082555594805e-01   9.1763485234505393e-02   2.6687970446777204e-01   1.5189777105406263e-01   2.6687970446768011e-01   1.5189777105411442e-01   2.6256297775550319e-01   1.5103844314226805e-01   2.6256297775540782e-01   1.5103844314232351e-01   2.8615613935170037e-01   1.3594305904870227e-01   2.8615613935170037e-01   1.3594305904870216e-01   2.7404348589208594e-01   1.4287907022749427e-01   2.7404348589197902e-01   1.4287907022743923e-01   1.7724337900941367e-01   1.2316987441940198e-01   1.7724337900956749e-01   1.2316987441929468e-01   2.3819854843874239e-01   1.2118070164269958e-01   2.3819854843889199e-01   1.2118070164247584e-01   2.3904567328495829e-01   1.3899810608930827e-01   2.3904567328495754e-01   1.3899810608930829e-01   2.5794192165001301e-01   1.4278816159035596e-01   2.5794192164988344e-01   1.4278816159043015e-01   2.0050134852676865e-01   1.8170463541268347e-01   2.0050134852668719e-01   1.8170463541260964e-01   2.3788204152106746e-01   1.5974835147307440e-01   2.3788204152097614e-01   1.5974835147307437e-01   2.0478890083680062e-01   1.7327187859470508e-01   2.0478890083668291e-01   1.7327187859460622e-01   2.0259919613376229e-01   1.5115271253374124e-01   2.0259919613396946e-01   1.5115271253374124e-01   2.6687970446768011e-01   1.5189777105416624e-01   2.6687970446768100e-01   1.5189777105411442e-01   2.8615613935182765e-01   1.3594305904864168e-01   2.8615613935182765e-01   1.3594305904870230e-01   2.6256297775531245e-01   1.5103844314243325e-01   2.6256297775550319e-01   1.5103844314237780e-01   2.7404348589208544e-01   1.4287907022749469e-01   2.7404348589208594e-01   1.4287907022743881e-01   2.1121898340947762e-01   1.4003109080933693e-01   2.1121898340948073e-01   1.4003109081064141e-01   2.3011106241209744e-01   1.6725162798476398e-01   2.3011106241209744e-01   1.6725162798498008e-01   2.6606838175812414e-01   1.1944423922362263e-01   2.6606838175861564e-01   1.1944423922351376e-01   1.4338082555558390e-01   9.1763485234039321e-02   1.4338082555594950e-01   9.1763485234039904e-02   2.3904567328506643e-01   1.3899810608924498e-01   2.3904567328495829e-01   1.3899810608924495e-01   2.3819854843874474e-01   1.2118070164255069e-01   2.3819854843888952e-01   1.2118070164269958e-01   1.7724337900941420e-01   1.2316987441929468e-01   1.7724337900926040e-01   1.2316987441929544e-01   2.5794192165001539e-01   1.4278816159035709e-01   2.5794192164988117e-01   1.4278816159028290e-01   2.6458123069122108e-01   2.6458123069121670e-01   2.6458123069121670e-01   2.6458123069122108e-01   2.6702590902308243e-01   2.6702590902308154e-01   2.6702590902348478e-01   2.6702590902308154e-01   2.6702590902348738e-01   2.6702590902307982e-01   2.6702590902267653e-01   2.6702590902348655e-01   2.6935276764151322e-01   2.6935276764151767e-01   2.6935276764151767e-01   2.6935276764187499e-01   1.6827643616762947e-01   2.1565269824298117e-01   1.6827643616762947e-01   2.1565269824298117e-01   2.5650670478563070e-01   2.5650670478618898e-01   2.5650670478563248e-01   2.5650670478619242e-01   2.5026420905079411e-01   2.5026420905038438e-01   2.5026420905079494e-01   2.5026420905079333e-01   1.5381680782