<?xml version="1.0"?>
<VTKFile type="UnstructuredGrid"  version="0.1"  >
<UnstructuredGrid>
<Piece  NumberOfPoints="2006" NumberOfCells="3618">
<Points>
<DataArray  type="Float64"  NumberOfComponents="3"  format="ascii">3 0.3378215821452335 0  2.833441594912761 0.3337663796510457 0  3 0.5329865384474093 0  2.661503918807094 0.3230078376141886 0  2.842489777594233 0.5274693327827005 0  3 0.7176341807104085 0  2.481388254524131 0.3085176726988411 0  2.675936639001904 0.5139049585028559 0  2.854783967522197 0.709567935044394 0  3 0.8839527516772595 0  2.292893218813257 0.2928932188132569 0  2.497472710738964 0.4974727107389642 0  2.692797973444407 0.6927979734444063 0  2.871431999438945 0.8714319994389447 0  3 1 0  2.308517672698841 0.4813882545241308 0  2.513904958502856 0.6759366390019039 0  2.709567935044394 0.854783967522197 0  2.883952751677259 1 0  3 1.116047248322741 0  3.128568000561055 1.128568000561055 0  3.116047248322741 1 0  2.323007837614188 0.6615039188070941 0  2.5274693327827 0.8424897775942335 0  2.717634180710409 1 0  2.871431999438945 1.128568000561055 0  3 1.282365819289591 0  3.145216032477803 1.290432064955606 0  3.307202026555593 1.307202026555594 0  3.290432064955606 1.145216032477803 0  3.282365819289591 1 0  2.333766379651045 0.8334415949127614 0  2.53298653844741 1 0  2.709567935044394 1.145216032477803 0  2.854783967522197 1.290432064955606 0  3 1.467013461552591 0  3.157510222405767 1.4725306672173 0  3.324063360998096 1.486095041497144 0  3.502527289261036 1.502527289261036 0  3.486095041497144 1.324063360998096 0  3.4725306672173 1.157510222405767 0  3.46701346155259 1 0  2.337821582145233 1 0  2.5274693327827 1.157510222405767 0  2.692797973444407 1.307202026555594 0  2.842489777594233 1.4725306672173 0  3 1.662178417854766 0  3.166558405087239 1.666233620348955 0  3.338496081192906 1.676992162385812 0  3.518611745475869 1.691482327301159 0  3.707106781186743 1.707106781186743 0  3.691482327301159 1.518611745475869 0  3.676992162385812 1.338496081192906 0  3.666233620348955 1.166558405087239 0  3.662178417854767 1 0  2.333766379651045 1.166558405087239 0  2.513904958502856 1.324063360998096 0  2.675936639001904 1.486095041497144 0  2.833441594912761 1.666233620348955 0  2.323007837614188 1.338496081192906 0  2.497472710738964 1.502527289261036 0  2.661503918807094 1.676992162385812 0  2.308517672698841 1.518611745475869 0  2.481388254524131 1.691482327301159 0  2.292893218813257 1.707106781186743 0  2 4.662178417854767 0  1.833441594912761 4.666233620348955 0  2 4.46701346155259 0  1.661503918807094 4.676992162385812 0  1.842489777594233 4.472530667217299 0  2 4.282365819289591 0  1.481388254524131 4.691482327301159 0  1.675936639001904 4.486095041497144 0  1.854783967522197 4.290432064955606 0  2 4.11604724832274 0  1.292893218813257 4.707106781186743 0  1.497472710738964 4.502527289261036 0  1.692797973444406 4.307202026555593 0  1.871431999438945 4.128568000561056 0  2 4 0  1.308517672698841 4.518611745475869 0  1.513904958502856 4.324063360998096 0  1.709567935044394 4.145216032477803 0  1.883952751677259 4 0  2 3.883952751677259 0  2.128568000561055 3.871431999438945 0  2.116047248322741 4 0  1.323007837614188 4.338496081192906 0  1.5274693327827 4.157510222405767 0  1.717634180710409 4 0  1.871431999438945 3.871431999438945 0  2 3.717634180710409 0  2.145216032477803 3.709567935044394 0  2.307202026555593 3.692797973444407 0  2.290432064955606 3.854783967522197 0  2.282365819289591 4 0  1.333766379651045 4.166558405087239 0  1.532986538447409 4 0  1.709567935044394 3.854783967522197 0  1.854783967522197 3.709567935044394 0  2 3.53298653844741 0  2.157510222405767 3.5274693327827 0  2.324063360998096 3.513904958502856 0  2.502527289261036 3.497472710738964 0  2.486095041497144 3.675936639001904 0  2.4725306672173 3.842489777594233 0  2.46701346155259 4 0  1.337821582145234 4 0  1.5274693327827 3.842489777594233 0  1.692797973444406 3.692797973444407 0  1.842489777594233 3.5274693327827 0  2 3.337821582145233 0  2.166558405087239 3.333766379651045 0  2.338496081192906 3.323007837614188 0  2.518611745475869 3.308517672698841 0  2.707106781186743 3.292893218813257 0  2.691482327301159 3.481388254524131 0  2.676992162385812 3.661503918807094 0  2.666233620348955 3.833441594912761 0  2.662178417854767 4 0  1.333766379651045 3.833441594912761 0  1.513904958502856 3.675936639001904 0  1.675936639001904 3.513904958502856 0  1.833441594912761 3.333766379651045 0  1.323007837614188 3.661503918807094 0  1.497472710738964 3.497472710738964 0  1.661503918807094 3.323007837614188 0  1.308517672698841 3.481388254524131 0  1.481388254524131 3.308517672698841 0  1.292893218813257 3.292893218813257 0  -6 5.662178417854767 0  -5.833441594912761 5.666233620348955 0  -6 5.46701346155259 0  -5.661503918807094 5.676992162385812 0  -5.842489777594234 5.472530667217299 0  -6 5.282365819289591 0  -5.481388254524131 5.691482327301159 0  -5.675936639001904 5.486095041497144 0  -5.854783967522197 5.290432064955606 0  -6 5.11604724832274 0  -5.292893218813257 5.707106781186743 0  -5.497472710738964 5.502527289261036 0  -5.692797973444407 5.307202026555593 0  -5.871431999438944 5.128568000561056 0  -6 5 0  -5.308517672698841 5.518611745475869 0  -5.513904958502856 5.324063360998096 0  -5.709567935044394 5.145216032477803 0  -5.88395275167726 5 0  -6 4.88395275167726 0  -6.128568000561056 4.871431999438944 0  -6.11604724832274 5 0  -5.323007837614188 5.338496081192906 0  -5.527469332782701 5.157510222405767 0  -5.717634180710409 5 0  -5.871431999438944 4.871431999438944 0  -6 4.717634180710409 0  -6.145216032477803 4.709567935044394 0  -6.307202026555593 4.692797973444407 0  -6.290432064955606 4.854783967522197 0  -6.282365819289591 5 0  -5.333766379651045 5.166558405087239 0  -5.53298653844741 5 0  -5.709567935044394 4.854783967522197 0  -5.854783967522197 4.709567935044394 0  -6 4.53298653844741 0  -6.157510222405766 4.527469332782701 0  -6.324063360998096 4.513904958502856 0  -6.502527289261036 4.497472710738964 0  -6.486095041497144 4.675936639001904 0  -6.472530667217299 4.842489777594234 0  -6.46701346155259 5 0  -5.337821582145233 5 0  -5.527469332782701 4.842489777594234 0  -5.692797973444407 4.692797973444407 0  -5.842489777594234 4.527469332782701 0  -6 4.337821582145233 0  -6.166558405087239 4.333766379651045 0  -6.338496081192906 4.323007837614188 0  -6.518611745475869 4.308517672698841 0  -6.707106781186743 4.292893218813257 0  -6.691482327301159 4.481388254524131 0  -6.676992162385812 4.661503918807094 0  -6.666233620348955 4.833441594912761 0  -6.662178417854767 5 0  -5.333766379651045 4.833441594912761 0  -5.513904958502856 4.675936639001904 0  -5.675936639001904 4.513904958502856 0  -5.833441594912761 4.333766379651045 0  -5.323007837614188 4.661503918807094 0  -5.497472710738964 4.497472710738964 0  -5.661503918807094 4.323007837614188 0  -5.308517672698841 4.481388254524131 0  -5.481388254524131 4.308517672698841 0  -5.292893218813257 4.292893218813257 0  -5 2.337821582145233 0  -4.833441594912761 2.333766379651045 0  -5 2.53298653844741 0  -4.661503918807094 2.323007837614189 0  -4.842489777594234 2.5274693327827 0  -5 2.717634180710409 0  -4.481388254524131 2.308517672698841 0  -4.675936639001904 2.513904958502856 0  -4.854783967522197 2.709567935044394 0  -5 2.883952751677259 0  -4.292893218813257 2.292893218813257 0  -4.497472710738964 2.497472710738964 0  -4.692797973444407 2.692797973444407 0  -4.871431999438944 2.871431999438945 0  -5 3 0  -4.308517672698841 2.481388254524131 0  -4.513904958502856 2.675936639001904 0  -4.709567935044394 2.854783967522197 0  -4.88395275167726 3 0  -5 3.116047248322741 0  -5.128568000561056 3.128568000561055 0  -5.11604724832274 3 0  -4.323007837614188 2.661503918807094 0  -4.527469332782701 2.842489777594233 0  -4.717634180710409 3 0  -4.871431999438944 3.128568000561055 0  -5 3.282365819289591 0  -5.145216032477803 3.290432064955606 0  -5.307202026555593 3.307202026555593 0  -5.290432064955606 3.145216032477803 0  -5.282365819289591 3 0  -4.333766379651045 2.833441594912761 0  -4.53298653844741 3 0  -4.709567935044394 3.145216032477803 0  -4.854783967522197 3.290432064955606 0  -5 3.46701346155259 0  -5.157510222405766 3.4725306672173 0  -5.324063360998096 3.486095041497144 0  -5.502527289261036 3.502527289261036 0  -5.486095041497144 3.324063360998096 0  -5.472530667217299 3.157510222405767 0  -5.46701346155259 3 0  -4.337821582145233 3 0  -4.527469332782701 3.157510222405767 0  -4.692797973444407 3.307202026555593 0  -4.842489777594234 3.4725306672173 0  -5 3.662178417854767 0  -5.166558405087239 3.666233620348955 0  -5.338496081192906 3.676992162385812 0  -5.518611745475869 3.691482327301159 0  -5.707106781186743 3.707106781186743 0  -5.691482327301159 3.518611745475869 0  -5.676992162385812 3.338496081192906 0  -5.666233620348955 3.166558405087239 0  -5.662178417854767 3 0  -4.333766379651045 3.166558405087239 0  -4.513904958502856 3.324063360998096 0  -4.675936639001904 3.486095041497144 0  -4.833441594912761 3.666233620348955 0  -4.323007837614188 3.338496081192906 0  -4.497472710738964 3.502527289261036 0  -4.661503918807094 3.676992162385812 0  -4.308517672698841 3.518611745475869 0  -4.481388254524131 3.691482327301159 0  -4.292893218813257 3.707106781186743 0  5 4 0  5 3.8125 0  4.853886151115923 4 0  5 3.625 0  4.80632430795117 3.775436298854279 0  4.707772302231846 4 0  4.79366141355045 3.578587735402333 0  4.673383251713283 3.680732660129706 0  4.561658453347769 3.792168701394072 0  4.56165845334777 4 0  5 3.4375 0  4.600014989010139 3.541027542505437 0  4.789717798409911 3.381371727615638 0  5 3.25 0  4.458472067662114 3.674611746363634 0  4.342487680021653 3.850039194045292 0  4.415544604463692 4 0  4.407847296295088 3.526611069368785 0  4.609194292726674 3.359404168011995 0  4.643840673849824 3.180879833384543 0  4.832283973092349 3.162038632311764 0  5 3.0625 0  4.302631777076505 3.688060601225307 0  4.165321303746107 3.8166374852
[...]
<CellData  Scalars="f_6716"> 
<DataArray  type="Float64"  Name="f_6716"  format="ascii">2.3176589915262200e-01   2.3146832357504277e-01   2.3146832357504268e-01   2.3243958695846320e-01   2.1533742438637871e-01   2.3265130630384381e-01   2.2639948548988645e-01   2.2374072828275221e-01   2.1533742438636705e-01   2.2639948548988645e-01   2.3265130630384437e-01   2.2374072828276456e-01   2.3155311629436179e-01   2.3519918701521558e-01   2.3155311629436179e-01   2.3454034584078753e-01   2.0710678118655115e-01   2.1508454529570198e-01   2.1508454529570228e-01   2.3614758639076100e-01   2.0806632924797652e-01   2.3106366304382475e-01   2.0991831524748675e-01   2.2006446554340692e-01   2.0806632924798218e-01   2.0991831524747326e-01   2.3106366304382434e-01   2.2006446554339379e-01   2.2922542571825738e-01   2.3800920879523349e-01   2.2922542571827492e-01   2.3780434379697896e-01   2.0143595574148374e-01   1.9024543863443028e-01   1.9991202556722146e-01   1.9192278500074436e-01   1.8296385375392268e-01   1.8039228766410906e-01   1.8441595198958594e-01   1.8145563545211185e-01   1.9215208208084456e-01   1.9757069164106769e-01   1.7759233135596431e-01   1.7498304652447688e-01   1.8321915963814736e-01   1.7815244776613245e-01   1.8558707691021320e-01   1.8510290538362248e-01   2.0143595574147874e-01   1.9991202556720944e-01   1.9024543863442803e-01   1.9192278500075594e-01   1.9215208208084467e-01   1.7759233135597055e-01   1.9757069164108210e-01   1.7498304652446942e-01   1.8296385375392496e-01   1.8441595198958616e-01   1.8039228766409901e-01   1.8145563545210958e-01   1.8558707691021331e-01   1.7815244776613248e-01   1.8321915963814250e-01   1.8510290538362775e-01   2.0143595574148404e-01   1.9991202556719720e-01   1.9024543863443028e-01   1.9192278500075011e-01   1.9215208208082185e-01   1.7759233135595826e-01   1.9757069164106775e-01   1.7498304652446953e-01   1.8296385375392674e-01   1.8441595198958574e-01   1.8039228766410412e-01   1.8145563545211180e-01   1.8558707691020082e-01   1.7815244776611594e-01   1.8321915963815250e-01   1.8510290538362228e-01   2.0143595574147272e-01   1.9024543863442012e-01   1.9991202556722146e-01   1.9192278500074991e-01   1.8296385375392668e-01   1.8039228766410406e-01   1.8441595198958594e-01   1.8145563545210225e-01   1.9215208208082185e-01   1.9757069164106758e-01   1.7759233135595812e-01   1.7498304652446925e-01   1.8321915963814220e-01   1.7815244776612701e-01   1.8558707691021317e-01   1.8510290538362251e-01   2.3176589915261031e-01   2.3146832357505484e-01   2.3146832357505492e-01   2.3243958695846320e-01   2.1533742438637890e-01   2.3265130630384437e-01   2.2639948548988645e-01   2.2374072828273986e-01   2.1533742438637871e-01   2.2639948548987412e-01   2.3265130630384381e-01   2.2374072828273986e-01   2.3155311629437395e-01   2.3519918701522877e-01   2.3155311629437395e-01   2.3454034584076114e-01   2.0710678118652384e-01   2.1508454529568444e-01   2.1508454529571983e-01   2.3614758639076100e-01   2.0806632924795213e-01   2.3106366304382425e-01   2.0991831524747326e-01   2.2006446554339379e-01   2.0806632924797652e-01   2.0991831524747281e-01   2.3106366304379672e-01   2.2006446554342057e-01   2.2922542571825746e-01   2.3800920879524975e-01   2.2922542571825738e-01   2.3780434379699525e-01   2.0143595574146206e-01   1.9024543863444074e-01   1.9991202556720897e-01   1.9192278500072757e-01   1.8296385375392732e-01   1.8039228766410370e-01   1.8441595198958574e-01   1.8145563545211166e-01   1.9215208208079826e-01   1.9757069164106775e-01   1.7759233135597075e-01   1.7498304652448451e-01   1.8321915963815288e-01   1.7815244776613801e-01   1.8558707691022550e-01   1.8510290538362240e-01   2.0143595574148374e-01   1.9991202556720963e-01   1.9024543863444016e-01   1.9192278500074980e-01   1.9215208208084439e-01   1.7759233135597075e-01   1.9757069164106700e-01   1.7498304652448410e-01   1.8296385375392729e-01   1.8441595198958577e-01   1.8039228766408352e-01   1.8145563545211177e-01   1.8558707691022622e-01   1.7815244776613803e-01   1.8321915963813171e-01   1.8510290538364446e-01   2.0143595574146173e-01   1.9991202556723367e-01   1.9024543863439977e-01   1.9192278500074991e-01   1.9215208208084475e-01   1.7759233135597052e-01   1.9757069164106758e-01   1.7498304652445415e-01   1.8296385375390833e-01   1.8441595198958574e-01   1.8039228766410392e-01   1.8145563545211180e-01   1.8558707691022569e-01   1.7815244776611605e-01   1.8321915963813193e-01   1.8510290538362251e-01   2.0143595574150575e-01   1.9024543863444046e-01   1.9991202556723367e-01   1.9192278500072754e-01   1.8296385375390833e-01   1.8039228766412416e-01   1.8441595198958574e-01   1.8145563545207327e-01   1.9215208208089046e-01   1.9757069164106758e-01   1.7759233135597050e-01   1.7498304652445415e-01   1.8321915963813193e-01   1.7815244776613812e-01   1.8558707691020065e-01   1.8510290538360072e-01   2.3176589915263310e-01   2.3146832357503053e-01   2.3146832357493319e-01   2.3243958695841596e-01   2.1533742438644968e-01   2.3265130630381592e-01   2.2639948548994798e-01   2.2374072828278899e-01   2.1533742438644968e-01   2.2639948548994798e-01   2.3265130630381592e-01   2.2374072828269004e-01   2.3155311629437378e-01   2.3519918701520232e-01   2.3155311629437378e-01   2.3454034584083988e-01   2.0710678118641612e-01   2.1508454529571980e-01   2.1508454529586277e-01   2.3614758639081285e-01   2.0806632924790408e-01   2.3106366304379680e-01   2.0991831524744542e-01   2.2006446554344880e-01   2.0806632924790408e-01   2.0991831524744542e-01   2.3106366304379680e-01   2.2006446554333953e-01   2.2922542571829260e-01   2.3800920879528217e-01   2.2922542571829260e-01   2.3780434379696280e-01   2.0143595574150575e-01   1.9024543863444029e-01   1.9991202556723356e-01   1.9192278500081683e-01   1.8296385375387217e-01   1.8039228766412349e-01   1.8441595198958538e-01   1.8145563545203422e-01   1.9215208208088949e-01   1.9757069164112512e-01   1.7759233135597130e-01   1.7498304652445376e-01   1.8321915963821436e-01   1.7815244776611605e-01   1.8558707691020088e-01   1.8510290538360097e-01   2.0143595574150575e-01   1.9991202556733220e-01   1.9024543863452106e-01   1.9192278500072757e-01   1.9215208208088949e-01   1.7759233135597130e-01   1.9757069164100888e-01   1.7498304652445376e-01   1.8296385375401919e-01   1.8441595198958538e-01   1.8039228766412346e-01   1.8145563545211130e-01   1.8558707691020146e-01   1.7815244776611605e-01   1.8321915963813115e-01   1.8510290538368790e-01   2.0143595574150575e-01   1.9991202556723450e-01   1.9024543863443968e-01   1.9192278500081711e-01   1.9215208208088949e-01   1.7759233135587402e-01   1.9757069164100888e-01   1.7498304652445376e-01   1.8296385375394572e-01   1.8441595198958538e-01   1.8039228766412346e-01   1.8145563545211132e-01   1.8558707691020146e-01   1.7815244776611605e-01   1.8321915963813115e-01   1.8510290538368790e-01   2.0143595574132964e-01   1.9024543863435825e-01   1.9991202556723450e-01   1.9192278500081711e-01   1.8296385375394572e-01   1.8039228766412349e-01   1.8441595198958538e-01   1.8145563545211132e-01   1.9215208208107251e-01   1.9757069164100888e-01   1.7759233135606858e-01   1.7498304652445376e-01   1.8321915963813115e-01   1.7815244776611605e-01   1.8558707691020146e-01   1.8510290538360072e-01   2.3176589915263351e-01   2.3146832357503092e-01   2.3146832357503011e-01   2.3243958695841638e-01   2.1533742438635442e-01   2.3265130630381656e-01   2.2639948548989874e-01   2.2374072828278915e-01   2.1533742438640280e-01   2.2639948548989874e-01   2.3265130630392730e-01   2.2374072828273969e-01   2.3155311629437433e-01   2.3519918701520232e-01   2.3155311629437336e-01   2.3454034584073455e-01   2.0710678118663389e-01   2.1508454529571952e-01   2.1508454529572044e-01   2.3614758639071010e-01   2.0806632924795260e-01   2.3106366304385220e-01   2.0991831524744542e-01   2.2006446554344861e-01   2.0806632924799978e-01   2.0991831524750107e-01   2.3106366304385331e-01   2.2006446554344861e-01   2.2922542571829188e-01   2.3800920879521703e-01   2.2922542571829307e-01   2.3780434379696255e-01   2.0143595574150575e-01   1.9024543863443996e-01   1.9991202556723406e-01   1.9192278500072743e-01   1.8296385375392701e-01   1.8039228766408336e-01   1.8441595198958538e-01   1.8145563545211141e-01   1.9215208208079865e-01   1.9757069164100888e-01   1.7759233135597099e-01   1.7498304652451424e-01   1.8321915963813154e-01   1.7815244776611605e-01   1.8558707691020115e-01   1.8510290538364446e-01   2.0143595574150575e-01   1.9991202556723414e-01   1.9024543863439980e-01   1.9192278500077245e-01   1.9215208208079826e-01   1.7759233135597086e-01   1.9757069164106758e-01   1.7498304652445404e-01   1.8296385375392701e-01   1.8441595198958588e-01   1.8039228766416424e-01   1.8145563545215021e-01   1.8558707691020096e-01   1.7815244776607195e-01   1.8321915963817312e-01   1.8510290538364421e-01   2.0143595574146173e-01   1.9991202556723414e-01   1.9024543863439944e-01   1.9192278500081722e-01   1.9215208208088977e-01   1.7759233135597086e-01   1.9757069164112573e-01   1.7498304652445404e-01   1.8296385375394542e-01   1.8441595198958574e-01   1.8039228766412371e-01   1.8145563545203458e-01   1.8558707691015092e-01   1.7815244776616015e-01   1.8321915963809027e-01   1.8510290538360061e-01   2.0143595574146173e-01   1.9024543863448065e-01   1.9991202556718524e-01   1.9192278500072743e-01   1.8296385375390864e-01   1.8039228766408336e-01   1.8441595198958538e-01   1.8145563545211141e-01   1.9215208208079865e-01   1.9757069164112512e-01   1.7759233135597099e-01   1.7498304652445393e-01   1.8321915963813154e-01   1.7815244776620426e-01   1.8558707691020115e-01   1.8510290538360083e-01   2.6684446985940252e-01   2.5075301108393061e-01   2.4272188191907310e-01   1.9643291150359671e-01   2.2631890367848370e-01   2.6726572850560587e-01   2.5425104963395906e-01   2.3897235261826497e-01   2.5557856489716485e-01   2.5146234251600780e-01   2.2927890808795953e-01   2.1042323102945049e-01   2.4905087264330147e-01   2.3916375090312525e-01   2.4775138581390238e-01   2.3233180636511216e-01   2.3632786356475968e-01   2.4519771048707173e-01   2.6630492695323349e-01   2.1066339045229154e-01   2.1432125353228162e-01   2.2971666605718633e-01   2.5180073780220213e-01   1.8942873242955335e-01   2.3103954059654991e-01   2.6908700352483506e-01   2.4771223031766335e-01   2.0704292510020814e-01   2.3454766046036726e-01   2.1725376799217452e-01   2.5966783654854181e-01   2.0357693864536133e-01   2.6745116034626942e-01   2.5611442310639304e-01   2.6367785807770311e-01   2.2459286844816953e-01   2.5700115043193156e-01   2.4086603418774796e-01   2.1493858897695695e-01   2.7159170489706652e-01   2.0752912601895782e-01   2.5257085639473814e-01   2.3286231854729050e-01   2.8449409496637457e-01   2.6299247014099786e-01   2.3207361514214767e-01   2.1825381801501281e-01   2.0002942443827804e-01   2.7323382727116236e-01   2.0837622951064991e-01   2.5126035847821038e-01   2.8076195506681484e-01   1.9751663567504726e-01   2.1615334628308652e-01   2.7230962805587888e-01   2.0735182552078410e-01   2.7405544962788048e-01   2.4099988555807064e-01   2.1066339045230809e-01   2.2582592138128740e-01   2.1432125353227266e-01   2.3070510250794335e-01   2.5044060079165653e-01   2.1851715877266084e-01   2.5125320795495937e-01   2.1440296965200925e-01   2.3159322446685124e-01   1.9641011105300865e-01   2.7383299390817312e-01   1.6768202815762898e-01   2.7304677095895064e-01   1.6784813816579269e-01   2.3094022904003517e-01   2.2947199147067610e-01   2.4809067818313518e-01   2.3392092288852936e-01   2.5084262665659390e-01   2.8454637747934403e-01   2.2866463395794701e-01   2.4739045917588418e-01   2.0039597801874784e-01   2.3858531204870298e-01   2.2320701522794451e-01   2.2354071171487791e-01   2.2354071171491743e-01   2.3223352831523439e-01   2.7643716681260033e-01   2.5172883152024117e-01   2.1653409423852188e-01   2.1905523156838091e-01   2.2959481006379659e-01   1.8304185757595906e-01   2.0013159799364277e-01   1.9175936545760069e-01   1.9624780750898912e-01   2.6569302159476577e-01   2.2011574937420389e-01   2.4793666994556887e-01   2.1313571058649905e-01   1.9757124904330889e-01   2.6227732519843444e-01   2.4308344988659228e-01   2.4175679735013442e-01   2.6333139985350179e-01   2.4433915352993502e-01   2.3071369703818484e-01   2.0765665061849015e-01   2.3669325331040600e-01   2.2454444363128181e-01   2.3364272242972403e-01   2.7240480077985940e-01   2.4532246242031891e-01   2.6019971420430621e-01   2.6766456899610003e-01   2.3129279330867547e-01   2.0453421220100848e-01   2.5123368963619908e-01   2.7983909701029114e-01   2.5829324654884900e-01   2.4246156653338333e-01   1.8159466865098972e-01   2.5090302376184481e-01   2.4750303234016982e-01   2.4532035209808378e-01   2.3409508463119058e-01   2.7321411313935756e-01   2.3001041698571928e-01   2.2779933543348765e-01   2.7685402703528528e-01   2.8510494347995724e-01   2.1202520116953910e-01   2.7019709469522352e-01   1.5506984258345013e-01   2.5297626958092578e-01   2.6130511913466070e-01   2.4234169423379764e-01   2.4883675827491558e-01   2.4022809739509265e-01   2.0531382782638705e-01   2.4127618488426697e-01   2.4375592103201332e-01   2.7493819787406926e-01   2.3584702239890512e-01   1.9376067012961160e-01   2.4417949630167515e-01   2.3789404956801979e-01   2.6230580525691843e-01   2.3686376086014385e-01   2.4827053340955144e-01   2.1972439082185902e-01   2.7441891160051080e-01   2.1814759151004195e-01   1.7349695425247827e-01   2.6368299490029101e-01   2.1250150647496804e-01   2.3230788445916742e-01   2.1783397430915183e-01   2.3979595370456813e-01   2.3147342128575457e-01   2.0760762941680505e-01   1.8427868051185467e-01   2.2705611358574745e-01   2.2449096383428280e-01   2.1113042791832068e-01   1.9908068625540565e-01   2.2969901414555138e-01   2.5927495129390637e-01   2.4179203510460576e-01   2.5483859614821408e-01   2.5287790227597157e-01   2.7458895351994594e-01   2.2242380078048746e-01   2.2208620797588302e-01   2.4676587951823023e-01   2.7232984401063076e-01   2.4359053450908541e-01   2.1780088774998255e-01   2.1062390514463475e-01   2.2754383208647352e-01   2.5013610839385092e-01   2.1686757216800354e-01   2.3496767712630184e-01   2.5264395620257041e-01   2.3986087675746035e-01   2.5134716068807017e-01   2.5832995197478786e-01   2.7944545833881651e-01   2.1037892035816161e-01   1.9306108461508373e-01   1.8466222307417371e-01   2.6874025018371811e-01   2.6823794378077992e-01   2.2579703051020655e-01   2.0818404218453018e-01   2.3716075321969199e-01   2.2474320266773853e-01   2.3476943518201232e-01   2.4552913819376293e-01   2.7381010790507854e-01   2.1585949385423062e-01   2.4318347740699384e-01   2.2989906180253272e-01   2.5553211389280350e-01   2.6403497340479748e-01   2.0885138176815460e-01   2.0769310638406993e-01   1.7403014475770748e-01   2.0936332276024516e-01   2.6272643261742357e-01   2.6108323836991348e-01   1.9306108461503085e-01   2.7419754173597455e-01   2.2272115538735177e-01   2.4922759400471270e-01   1.8508470639616972e-01   1.9847689541495955e-01   2.2561832293339962e-01   1.9972558148253539e-01   2.5299382847546348e-01   2.5290748186342576e-01   2.0718286322060628e-01   2.1250150647496804e-01   2.1809433968526756e-01   2.1231155301893351e-01   2.4982429717756932e-01   2.7928213782536743e-01   2.0477366684594731e-01   2.7560538176309829e-01   2.0508363200485438e-01   2.1961225350890576e-01   2.2561695828543732e-01   2.3995748824191454e-01   1.8245882693905949e-01   2.3643030258484776e-01   2.7759108719344844e-01   2.3694758185865181e-01   2.3499103281531342e-01   2.5451137152152470e-01   2.1344748158533214e-01   2.7815328379095910e-01   2.3635888863415244e-01   2.2716612135187186e-01   2.5467755979969187e-01   2.2793429992282455e-01   2.3597756709685583e-01   2.2207044428163708e-01   1.9349152706117095e-01   2.7134233332437713e-01   2.5603158562660883e-01   2.1603039130739990e-01   2.1492508103087704e-01   2.5297626958092534e-01   2.6196699695047310e-01   2.7829399573559543e-01   2.5423648321482306e-01   2.2265651348241769e-01   2.0202058943527226e-01   2.3895674761687738e-01   2.7433974305403191e-01   2.7949748748094205e-01   2.4296091717994478e-01   2.4691504576203485e-01   1.8218143572819137e-01   2.4960194237622557e-01   2.7029369722616570e-01   2.3864770116805045e-01   2.3225155743340167e-01   1.7943161098899760e-01   2.4081024689891614e-01   2.2159879156296314e-01   2.3776538036626235e-01   2.3260442940220968e-01   2.2909327583503411e-01   1.9469020487194666e-01   2.0942568935465986e-01   2.4134565213051204e-01   2.3727194506280497e-01   2.1920694197661350e-01   2.4115653937352552e-01   2.3738855346354820e-01   2.0474148256031727e-01   2.1265502881653087e-01   2.7110952906928276e-01   2.4821650330155007e-01   2.5128786693426297e-01   2.4408440972825940e-01   1.5824210699399530e-01   2.2522498735558513e-01   2.6517470993716907e-01   2.5764386714142251e-01   2.3106995586018578e-01   2.4663444203919691e-01   2.2159879156297776e-01   1.9570593409114964e-01   2.3797174719167730e-01   2.5527464910330266e-01   2.7697522008184478e-01   2.2522381553725243e-01   2.2210350198864021e-01   2.1145505421730454e-01   2.2446461800899400e-01   2.2724335353221231e-01   2.0300555645233950e-01   2.5744253057031563e-01   2.8122216677716122e-01   2.0158707650569213e-01   2.1608506871071365e-01   2.7206567717459457e-01   2.1033955528307396e-01   1.7153611461154447e-01   2.3108326064255899e-01   2.7499399478871867e-01   2.1953533757674934e-01   1.7849709698932978e-01   2.3350603317171081e-01   2.1496920889398413e-01   2.1329441100999835e-01   2.1261016982987788e-01   2.1428393315713842e-01   2.6535950057323815e-01   2.7429173888907532e-01   2.5793048469991203e-01   2.0174529791391149e-01   2.0477366684590767e-01   2.3738855346354831e-01   2.7854314748094217e-01   2.4485494773006553e-01   2.1816957584899888e-01   1.9400282252105663e-01   1.6621850630218121e-01   2.3540759184772736e-01   1.7683457836412192e-01   2.5096152630850843e-01   2.1177679037065350e-01   2.6037324439817089e-01   2.2091111049816065e-01   2.5536780259899422e-01   2.3407726429753112e-01   2.1664095319866913e-01   2.5212475550310337e-01   2.7605883303615913e-01   2.2962621927554275e-01   2.1373725092034304e-01   2.7548704477704927e-01   2.6707614513933392e-01   2.4376033534220995e-01   1.5585496808142807e-01   2.0999792265840084e-01   2.4992029247681244e-01   2.1927605798307903e-01   2.2553460592586111e-01   1.8185802171501989e-01   2.6673888889127284e-01   1.5093468461484671e-01   1.8942873242955358e-01   2.8707505461092625e-01   2.3473292100852344e-01   1.9254966250109676e-01   1.9469020487194674e-01   2.4759199363998333e-01   2.2778755600149392e-01   2.4855607719063988e-01   2.4782085938572782e-01   2.5273118512433029e-01   2.4581902637096797e-01   2.4755919084321415e-01   1.7070696920413159e-01   2.2165454588015862e-01   2.2438199735212230e-01   2.6147208154465768e-01   2.6498942915347634e-01   2.6498942915348844e-01   2.6100740293616426e-01   2.0477366684594259e-01   2.8375420552179659e-01   2.7454910408966615e-01   2.0769725766753058e-01   2.3788267584458805e-01   2.2933161580219347e-01   2.8424150324528052e-01   2.3603718144300909e-01   2.0477702134241921e-01   2.5383568109407451e-01   2.1989328997906155e-01   2.5342462407502769e-01   1.9537484129188684e-01   2.6024553679251472e-01   2.7918163112809818e-01   2.5221818751608854e-01   2.7307819967517810e-01   2.4014146596505881e-01   2.5594535608537144e-01   2.0817100548957893e-01   2.4176099294651590e-01   2.1009836778470717e-01   2.4114803459368114e-01   2.1877129481765695e-01   2.5975658191851198e-01   2.4321568180167785e-01   2.3669901580537564e-01   2.4553942353289843e-01   2.1168111075629531e-01   2.6435012578647238e-01   2.6930669743923835e-01   2.5783123142977399e-01   2.0838685950324790e-01   1.6520398481580123e-01   2.7083725166454825e-01   2.5652276867296303e-01   2.8657433524226850e-01   2.4355433245309854e-01   2.3292334403067866e-01   1.8088842408