<?xml version="1.0"?>
<VTKFile type="UnstructuredGrid"  version="0.1"  >
<UnstructuredGrid>
<Piece  NumberOfPoints="1371" NumberOfCells="2401">
<Points>
<DataArray  type="Float64"  NumberOfComponents="3"  format="ascii">3 0.4118207621415985 0  2.850097571428131 0.4003902857125256 0  3 0.6451325180728931 0  2.685321360221745 0.3706427204434891 0  2.876293965053353 0.62888189516006 0  3 0.8443666535747749 0  2.499093303904763 0.3321244052063501 0  2.726084095315085 0.5891261429726272 0  2.911582771125035 0.8231655422500692 0  3 0.9693365453905908 0  2.292893218813691 0.292893218813691 0  2.542331217136824 0.5423312171368238 0  2.775577275295324 0.7755772752953246 0  2.950052991924517 0.9500529919245165 0  3 1 0  2.33212440520635 0.4990933039047626 0  2.589126142972627 0.7260840953150849 0  2.823165542250069 0.9115827711250346 0  2.969336545390591 1 0  3 1.030663454609409 0  3.049947008075483 1.049947008075483 0  3.030663454609409 1 0  2.370642720443489 0.6853213602217444 0  2.62888189516006 0.8762939650533533 0  2.844366653574775 1 0  2.950052991924517 1.049947008075483 0  3 1.155633346425225 0  3.088417228874965 1.176834457749931 0  3.224422724704676 1.224422724704675 0  3.176834457749931 1.088417228874965 0  3.155633346425225 1 0  2.400390285712525 0.8500975714281314 0  2.645132518072893 1 0  2.823165542250069 1.088417228874965 0  2.911582771125035 1.176834457749931 0  3 1.354867481927107 0  3.123706034946647 1.37111810483994 0  3.273915904684915 1.410873857027373 0  3.457668782863176 1.457668782863176 0  3.410873857027373 1.273915904684915 0  3.37111810483994 1.123706034946647 0  3.354867481927107 1 0  2.411820762141598 1 0  2.62888189516006 1.123706034946647 0  2.775577275295324 1.224422724704675 0  2.876293965053353 1.37111810483994 0  3 1.588179237858402 0  3.149902428571869 1.599609714287475 0  3.314678639778255 1.629357279556511 0  3.500906696095238 1.66787559479365 0  3.707106781186309 1.707106781186309 0  3.66787559479365 1.500906696095238 0  3.629357279556511 1.314678639778255 0  3.599609714287475 1.149902428571869 0  3.588179237858402 1 0  2.400390285712525 1.149902428571869 0  2.589126142972627 1.273915904684915 0  2.726084095315085 1.410873857027373 0  2.850097571428131 1.599609714287475 0  2.370642720443489 1.314678639778255 0  2.542331217136824 1.457668782863176 0  2.685321360221745 1.629357279556511 0  2.33212440520635 1.500906696095238 0  2.499093303904762 1.66787559479365 0  2.292893218813691 1.707106781186309 0  2 4.588179237858402 0  1.850097571428131 4.599609714287475 0  2 4.354867481927107 0  1.685321360221745 4.629357279556511 0  1.876293965053353 4.37111810483994 0  2 4.155633346425225 0  1.499093303904763 4.667875594793649 0  1.726084095315085 4.410873857027373 0  1.911582771125035 4.176834457749931 0  2 4.030663454609409 0  1.292893218813691 4.707106781186309 0  1.542331217136824 4.457668782863176 0  1.775577275295325 4.224422724704676 0  1.950052991924517 4.049947008075484 0  2 4 0  1.33212440520635 4.500906696095237 0  1.589126142972627 4.273915904684915 0  1.823165542250069 4.088417228874965 0  1.969336545390591 4 0  2 3.969336545390591 0  2.049947008075483 3.950052991924517 0  2.030663454609409 4 0  1.370642720443489 4.314678639778256 0  1.62888189516006 4.123706034946647 0  1.844366653574775 4 0  1.950052991924517 3.950052991924517 0  2 3.844366653574775 0  2.088417228874965 3.823165542250069 0  2.224422724704676 3.775577275295324 0  2.176834457749931 3.911582771125035 0  2.155633346425225 4 0  1.400390285712525 4.149902428571869 0  1.645132518072893 4 0  1.823165542250069 3.911582771125035 0  1.911582771125035 3.823165542250069 0  2 3.645132518072893 0  2.123706034946647 3.62888189516006 0  2.273915904684915 3.589126142972627 0  2.457668782863176 3.542331217136824 0  2.410873857027373 3.726084095315085 0  2.37111810483994 3.876293965053353 0  2.354867481927107 4 0  1.411820762141598 4 0  1.62888189516006 3.876293965053353 0  1.775577275295325 3.775577275295324 0  1.876293965053353 3.62888189516006 0  2 3.411820762141598 0  2.149902428571869 3.400390285712525 0  2.314678639778255 3.370642720443489 0  2.500906696095238 3.33212440520635 0  2.707106781186309 3.292893218813691 0  2.66787559479365 3.499093303904762 0  2.629357279556511 3.685321360221745 0  2.599609714287475 3.850097571428131 0  2.588179237858402 4 0  1.400390285712525 3.850097571428131 0  1.589126142972627 3.726084095315085 0  1.726084095315085 3.589126142972627 0  1.850097571428131 3.400390285712525 0  1.370642720443489 3.685321360221745 0  1.542331217136824 3.542331217136824 0  1.685321360221745 3.370642720443489 0  1.33212440520635 3.499093303904762 0  1.499093303904762 3.33212440520635 0  1.292893218813691 3.292893218813691 0  -6 5.588179237858402 0  -5.850097571428131 5.599609714287475 0  -6 5.354867481927107 0  -5.685321360221745 5.629357279556511 0  -5.876293965053353 5.37111810483994 0  -6 5.155633346425225 0  -5.499093303904763 5.667875594793649 0  -5.726084095315085 5.410873857027373 0  -5.911582771125035 5.176834457749931 0  -6 5.030663454609409 0  -5.292893218813691 5.707106781186309 0  -5.542331217136824 5.457668782863176 0  -5.775577275295324 5.224422724704676 0  -5.950052991924516 5.049947008075484 0  -6 5 0  -5.332124405206351 5.500906696095237 0  -5.589126142972627 5.273915904684915 0  -5.823165542250069 5.088417228874965 0  -5.969336545390591 5 0  -6 4.969336545390591 0  -6.049947008075484 4.950052991924516 0  -6.030663454609409 5 0  -5.370642720443489 5.314678639778256 0  -5.62888189516006 5.123706034946647 0  -5.844366653574775 5 0  -5.950052991924516 4.950052991924516 0  -6 4.844366653574775 0  -6.088417228874965 4.823165542250069 0  -6.224422724704676 4.775577275295324 0  -6.176834457749931 4.911582771125035 0  -6.155633346425225 5 0  -5.400390285712525 5.149902428571869 0  -5.645132518072893 5 0  -5.823165542250069 4.911582771125035 0  -5.911582771125035 4.823165542250069 0  -6 4.645132518072893 0  -6.123706034946647 4.62888189516006 0  -6.273915904684915 4.589126142972627 0  -6.457668782863176 4.542331217136824 0  -6.410873857027373 4.726084095315085 0  -6.37111810483994 4.876293965053353 0  -6.354867481927107 5 0  -5.411820762141598 5 0  -5.62888189516006 4.876293965053353 0  -5.775577275295324 4.775577275295324 0  -5.876293965053353 4.62888189516006 0  -6 4.411820762141598 0  -6.149902428571869 4.400390285712525 0  -6.314678639778256 4.370642720443489 0  -6.500906696095237 4.332124405206351 0  -6.707106781186309 4.292893218813691 0  -6.667875594793649 4.499093303904763 0  -6.629357279556511 4.685321360221744 0  -6.599609714287475 4.850097571428131 0  -6.588179237858402 5 0  -5.400390285712525 4.850097571428131 0  -5.589126142972627 4.726084095315085 0  -5.726084095315085 4.589126142972627 0  -5.850097571428131 4.400390285712525 0  -5.370642720443489 4.685321360221744 0  -5.542331217136824 4.542331217136824 0  -5.685321360221744 4.370642720443489 0  -5.332124405206351 4.499093303904763 0  -5.499093303904763 4.332124405206351 0  -5.292893218813691 4.292893218813691 0  -5 2.411820762141598 0  -4.850097571428131 2.400390285712525 0  -5 2.645132518072893 0  -4.685321360221745 2.370642720443489 0  -4.876293965053353 2.62888189516006 0  -5 2.844366653574775 0  -4.499093303904763 2.33212440520635 0  -4.726084095315085 2.589126142972627 0  -4.911582771125035 2.823165542250069 0  -5 2.969336545390591 0  -4.292893218813691 2.292893218813691 0  -4.542331217136824 2.542331217136824 0  -4.775577275295324 2.775577275295324 0  -4.950052991924516 2.950052991924517 0  -5 3 0  -4.332124405206351 2.499093303904762 0  -4.589126142972627 2.726084095315085 0  -4.823165542250069 2.911582771125035 0  -4.969336545390591 3 0  -5 3.030663454609409 0  -5.049947008075484 3.049947008075483 0  -5.030663454609409 3 0  -4.370642720443489 2.685321360221745 0  -4.62888189516006 2.876293965053353 0  -4.844366653574775 3 0  -4.950052991924516 3.049947008075483 0  -5 3.155633346425225 0  -5.088417228874965 3.176834457749931 0  -5.224422724704676 3.224422724704676 0  -5.176834457749931 3.088417228874965 0  -5.155633346425225 3 0  -4.400390285712525 2.850097571428131 0  -4.645132518072893 3 0  -4.823165542250069 3.088417228874965 0  -4.911582771125035 3.176834457749931 0  -5 3.354867481927107 0  -5.123706034946647 3.37111810483994 0  -5.273915904684915 3.410873857027373 0  -5.457668782863176 3.457668782863176 0  -5.410873857027373 3.273915904684915 0  -5.37111810483994 3.123706034946647 0  -5.354867481927107 3 0  -4.411820762141598 3 0  -4.62888189516006 3.123706034946647 0  -4.775577275295324 3.224422724704676 0  -4.876293965053353 3.37111810483994 0  -5 3.588179237858402 0  -5.149902428571869 3.599609714287475 0  -5.314678639778256 3.629357279556511 0  -5.500906696095237 3.66787559479365 0  -5.707106781186309 3.707106781186309 0  -5.667875594793649 3.500906696095238 0  -5.629357279556511 3.314678639778255 0  -5.599609714287475 3.149902428571869 0  -5.588179237858402 3 0  -4.400390285712525 3.149902428571869 0  -4.589126142972627 3.273915904684915 0  -4.726084095315085 3.410873857027373 0  -4.850097571428131 3.599609714287475 0  -4.370642720443489 3.314678639778255 0  -4.542331217136824 3.457668782863176 0  -4.685321360221744 3.629357279556511 0  -4.332124405206351 3.500906696095238 0  -4.499093303904763 3.66787559479365 0  -4.292893218813691 3.707106781186309 0  5 1 0  5 1.1875 0  4.828669659944564 1.039334829972282 0  5 1.375 0  4.799955282837507 1.28125 0  4.657339319889128 1.078669659944564 0  4.820634918236892 1.506417692786598 0  4.6452355475728 1.438948303365132 0  4.608183587928194 1.257360882676231 0  4.486008979833692 1.118004489916846 0  5 1.5625 0  4.747895110462368 1.679697749640207 0  5 1.75 0  4.573762165742714 1.611688335159911 0  4.356652757945501 1.442880316242406 0  4.314678639778256 1.157339319889128 0  4.702758856255141 1.9375 0  4.42396586971011 1.723530333486135 0  4.232041642026576 1.621165377692019 0  4.149300793242634 1.407019981108342 0  4.143348299722819 1.19667414986141 0  5 1.9375 0  4.761477544891046 
[...]
<CellData  Scalars="f_7397"> 
<DataArray  type="Float64"  Name="f_7397"  format="ascii">2.6458123069105655e-01   2.6702590902325696e-01   2.6702590902324463e-01   2.6935276764167565e-01   2.1565269824295805e-01   2.5650670478592819e-01   2.5026420905058955e-01   2.3675260667747894e-01   2.1565269824296934e-01   2.5026420905058944e-01   2.5650670478592780e-01   2.3675260667749157e-01   2.6938785040896518e-01   2.8789745830438729e-01   2.6938785040896535e-01   2.8454406741189653e-01   2.0710678118636125e-01   1.6908001175149140e-01   1.6908001175149129e-01   2.6354828473445474e-01   1.9003127826293537e-01   2.4121767090132365e-01   1.8083548583903411e-01   2.2652706360198807e-01   1.9003127826292943e-01   1.8083548583901651e-01   2.4121767090132387e-01   2.2652706360198843e-01   2.3049480097944605e-01   2.7263087225332300e-01   2.3049480097944594e-01   2.8257537442673497e-01   1.8170463541256812e-01   1.5974835147303973e-01   1.7327187859458720e-01   1.5115271253370746e-01   1.5189777105411131e-01   1.3594305904869822e-01   1.5103844314232001e-01   1.4287907022745630e-01   1.4003109080998913e-01   1.6725162798495269e-01   1.1944423922345837e-01   9.1763485234272552e-02   1.3899810608929222e-01   1.2118070164261578e-01   1.2316987441932165e-01   1.4278816159038388e-01   1.8170463541256845e-01   1.7327187859458670e-01   1.5974835147304581e-01   1.5115271253369802e-01   1.4003109080982684e-01   1.1944423922346527e-01   1.6725162798495261e-01   9.1763485234301653e-02   1.5189777105411451e-01   1.5103844314232026e-01   1.3594305904870199e-01   1.4287907022745308e-01   1.2316987441932135e-01   1.2118070164261102e-01   1.3899810608928853e-01   1.4278816159038385e-01   1.8170463541257292e-01   1.7327187859458054e-01   1.5974835147304353e-01   1.5115271253370274e-01   1.4003109080998954e-01   1.1944423922347212e-01   1.6725162798495244e-01   9.1763485234301542e-02   1.5189777105411459e-01   1.5103844314232329e-01   1.3594305904870196e-01   1.4287907022745283e-01   1.2316987441933476e-01   1.2118070164262511e-01   1.3899810608928423e-01   1.4278816159038391e-01   1.8170463541255427e-01   1.5974835147303598e-01   1.7327187859459334e-01   1.5115271253371224e-01   1.5189777105411456e-01   1.3594305904869439e-01   1.5103844314233023e-01   1.4287907022744584e-01   1.4003109080998943e-01   1.6725162798492579e-01   1.1944423922345843e-01   9.1763485234301709e-02   1.3899810608928440e-01   1.2118070164262515e-01   1.2316987441932159e-01   1.4278816159038388e-01   2.6458123069106798e-01   2.6702590902325729e-01   2.6702590902325696e-01   2.6935276764167565e-01   2.1565269824295805e-01   2.5650670478591026e-01   2.5026420905056390e-01   2.3675260667749157e-01   2.1565269824293548e-01   2.5026420905058955e-01   2.5650670478591070e-01   2.3675260667749157e-01   2.6938785040896535e-01   2.8789745830435565e-01   2.6938785040896518e-01   2.8454406741191252e-01   2.0710678118636125e-01   1.6908001175144322e-01   1.6908001175144330e-01   2.6354828473467534e-01   1.9003127826293525e-01   2.4121767090130652e-01   1.8083548583901651e-01   2.2652706360198843e-01   1.9003127826291197e-01   1.8083548583901585e-01   2.4121767090134097e-01   2.2652706360198807e-01   2.3049480097948530e-01   2.7263087225329319e-01   2.3049480097948541e-01   2.8257537442659769e-01   1.8170463541255447e-01   1.5974835147304323e-01   1.7327187859458054e-01   1.5115271253370274e-01   1.5189777105411451e-01   1.3594305904870196e-01   1.5103844314232368e-01   1.4287907022746690e-01   1.4003109080998827e-01   1.6725162798492604e-01   1.1944423922345854e-01   9.1763485234330824e-02   1.3899810608929197e-01   1.2118070164262486e-01   1.2316987441934817e-01   1.4278816159037455e-01   1.8170463541257276e-01   1.7327187859455545e-01   1.5974835147304403e-01   1.5115271253370272e-01   1.4003109080966356e-01   1.1944423922345872e-01   1.6725162798492577e-01   9.1763485234272635e-02   1.5189777105411459e-01   1.5103844314231030e-01   1.3594305904870188e-01   1.4287907022745339e-01   1.2316987441932123e-01   1.2118070164262487e-01   1.3899810608929264e-01   1.4278816159037444e-01   1.8170463541255427e-01   1.7327187859460583e-01   1.5974835147304367e-01   1.5115271253372189e-01   1.4003109080998943e-01   1.1944423922343073e-01   1.6725162798492579e-01   9.1763485234330838e-02   1.5189777105410146e-01   1.5103844314230963e-01   1.3594305904870221e-01   1.4287907022745280e-01   1.2316987441929497e-01   1.2118070164260643e-01   1.3899810608927649e-01   1.4278816159039304e-01   1.8170463541257276e-01   1.5974835147304367e-01   1.7327187859455587e-01   1.5115271253370260e-01   1.5189777105411442e-01   1.3594305904870221e-01   1.5103844314232337e-01   1.4287907022746668e-01   1.4003109080998943e-01   1.6725162798497956e-01   1.1944423922345823e-01   9.1763485234272593e-02   1.3899810608927649e-01   1.2118070164262512e-01   1.2316987441932159e-01   1.4278816159037475e-01   2.6458123069103318e-01   2.6702590902328366e-01   2.6702590902328366e-01   2.6935276764169858e-01   2.1565269824298117e-01   2.5650670478604981e-01   2.5026420905059005e-01   2.3675260667756814e-01   2.1565269824289091e-01   2.5026420905069230e-01   2.5650670478590981e-01   2.3675260667756823e-01   2.6938785040901625e-01   2.8789745830441743e-01   2.6938785040891611e-01   2.8454406741187960e-01   2.0710678118635975e-01   1.6908001175144299e-01   1.6908001175144299e-01   2.6354828473467073e-01   1.9003127826291227e-01   2.4121767090130511e-01   1.8083548583894379e-01   2.2652706360205707e-01   1.9003127826291227e-01   1.8083548583908970e-01   2.4121767090144364e-01   2.2652706360205707e-01   2.3049480097980218e-01   2.7263087225341043e-01   2.3049480097917249e-01   2.8257537442659958e-01   1.8170463541253581e-01   1.5974835147301295e-01   1.7327187859460541e-01   1.5115271253374124e-01   1.5189777105406260e-01   1.3594305904870216e-01   1.5103844314232423e-01   1.4287907022749510e-01   1.4003109080933743e-01   1.6725162798498008e-01   1.1944423922351376e-01   9.1763485234505837e-02   1.3899810608924495e-01   1.2118070164262459e-01   1.2316987441929468e-01   1.4278816159035596e-01   1.8170463541253581e-01   1.7327187859460541e-01   1.5974835147301356e-01   1.5115271253366414e-01   1.4003109080933743e-01   1.1944423922340373e-01   1.6725162798498008e-01   9.1763485234272787e-02   1.5189777105411442e-01   1.5103844314226925e-01   1.3594305904870216e-01   1.4287907022743968e-01   1.2316987441929468e-01   1.2118070164262459e-01   1.3899810608930865e-01   1.4278816159035596e-01   1.8170463541253581e-01   1.7327187859460541e-01   1.5974835147307453e-01   1.5115271253374124e-01   1.4003109081063675e-01   1.1944423922351376e-01   1.6725162798498008e-01   9.1763485234272787e-02   1.5189777105406263e-01   1.5103844314226936e-01   1.3594305904870216e-01   1.4287907022743968e-01   1.2316987441940118e-01   1.2118070164254971e-01   1.3899810608930827e-01   1.4278816159035596e-01   1.8170463541253581e-01   1.5974835147307453e-01   1.7327187859460541e-01   1.5115271253374124e-01   1.5189777105411442e-01   1.3594305904870216e-01   1.5103844314232423e-01   1.4287907022743968e-01   1.4003109080933743e-01   1.6725162798498008e-01   1.1944423922340373e-01   9.1763485234505837e-02   1.3899810608930827e-01   1.2118070164262458e-01   1.2316987441929465e-01   1.4278816159042901e-01   2.6458123069107925e-01   2.6702590902323214e-01   2.6702590902323281e-01   2.6935276764165311e-01   2.1565269824293604e-01   2.5650670478590981e-01   2.5026420905059027e-01   2.3675260667746706e-01   2.1565269824298061e-01   2.5026420905058933e-01   2.5650670478591081e-01   2.3675260667741577e-01   2.6938785040901581e-01   2.8789745830435498e-01   2.6938785040896596e-01   2.8454406741188015e-01   2.0710678118635975e-01   1.6908001175144288e-01   1.6908001175144335e-01   2.6354828473467257e-01   1.9003127826286512e-01   2.4121767090137533e-01   1.8083548583901676e-01   2.2652706360198874e-01   1.9003127826295904e-01   1.8083548583908948e-01   2.4121767090130547e-01   2.2652706360198827e-01   2.3049480097948608e-01   2.7263087225341098e-01   2.3049480097932917e-01   2.8257537442673575e-01   1.8170463541257276e-01   1.5974835147304403e-01   1.7327187859455545e-01   1.5115271253374124e-01   1.5189777105411451e-01   1.3594305904870216e-01   1.5103844314229645e-01   1.4287907022743948e-01   1.4003109080998838e-01   1.6725162798497956e-01   1.1944423922340355e-01   9.1763485234272635e-02   1.3899810608927679e-01   1.2118070164262486e-01   1.2316987441934786e-01   1.4278816159039270e-01   1.8170463541257276e-01   1.7327187859455589e-01   1.5974835147304395e-01   1.5115271253374118e-01   1.4003109080998816e-01   1.1944423922340343e-01   1.6725162798498008e-01   9.1763485234272718e-02   1.5189777105410140e-01   1.5103844314229614e-01   1.3594305904867199e-01   1.4287907022743912e-01   1.2316987441929504e-01   1.2118070164262490e-01   1.3899810608930832e-01   1.4278816159039281e-01   1.8170463541257276e-01   1.7327187859460583e-01   1.5974835147301261e-01   1.5115271253366402e-01   1.4003109080998816e-01   1.1944423922340340e-01   1.6725162798498008e-01   9.1763485234272718e-02   1.5189777105411437e-01   1.5103844314232373e-01   1.3594305904867196e-01   1.4287907022746690e-01   1.2316987441934830e-01   1.2118070164262490e-01   1.3899810608924465e-01   1.4278816159039281e-01   1.8170463541253581e-01   1.5974835147301325e-01   1.7327187859460541e-01   1.5115271253374124e-01   1.5189777105411451e-01   1.3594305904867193e-01   1.5103844314232390e-01   1.4287907022743948e-01   1.4003109081063803e-01   1.6725162798497956e-01   1.1944423922345858e-01   9.1763485234272649e-02   1.3899810608927682e-01   1.2118070164258744e-01   1.2316987441929460e-01   1.4278816159035618e-01   2.4535385556958902e-01   2.7068316080680721e-01   2.6574435487262288e-01   2.0308682775625236e-01   2.1112109448366945e-01   2.6243316796312133e-01   1.8298691800360412e-01   2.6738720812384037e-01   2.3313791552270532e-01   2.1162611581523566e-01   2.7360982072822665e-01   2.2351879085646184e-01   2.2597401638122974e-01   1.9142535378594416e-01   2.5185008316464497e-01   2.6799727118746625e-01   2.0706511023847646e-01   2.4143306769112202e-01   2.4350107614323324e-01   2.3464226131191343e-01   2.3689816443133274e-01   2.4472814665444961e-01   2.5379568689303128e-01   2.0340564225236099e-01   2.7527639425633099e-01   2.6542513285772185e-01   2.0213091896049085e-01   2.1792111987527804e-01   2.5464673416982830e-01   2.5827790644785897e-01   2.1666056690565549e-01   2.4700680399421299e-01   2.5443059152903935e-01   2.2998014095586153e-01   2.1235402301403861e-01   2.2597401638125642e-01   2.2269044786848624e-01   2.6544827989280628e-01   2.1605441449357196e-01   2.2710324283641845e-01   2.1175350911613208e-01   2.5671618397061263e-01   2.6321108707510732e-01   2.3966256448938053e-01   2.2322097623847995e-01   2.2491249594144616e-01   2.3644895099437535e-01   1.5197708040194238e-01   2.5843065293149203e-01   2.5606102280053267e-01   2.5606102280048920e-01   1.8655835690106692e-01   2.3198412673881333e-01   2.0786273760361826e-01   2.4818418080219251e-01   2.6370281593696004e-01   1.7881019050457717e-01   2.2153596733587902e-01   2.5788563686761068e-01   2.2368116781121558e-01   2.3579084356875527e-01   2.5153995163429971e-01   2.1705530503335554e-01   2.4025146030421185e-01   2.6518491805399658e-01   2.1955017787776435e-01   2.7336259153174486e-01   2.6323538200098395e-01   2.2634169234367049e-01   2.6201212621857656e-01   2.6372438214726485e-01   2.1162611581525168e-01   2.2858824226454780e-01   2.5354385247581068e-01   2.6284243567943849e-01   2.2269196474450761e-01   2.0362833791610382e-01   2.3354893594857395e-01   2.4776836079461129e-01   2.6543858918509605e-01   2.6477150182100817e-01   2.7348115533822825e-01   2.5222582866479226e-01   2.0399971573177123e-01   2.0844358733406562e-01   2.2639274458018416e-01   2.2462838853871356e-01   2.3579113238785820e-01   2.7247242878600891e-01   2.3520221858420423e-01   1.8359348414800719e-01   2.5031261225900303e-01   2.7079515474150817e-01   2.4236638836713836e-01   2.6921131882099131e-01   2.5825308534285041e-01   2.0198350699965478e-01   2.7321777107219164e-01   2.1394569037517430e-01   2.4737769962929626e-01   2.7141979035156677e-01   2.3739210516497594e-01   2.1232019707981886e-01   1.6793284313644902e-01   2.4504767734591751e-01   2.6875719502967893e-01   2.7386128098062401e-01   2.2557831770437531e-01   2.4000064187296041e-01   2.4137638718615601e-01   2.3620778059996270e-01   2.1638099770060623e-01   2.3946343226662339e-01   1.6566876515158582e-01   2.7314134325249895e-01   2.6097453080524829e-01   2.7313588517256160e-01   2.3712479702822614e-01   2.7036002858738689e-01   2.3713433423264121e-01   2.3775385721881598e-01   2.7079515474150812e-01   2.8332133996521180e-01   2.2841361379192246e-01   2.5022851654148215e-01   2.8750689363376003e-01   2.0484248792397761e-01   2.0369164650121671e-01   2.0773159298956956e-01   1.8511436745158397e-01   2.5194118865376630e-01   2.1685406430394338e-01   2.4438460986341123e-01   2.4414272508065052e-01   2.7245428816233186e-01   2.8162033609030551e-01   2.4600433955887344e-01   2.0026834414754816e-01   2.1343469001680845e-01   1.8131457625463812e-01   2.6932986522758251e-01   2.3077383566557361e-01   2.5765234553255334e-01   2.5329070732478015e-01   2.3255479821525557e-01   2.4864549958623366e-01   2.3797348550890118e-01   2.1766233979374466e-01   2.4537574975199600e-01   2.4360144738261816e-01   2.1330826156686755e-01   2.0762927914982343e-01   1.7089320665053515e-01   2.1920296222056498e-01   1.9994727224953424e-01   2.5761735945478320e-01   1.9573631893498047e-01   2.1705530503335635e-01   2.2644244562533783e-01   2.3037684631652924e-01   2.7475516109947612e-01   2.5338584013686188e-01   2.1661386749802319e-01   2.0196557915994753e-01   2.2273447067941998e-01   2.2105168506605233e-01   2.3664599674772305e-01   2.5288296124492265e-01   2.0729011287111537e-01   2.1612047032664244e-01   2.4951617642816140e-01   2.5747184383063437e-01   2.6694797243687124e-01   2.3595423517757244e-01   1.8223074729435892e-01   2.3053989112879511e-01   1.6940065950340125e-01   2.0253583432607875e-01   1.9442408622363863e-01   2.0437215753994714e-01   1.9390382504762785e-01   1.6719867012885439e-01   2.7360289751541800e-01   2.3055661589849780e-01   2.6307186363982038e-01   2.0713265265625808e-01   2.1686360935260318e-01   2.7680830519226640e-01   2.5594835000873079e-01   2.8139851520467607e-01   2.2904348048601778e-01   2.5698760574912100e-01   2.2966649849187590e-01   2.3183992805004375e-01   2.6840736332616227e-01   2.3565025460072098e-01   2.5104391764172679e-01   2.4146898931390590e-01   2.3509569841385111e-01   2.1824176698726191e-01   2.7012137837032091e-01   2.7408454310024688e-01   2.8087749582744914e-01   2.2306444121814631e-01   2.7104140424246959e-01   2.2948041989049814e-01   2.2255192699035134e-01   2.4311619909870402e-01   2.0573155478247640e-01   1.8889639550695309e-01   2.0965516709151258e-01   2.4557037056797765e-01   2.0696909443054837e-01   2.4399553461242190e-01   2.7047903676263202e-01   2.6334108015964064e-01   2.3901756651523781e-01   2.6105459224803379e-01   2.0757612675771353e-01   1.7374675751438873e-01   2.3790906403833945e-01   2.4092372600566106e-01   2.4308097075638463e-01   2.2778032333797216e-01   2.7752877029083678e-01   2.8614848395181469e-01   2.6930760133270421e-01   2.5276563138176289e-01   2.5103870116152605e-01   2.7590170657430330e-01   2.6054691649278744e-01   2.1441445160077277e-01   2.5676900758834342e-01   2.6307186363982038e-01   2.7729593143919057e-01   2.8302731990965396e-01   2.2494923309794687e-01   2.3832933746623453e-01   2.2642936526121787e-01   2.7994928772282462e-01   2.0589452862052585e-01   2.2203690640915108e-01   2.5006749676827317e-01   2.5894344837846811e-01   2.5366803564879814e-01   2.4755298391146538e-01   2.6264582824383825e-01   2.0269205730444506e-01   2.3790906403833947e-01   2.4674097041231050e-01   2.4540269618584182e-01   2.7029092075319638e-01   2.1776466427153088e-01   2.7108756783981630e-01   1.6208441188250053e-01   2.0493242437210951e-01   2.3012482349440566e-01   2.4650939416288875e-01   2.4028799552815225e-01   2.5724425308618959e-01   2.5102714382554081e-01   2.4182919075850118e-01   2.1301308855642107e-01   2.0524762355023279e-01   2.4480630145622626e-01   2.3993674540992008e-01   2.0651952623713632e-01   2.3106209009632045e-01   2.2336247331956918e-01   2.5439699758139001e-01   2.7333346817077558e-01   2.7667845703556909e-01   2.6113407111812587e-01   2.2675388298685703e-01   2.3772815038686171e-01   2.5273905371889510e-01   2.3800857587477656e-01   2.3792254966150303e-01   2.3301687679128785e-01   2.8427978419389704e-01   2.2793581541950017e-01   2.3379646356976116e-01   2.1003768076618412e-01   2.6977276697840424e-01   2.5921093732557249e-01   1.9203435617781942e-01   2.2272014566229101e-01   2.5548325560178503e-01   2.0048704237324638e-01   2.2705947710474311e-01   2.6020606127675439e-01   2.2646506193391761e-01   2.5104070409949159e-01   2.2660780505004416e-01   2.1765154964365444e-01   2.4685001356483555e-01   2.4291927819494472e-01   2.1311304488686800e-01   2.2292303996106799e-01   2.0725618561800646e-01   1.7674091413985998e-01   2.5496454285927261e-01   2.1393559257629585e-01   2.4882646370872757e-01   2.1326081847383296e-01   2.7238344088668104e-01   2.2671698579303567e-01   2.5886259974706888e-01   2.2392561193065214e-01   2.3577350622027979e-01   2.0564501112464445e-01   2.2644244562533783e-01   2.4242746212535995e-01   2.6163401401475456e-01   1.9902442850863314e-01   2.3483565634178738e-01   1.8438284795985641e-01   2.5098598214166984e-01   2.4063272819868334e-01   2.5844731854546760e-01   1.8687521310083371e-01   2.1282313173628312e-01   2.3840675747744206e-01   2.0120802368312204e-01   2.2749359173593767e-01   2.2639274458017974e-01   2.3983209326272326e-01   2.5145876487497970e-01   2.0524762355026371e-01   2.4848002996650126e-01   2.5139236082237570e-01   2.1398465180588946e-01   2.2642936526121779e-01   2.5123991325414757e-01   2.2056209444505750e-01   2.2271618282245831e-01   2.0243963302362356e-01   2.2740778121000402e-01   2.6422660949100568e-01   2.7076397839432076e-01   2.4274573733819999e-01   1.9434238992127720e-01   1.9983269255828323e-01   2.3619430689408491e-01   2.6930269790042838e-01   2.6278820160936067e-01   2.6179019985824975e-01   2.4221420740107988e-01   2.6166470216414162e-01   2.3712471497647239e-01   2.1654559902092194e-01   1.8795254521587479e-01   2.4983829242165839e-01   1.9327231793515365e-01   1.9490083021143775e-01   2.2307022496251896e-01   2.4454714098933042e-01   2.3588534727139740e-01   1.7317539627332723e-01   2.3919736480153786e-01   2.1956437990708255e-01   2.0625199453072307e-01   2.2502167290135061e-01   1.9471233721011599e-01   2.2348965758951930e-01   2.3534225936233788e-01   2.0564444420811595e-01   2.8311857074759833e-01   2.7380620457372801e-01   2.0543442209294935e-01   2.1659451596242899e-01   2.4212884928772940e-01   1.9051512419881270e-01   2.6399184153339439e-01   2.7954871322230940e-01   2.0552872988819848e-01   2.5186353367235198e-01   2.5410952687619770e-01   2.4621218868040537e-01   2.5068563072983752e-01   1.9844704608259028e-01   2.5139236082236238e-01   2.2947138691228131e-01   2.6854035657902875e-01   1.8511436745156828e-01   2.0859462554562141e-01   2.5757669394112037e-01   2.3437037708511949e-01   2.5802793139775393e-01   2.7971126026024512e-01   2.5968672875709087e-01   2.6998148202210126e-01   2.3276430693132244e-01   1.7927570684013502e-01   2.3053989112879505e-01   2.1679996738629345e-01   1.8023407016878998e-01   2.3712479702822403e-01   2.3161962230634103e-01   2.5921093732558453e-01   2.3342290442222777e-01   2.4400576737085802e-01   2.6731763238801104e-01   2.8772030310570745e-01   2.3146134791656875e-01   1.9760151321761002e-01   2.6595672705773771e-01   2.6176802480646616e-01   2.2828487310992221e-01   2.5549691674692987e-01   2.3775385721881834e-01   2.0704280193558011e-01   2.0762927914