<?xml version="1.0"?>
<VTKFile type="UnstructuredGrid"  version="0.1"  >
<UnstructuredGrid>
<Piece  NumberOfPoints="19875" NumberOfCells="38416">
<Points>
<DataArray  type="Float64"  NumberOfComponents="3"  format="ascii">3 0.4118207621415985 0  2.850097571428131 0.4003902857125256 0  3 0.6451325180728931 0  2.685321360221745 0.3706427204434891 0  2.876293965053353 0.62888189516006 0  3 0.8443666535747749 0  2.499093303904763 0.3321244052063501 0  2.726084095315085 0.5891261429726272 0  2.911582771125035 0.8231655422500692 0  3 0.9693365453905908 0  2.292893218813691 0.292893218813691 0  2.542331217136824 0.5423312171368238 0  2.775577275295324 0.7755772752953246 0  2.950052991924517 0.9500529919245165 0  3 1 0  2.33212440520635 0.4990933039047626 0  2.589126142972627 0.7260840953150849 0  2.823165542250069 0.9115827711250346 0  2.969336545390591 1 0  3 1.030663454609409 0  3.049947008075483 1.049947008075483 0  3.030663454609409 1 0  2.370642720443489 0.6853213602217444 0  2.62888189516006 0.8762939650533533 0  2.844366653574775 1 0  2.950052991924517 1.049947008075483 0  3 1.155633346425225 0  3.088417228874965 1.176834457749931 0  3.224422724704676 1.224422724704675 0  3.176834457749931 1.088417228874965 0  3.155633346425225 1 0  2.400390285712525 0.8500975714281314 0  2.645132518072893 1 0  2.823165542250069 1.088417228874965 0  2.911582771125035 1.176834457749931 0  3 1.354867481927107 0  3.123706034946647 1.37111810483994 0  3.273915904684915 1.410873857027373 0  3.457668782863176 1.457668782863176 0  3.410873857027373 1.273915904684915 0  3.37111810483994 1.123706034946647 0  3.354867481927107 1 0  2.411820762141598 1 0  2.62888189516006 1.123706034946647 0  2.775577275295324 1.224422724704675 0  2.876293965053353 1.37111810483994 0  3 1.588179237858402 0  3.149902428571869 1.599609714287475 0  3.314678639778255 1.629357279556511 0  3.500906696095238 1.66787559479365 0  3.707106781186309 1.707106781186309 0  3.66787559479365 1.500906696095238 0  3.629357279556511 1.314678639778255 0  3.599609714287475 1.149902428571869 0  3.588179237858402 1 0  2.400390285712525 1.149902428571869 0  2.589126142972627 1.273915904684915 0  2.726084095315085 1.410873857027373 0  2.850097571428131 1.599609714287475 0  2.370642720443489 1.314678639778255 0  2.542331217136824 1.457668782863176 0  2.685321360221745 1.629357279556511 0  2.33212440520635 1.500906696095238 0  2.499093303904762 1.66787559479365 0  2.292893218813691 1.707106781186309 0  2 4.588179237858402 0  1.850097571428131 4.599609714287475 0  2 4.354867481927107 0  1.685321360221745 4.629357279556511 0  1.876293965053353 4.37111810483994 0  2 4.155633346425225 0  1.499093303904763 4.667875594793649 0  1.726084095315085 4.410873857027373 0  1.911582771125035 4.176834457749931 0  2 4.030663454609409 0  1.292893218813691 4.707106781186309 0  1.542331217136824 4.457668782863176 0  1.775577275295325 4.224422724704676 0  1.950052991924517 4.049947008075484 0  2 4 0  1.33212440520635 4.500906696095237 0  1.589126142972627 4.273915904684915 0  1.823165542250069 4.088417228874965 0  1.969336545390591 4 0  2 3.969336545390591 0  2.049947008075483 3.950052991924517 0  2.030663454609409 4 0  1.370642720443489 4.314678639778256 0  1.62888189516006 4.123706034946647 0  1.844366653574775 4 0  1.950052991924517 3.950052991924517 0  2 3.844366653574775 0  2.088417228874965 3.823165542250069 0  2.224422724704676 3.775577275295324 0  2.176834457749931 3.911582771125035 0  2.155633346425225 4 0  1.400390285712525 4.149902428571869 0  1.645132518072893 4 0  1.823165542250069 3.911582771125035 0  1.911582771125035 3.823165542250069 0  2 3.645132518072893 0  2.123706034946647 3.62888189516006 0  2.273915904684915 3.589126142972627 0  2.457668782863176 3.542331217136824 0  2.410873857027373 3.726084095315085 0  2.37111810483994 3.876293965053353 0  2.354867481927107 4 0  1.411820762141598 4 0  1.62888189516006 3.876293965053353 0  1.775577275295325 3.775577275295324 0  1.876293965053353 3.62888189516006 0  2 3.411820762141598 0  2.149902428571869 3.400390285712525 0  2.314678639778255 3.370642720443489 0  2.500906696095238 3.33212440520635 0  2.707106781186309 3.292893218813691 0  2.66787559479365 3.499093303904762 0  2.629357279556511 3.685321360221745 0  2.599609714287475 3.850097571428131 0  2.588179237858402 4 0  1.400390285712525 3.850097571428131 0  1.589126142972627 3.726084095315085 0  1.726084095315085 3.589126142972627 0  1.850097571428131 3.400390285712525 0  1.370642720443489 3.685321360221745 0  1.542331217136824 3.542331217136824 0  1.685321360221745 3.370642720443489 0  1.33212440520635 3.499093303904762 0  1.499093303904762 3.33212440520635 0  1.292893218813691 3.292893218813691 0  -6 5.588179237858402 0  -5.850097571428131 5.599609714287475 0  -6 5.354867481927107 0  -5.685321360221745 5.629357279556511 0  -5.876293965053353 5.37111810483994 0  -6 5.155633346425225 0  -5.499093303904763 5.667875594793649 0  -5.726084095315085 5.410873857027373 0  -5.911582771125035 5.176834457749931 0  -6 5.030663454609409 0  -5.292893218813691 5.707106781186309 0  -5.542331217136824 5.457668782863176 0  -5.775577275295324 5.224422724704676 0  -5.950052991924516 5.049947008075484 0  -6 5 0  -5.332124405206351 5.500906696095237 0  -5.589126142972627 5.273915904684915 0  -5.823165542250069 5.088417228874965 0  -5.969336545390591 5 0  -6 4.969336545390591 0  -6.049947008075484 4.950052991924516 0  -6.030663454609409 5 0  -5.370642720443489 5.314678639778256 0  -5.62888189516006 5.123706034946647 0  -5.844366653574775 5 0  -5.950052991924516 4.950052991924516 0  -6 4.844366653574775 0  -6.088417228874965 4.823165542250069 0  -6.224422724704676 4.775577275295324 0  -6.176834457749931 4.911582771125035 0  -6.155633346425225 5 0  -5.400390285712525 5.149902428571869 0  -5.645132518072893 5 0  -5.823165542250069 4.911582771125035 0  -5.911582771125035 4.823165542250069 0  -6 4.645132518072893 0  -6.123706034946647 4.62888189516006 0  -6.273915904684915 4.589126142972627 0  -6.457668782863176 4.542331217136824 0  -6.410873857027373 4.726084095315085 0  -6.37111810483994 4.876293965053353 0  -6.354867481927107 5 0  -5.411820762141598 5 0  -5.62888189516006 4.876293965053353 0  -5.775577275295324 4.775577275295324 0  -5.876293965053353 4.62888189516006 0  -6 4.411820762141598 0  -6.149902428571869 4.400390285712525 0  -6.314678639778256 4.370642720443489 0  -6.500906696095237 4.332124405206351 0  -6.707106781186309 4.292893218813691 0  -6.667875594793649 4.499093303904763 0  -6.629357279556511 4.685321360221744 0  -6.599609714287475 4.850097571428131 0  -6.588179237858402 5 0  -5.400390285712525 4.850097571428131 0  -5.589126142972627 4.726084095315085 0  -5.726084095315085 4.589126142972627 0  -5.850097571428131 4.400390285712525 0  -5.370642720443489 4.685321360221744 0  -5.542331217136824 4.542331217136824 0  -5.685321360221744 4.370642720443489 0  -5.332124405206351 4.499093303904763 0  -5.499093303904763 4.332124405206351 0  -5.292893218813691 4.292893218813691 0  -5 2.411820762141598 0  -4.850097571428131 2.400390285712525 0  -5 2.645132518072893 0  -4.685321360221745 2.370642720443489 0  -4.876293965053353 2.62888189516006 0  -5 2.844366653574775 0  -4.499093303904763 2.33212440520635 0  -4.726084095315085 2.589126142972627 0  -4.911582771125035 2.823165542250069 0  -5 2.969336545390591 0  -4.292893218813691 2.292893218813691 0  -4.542331217136824 2.542331217136824 0  -4.775577275295324 2.775577275295324 0  -4.950052991924516 2.950052991924517 0  -5 3 0  -4.332124405206351 2.499093303904762 0  -4.589126142972627 2.726084095315085 0  -4.823165542250069 2.911582771125035 0  -4.969336545390591 3 0  -5 3.030663454609409 0  -5.049947008075484 3.049947008075483 0  -5.030663454609409 3 0  -4.370642720443489 2.685321360221745 0  -4.62888189516006 2.876293965053353 0  -4.844366653574775 3 0  -4.950052991924516 3.049947008075483 0  -5 3.155633346425225 0  -5.088417228874965 3.176834457749931 0  -5.224422724704676 3.224422724704676 0  -5.176834457749931 3.088417228874965 0  -5.155633346425225 3 0  -4.400390285712525 2.850097571428131 0  -4.645132518072893 3 0  -4.823165542250069 3.088417228874965 0  -4.911582771125035 3.176834457749931 0  -5 3.354867481927107 0  -5.123706034946647 3.37111810483994 0  -5.273915904684915 3.410873857027373 0  -5.457668782863176 3.457668782863176 0  -5.410873857027373 3.273915904684915 0  -5.37111810483994 3.123706034946647 0  -5.354867481927107 3 0  -4.411820762141598 3 0  -4.62888189516006 3.123706034946647 0  -4.775577275295324 3.224422724704676 0  -4.876293965053353 3.37111810483994 0  -5 3.588179237858402 0  -5.149902428571869 3.599609714287475 0  -5.314678639778256 3.629357279556511 0  -5.500906696095237 3.66787559479365 0  -5.707106781186309 3.707106781186309 0  -5.667875594793649 3.500906696095238 0  -5.629357279556511 3.314678639778255 0  -5.599609714287475 3.149902428571869 0  -5.588179237858402 3 0  -4.400390285712525 3.149902428571869 0  -4.589126142972627 3.273915904684915 0  -4.726084095315085 3.410873857027373 0  -4.850097571428131 3.599609714287475 0  -4.370642720443489 3.314678639778255 0  -4.542331217136824 3.457668782863176 0  -4.685321360221744 3.629357279556511 0  -4.332124405206351 3.500906696095238 0  -4.499093303904763 3.66787559479365 0  -4.292893218813691 3.707106781186309 0  5 1 0  5 1.1875 0  4.828669659944564 1.039334829972282 0  5 1.375 0  4.799955282837507 1.28125 0  4.657339319889128 1.078669659944564 0  4.820634918236892 1.506417692786598 0  4.6452355475728 1.438948303365132 0  4.608183587928194 1.257360882676231 0  4.486008979833692 1.118004489916846 0  5 1.5625 0  4.747895110462368 1.679697749640207 0  5 1.75 0  4.573762165742714 1.611688335159911 0  4.356652757945501 1.442880316242406 0  4.314678639778256 1.157339319889128 0  4.702758856255141 1.9375 0  4.42396586971011 1.723530333486135 0  4.232041642026576 1.621165377692019 0  4.149300793242634 1.407019981108342 0  4.143348299722819 1.19667414986141 0  5 1.9375 0  4.76147754489104
[...]
<CellData  Scalars="f_7429"> 
<DataArray  type="Float64"  Name="f_7429"  format="ascii">2.6458123069103401e-01   2.6458123069103356e-01   2.6458123069103356e-01   2.6458123069103356e-01   2.6458123069084749e-01   2.6458123069103318e-01   2.6458123069121753e-01   2.6458123069103140e-01   2.6458123069103096e-01   2.6458123069103406e-01   2.6458123069121670e-01   2.6458123069103134e-01   2.6458123069103578e-01   2.6458123069103279e-01   2.6458123069085010e-01   2.6458123069121886e-01   2.6702590902307932e-01   2.6702590902328271e-01   2.6702590902328271e-01   2.6702590902328271e-01   2.6702590902307932e-01   2.6702590902307932e-01   2.6702590902328183e-01   2.6702590902328183e-01   2.6702590902328271e-01   2.6702590902328321e-01   2.6702590902307932e-01   2.6702590902328321e-01   2.6702590902307932e-01   2.6702590902328183e-01   2.6702590902307932e-01   2.6702590902307932e-01   2.6702590902307766e-01   2.6702590902307932e-01   2.6702590902328271e-01   2.6702590902328016e-01   2.6702590902307888e-01   2.6702590902348428e-01   2.6702590902328183e-01   2.6702590902307932e-01   2.6702590902348655e-01   2.6702590902287687e-01   2.6702590902308193e-01   2.6702590902328444e-01   2.6702590902328183e-01   2.6702590902307888e-01   2.6702590902328138e-01   2.6702590902348389e-01   2.6935276764169813e-01   2.6935276764169774e-01   2.6935276764169774e-01   2.6935276764169774e-01   2.6935276764170074e-01   2.6935276764169896e-01   2.6935276764169813e-01   2.6935276764151983e-01   2.6935276764170074e-01   2.6935276764169813e-01   2.6935276764169896e-01   2.6935276764170074e-01   2.6935276764187727e-01   2.6935276764169813e-01   2.6935276764151805e-01   2.6935276764151544e-01   2.1565269824298117e-01   1.6827643616762947e-01   2.1565269824298117e-01   1.6827643616762947e-01   1.6827643616762947e-01   2.1565269824280064e-01   1.6827643616762947e-01   2.1565269824297872e-01   2.1565269824298117e-01   1.6827643616762947e-01   2.1565269824280064e-01   1.6827643616748858e-01   1.6827643616755902e-01   2.1565269824298117e-01   1.6827643616762947e-01   2.1565269824298117e-01   2.5650670478562820e-01   2.5650670478591198e-01   2.5650670478619142e-01   2.5650670478618814e-01   2.5650670478591142e-01   2.5650670478591131e-01   2.5650670478591209e-01   2.5650670478591214e-01   2.5650670478591142e-01   2.5650670478590820e-01   2.5650670478591198e-01   2.5650670478591198e-01   2.5650670478591142e-01   2.5650670478619142e-01   2.5650670478591142e-01   2.5650670478591142e-01   2.5026420905059049e-01   2.5026420905059238e-01   2.5026420905058905e-01   2.5026420905079577e-01   2.5026420905059010e-01   2.5026420905058822e-01   2.5026420905058860e-01   2.5026420905058927e-01   2.5026420905058927e-01   2.5026420905059160e-01   2.5026420905079266e-01   2.5026420905058927e-01   2.5026420905058749e-01   2.5026420905038665e-01   2.5026420905058860e-01   2.5026420905058749e-01   2.3675260667756801e-01   1.5381680782490728e-01   2.3675260667736581e-01   1.5381680782477686e-01   1.5381680782490728e-01   2.3675260667756801e-01   1.5381680782490728e-01   2.3675260667736581e-01   2.3675260667756801e-01   1.5381680782490728e-01   2.3675260667756801e-01   1.5381680782477641e-01   1.5381680782490728e-01   2.3675260667756801e-01   1.5381680782490728e-01   2.3675260667736314e-01   2.1565269824280064e-01   1.6827643616762863e-01   2.1565269824316172e-01   1.6827643616777030e-01   1.6827643616748858e-01   2.1565269824279945e-01   1.6827643616748858e-01   2.1565269824316172e-01   2.1565269824316050e-01   1.6827643616776949e-01   2.1565269824279945e-01   1.6827643616762947e-01   1.6827643616762863e-01   2.1565269824297997e-01   1.6827643616762863e-01   2.1565269824298117e-01   2.5026420905038566e-01   2.5026420905059077e-01   2.5026420905079488e-01   2.5026420905038471e-01   2.5026420905079344e-01   2.5026420905059010e-01   2.5026420905079466e-01   2.5026420905059021e-01   2.5026420905079527e-01   2.5026420905079366e-01   2.5026420905058899e-01   2.5026420905079483e-01   2.5026420905079461e-01   2.5026420905059038e-01   2.5026420905079527e-01   2.5026420905038471e-01   2.5650670478562904e-01   2.5650670478591059e-01   2.5650670478591031e-01   2.5650670478563031e-01   2.5650670478563059e-01   2.5650670478590931e-01   2.5650670478590898e-01   2.5650670478590931e-01   2.5650670478590898e-01   2.5650670478591225e-01   2.5650670478591087e-01   2.5650670478591053e-01   2.5650670478619059e-01   2.5650670478590898e-01   2.5650670478590931e-01   2.5650670478590931e-01   2.3675260667756867e-01   1.5381680782477652e-01   2.3675260667776965e-01   1.5381680782477627e-01   1.5381680782477669e-01   2.3675260667756765e-01   1.5381680782477650e-01   2.3675260667736522e-01   2.3675260667736500e-01   1.5381680782490739e-01   2.3675260667756634e-01   1.5381680782503901e-01   1.5381680782490759e-01   2.3675260667756612e-01   1.5381680782490778e-01   2.3675260667756853e-01   2.6938785040911545e-01   2.6938785040891522e-01   2.6938785040891428e-01   2.6938785040911450e-01   2.6938785040911500e-01   2.6938785040891522e-01   2.6938785040911545e-01   2.6938785040891522e-01   2.6938785040911639e-01   2.6938785040891483e-01   2.6938785040911595e-01   2.6938785040891572e-01   2.6938785040911639e-01   2.6938785040911595e-01   2.6938785040891483e-01   2.6938785040891572e-01   2.8789745830467123e-01   2.8789745830442137e-01   2.8789745830441854e-01   2.8789745830441693e-01   2.8789745830441854e-01   2.8789745830442132e-01   2.8789745830416480e-01   2.8789745830441904e-01   2.8789745830467456e-01   2.8789745830441854e-01   2.8789745830416480e-01   2.8789745830416863e-01   2.8789745830441693e-01   2.8789745830442182e-01   2.8789745830416585e-01   2.8789745830441799e-01   2.6938785040911495e-01   2.6938785040911495e-01   2.6938785040911495e-01   2.6938785040911495e-01   2.6938785040891522e-01   2.6938785040891472e-01   2.6938785040871455e-01   2.6938785040911495e-01   2.6938785040891694e-01   2.6938785040911678e-01   2.6938785040911495e-01   2.6938785040891650e-01   2.6938785040891472e-01   2.6938785040891522e-01   2.6938785040891522e-01   2.6938785040911545e-01   2.8454406741213517e-01   2.8454406741187960e-01   2.8454406741187960e-01   2.8454406741162341e-01   2.8454406741188182e-01   2.8454406741187960e-01   2.8454406741162674e-01   2.8454406741188182e-01   2.8454406741162452e-01   2.8454406741187910e-01   2.8454406741162402e-01   2.8454406741188010e-01   2.8454406741187910e-01   2.8454406741187960e-01   2.8454406741187960e-01   2.8454406741187960e-01   2.0710678118322354e-01   2.0710678118323553e-01   2.0710678118948395e-01   2.0710678118322354e-01   2.0710678118948997e-01   2.0710678118948395e-01   2.0710678118948997e-01   2.0710678118950196e-01   2.0710678118949594e-01   2.0710678118949594e-01   2.0710678118948395e-01   2.0710678118323553e-01   2.0710678118949594e-01   2.0710678118323553e-01   2.0710678118948395e-01   2.0710678118323553e-01   1.6908001175067242e-01   1.5622370424805287e-01   1.6908001175221360e-01   1.5622370424876553e-01   1.5622370424947687e-01   1.6908001175067353e-01   1.5622370424876611e-01   1.6908001175144341e-01   1.6908001175144369e-01   1.5622370424876611e-01   1.6908001175144230e-01   1.5622370424805243e-01   1.5622370424876553e-01   1.6908001175144341e-01   1.5622370424876611e-01   1.6908001175144341e-01   1.6908001175144299e-01   1.5622370424805426e-01   1.6908001175144299e-01   1.5622370424876258e-01   1.5622370424876536e-01   1.6908001175067380e-01   1.5622370424876561e-01   1.6908001175144369e-01   1.6908001175221291e-01   1.5622370424805401e-01   1.6908001175144299e-01   1.5622370424805263e-01   1.5622370424876561e-01   1.6908001175144369e-01   1.5622370424876536e-01   1.6908001175067380e-01   2.6354828473466768e-01   2.6354828473467329e-01   2.6354828473113667e-01   2.6354828473466518e-01   2.6354828473468711e-01   2.6354828473468001e-01   2.6354828473115138e-01   2.6354828473468711e-01   2.6354828473113562e-01   2.6354828473113823e-01   2.6354828473467895e-01   2.6354828473113823e-01   2.6354828473466674e-01   2.6354828473467895e-01   2.6354828473466779e-01   2.6354828473466674e-01   1.9003127826328650e-01   1.6276428555826697e-01   1.9003127826309940e-01   1.6276428555794620e-01   1.6276428555826608e-01   1.9003127826291227e-01   1.6276428555842637e-01   1.9003127826291147e-01   1.9003127826328650e-01   1.6276428555826677e-01   1.9003127826253799e-01   1.6276428555858752e-01   1.6276428555826772e-01   1.9003127826309971e-01   1.6276428555842778e-01   1.9003127826272467e-01   2.4121767090144547e-01   2.4121767090144527e-01   2.4121767090144527e-01   2.4121767090144527e-01   2.4121767090144527e-01   2.4121767090144527e-01   2.4121767090144364e-01   2.4121767090144527e-01   2.4121767090144364e-01   2.4121767090116808e-01   2.4121767090144672e-01   2.4121767090116802e-01   2.4121767090144550e-01   2.4121767090144527e-01   2.4121767090144527e-01   2.4121767090144527e-01   1.8083548583879699e-01   1.4167237950109587e-01   1.8083548583908970e-01   1.4167237950086869e-01   1.4167237950086939e-01   1.8083548583908990e-01   1.4167237950132627e-01   1.8083548583908848e-01   1.8083548583908970e-01   1.4167237950109726e-01   1.8083548583908876e-01   1.4167237950086703e-01   1.4167237950086792e-01   1.8083548583879649e-01   1.4167237950109651e-01   1.8083548583908970e-01   2.2652706360219310e-01   1.5173363212267801e-01   2.2652706360191865e-01   1.5173363212267801e-01   1.5173363212286184e-01   2.2652706360219310e-01   1.5173363212267821e-01   2.2652706360192032e-01   2.2652706360192032e-01   1.5173363212286203e-01   2.2652706360164546e-01   1.5173363212267821e-01   1.5173363212267896e-01   2.2652706360219321e-01   1.5173363212286278e-01   2.2652706360192032e-01   1.9003127826291227e-01   1.6276428555842637e-01   1.9003127826291227e-01   1.6276428555826608e-01   1.6276428555826569e-01   1.9003127826291005e-01   1.6276428555842637e-01   1.9003127826291227e-01   1.9003127826291227e-01   1.6276428555834624e-01   1.9003127826281868e-01   1.6276428555826608e-01   1.6276428555826608e-01   1.9003127826300584e-01   1.6276428555826608e-01   1.9003127826309940e-01   1.8083548583879888e-01   1.4167237950109732e-01   1.8083548583909020e-01   1.4167237950109626e-01   1.4167237950109721e-01   1.8083548583909112e-01   1.4167237950109676e-01   1.8083548583908871e-01   1.8083548583908823e-01   1.4167237950109665e-01   1.8083548583908779e-01   1.4167237950132441e-01   1.4167237950109640e-01   1.8083548583879891e-01   1.4167237950109574e-01   1.8083548583908823e-01   2.4121767090144591e-01   2.4121767090116866e-01   2.4121767090116497e-01   2.4121767090144572e-01   2.4121767090144267e-01   2.4121767090144591e-01   2.4121767090144697e-01   2.4121767090116628e-01   2.4121767090116866e-01   2.4121767090172236e-01   2.4121767090144267e-01   2.4121767090116825e-01   2.4121767090116927e-01   2.4121767090144527e-01   2.4121767090116497e-01   2.4121767090116825e-01   2.2652706360191854e-01   1.5173363212267871e-01   2.2652706360191766e-01   1.5173363212267821e-01   1.5173363212267835e-01   2.2652706360219207e-01   1.5173363212286253e-01   2.2652706360192146e-01   2.2652706360191821e-01   1.5173363212267871e-01   2.2652706360164468e-01   1.5173363212286203e-01   1.5173363212267782e-01   2.2652706360219294e-01   1.5173363212267821e-01   2.2652706360192146e-01   2.3049480097917002e-01   1.7346686274319234e-01   2.3049480097979763e-01   1.7346686274318962e-01   1.7346686274271619e-01   2.3049480097980185e-01   1.7346686274271572e-01   2.3049480097979971e-01   2.3049480097916830e-01   1.7346686274271525e-01   2.3049480097916958e-01   1.7346686274319231e-01   1.7346686274271619e-01   2.3049480097916958e-01   1.7346686274271572e-01   2.3049480097917213e-01   2.7263087225317156e-01   2.7263087225365307e-01   2.7263087225317667e-01   2.7263087225317340e-01   2.7263087225317667e-01   2.7263087225317295e-01   2.7263087225364890e-01   2.7263087225317295e-01   2.7263087225364885e-01   2.7263087225317295e-01   2.7263087225317256e-01   2.7263087225317256e-01   2.7263087225365373e-01   2.7263087225317162e-01   2.7263087225364985e-01   2.7263087225317256e-01   2.3049480097980102e-01   1.7346686274271753e-01   2.3049480097917133e-01   1.7346686274271730e-01   1.7346686274271730e-01   2.3049480097917213e-01   1.7346686274271753e-01   2.3049480097980185e-01   2.3049480097917133e-01   1.7346686274319123e-01   2.3049480097980102e-01   1.7346686274271753e-01   1.7346686274319023e-01   2.3049480097854161e-01   1.7346686274271511e-01   2.3049480097916694e-01   2.8257537442659958e-01   2.8257537442605024e-01   2.8257537442659675e-01   2.8257537442714892e-01   2.8257537442659958e-01   2.8257537442659675e-01   2.8257537442714215e-01   2.8257537442659675e-01   2.8257537442659675e-01   2.8257537442659958e-01   2.8257537442714320e-01   2.8257537442659958e-01   2.8257537442659381e-01   2.8257537442659675e-01   2.8257537442659281e-01   2.8257537442659281e-01   1.8170463541253581e-01   2.0050134852668719e-01   1.8170463541253581e-01   2.0050134852668719e-01   2.0050134852685011e-01   1.8170463541253581e-01   2.0050134852668719e-01   1.8170463541253581e-01   1.8170463541253581e-01   2.0050134852676865e-01   1.8170463541253581e-01   2.0050134852668719e-01   2.0050134852685011e-01   1.8170463541253581e-01   2.0050134852685011e-01   1.8170463541253581e-01   1.5974835147307537e-01   2.3788204152106832e-01   1.5974835147301381e-01   2.3788204152097664e-01   2.3788204152106601e-01   1.5974835147301217e-01   2.3788204152106698e-01   1.5974835147307515e-01   1.5974835147301236e-01   2.3788204152097664e-01   1.5974835147307395e-01   2.3788204152097589e-01   2.3788204152097536e-01   1.5974835147301242e-01   2.3788204152097614e-01   1.5974835147307426e-01   1.7327187859460647e-01   2.0478890083691947e-01   1.7327187859460647e-01   2.0478890083680062e-01   2.0478890083680062e-01   1.7327187859450607e-01   2.0478890083656523e-01   1.7327187859480581e-01   1.7327187859460438e-01   2.0478890083680062e-01   1.7327187859450449e-01   2.0478890083668252e-01   2.0478890083679879e-01   1.7327187859460597e-01   2.0478890083668072e-01   1.7327187859450485e-01   1.5115271253374246e-01   2.0259919613386745e-01   1.5115271253374246e-01   2.0259919613396854e-01   2.0259919613407387e-01   1.5115271253358695e-01   2.0259919613407387e-01   1.5115271253366414e-01   1.5115271253374007e-01   2.0259919613397004e-01   1.5115271253373971e-01   2.0259919613396785e-01   2.0259919613386704e-01   1.5115271253374124e-01   2.0259919613386704e-01   1.5115271253374127e-01   2.6687970446768139e-01   2.6687970446767878e-01   2.6687970446768156e-01   2.6687970446763570e-01   2.6687970446767867e-01   1.5189777105411445e-01   2.6687970446767867e-01   1.5189777105411445e-01   2.6687970446763337e-01   2.6687970446767817e-01   2.6687970446768083e-01   2.6687970446767817e-01   2.6687970446767884e-01   1.5189777105408855e-01   2.6687970446767884e-01   1.5189777105411448e-01   2.8615613935169981e-01   2.8615613935170092e-01   2.8615613935182821e-01   2.8615613935157364e-01   2.8615613935169981e-01   1.3594305904864112e-01   2.8615613935182821e-01   1.3594305904876292e-01   2.8615613935169953e-01   2.8615613935170092e-01   2.8615613935170092e-01   2.8615613935170092e-01   2.8615613935157225e-01   1.3594305904864107e-01   2.8615613935182793e-01   1.3594305904870246e-01   2.6256297775540799e-01   2.6256297775540960e-01   2.6256297775531173e-01   2.6256297775540716e-01   2.6256297775540760e-01   1.5103844314232340e-01   2.6256297775540677e-01   1.5103844314232340e-01   2.6256297775531134e-01   2.6256297775540977e-01   2.6256297775531279e-01   2.6256297775540782e-01   2.6256297775550269e-01   1.5103844314232373e-01   2.6256297775531262e-01   1.5103844314235093e-01   2.7404348589208632e-01   2.7404348589219202e-01   2.7404348589208349e-01   2.7404348589219202e-01   2.7404348589219180e-01   1.4287907022743887e-01   2.7404348589208632e-01   1.4287907022743879e-01   2.7404348589208560e-01   2.7404348589219296e-01   2.7404348589208349e-01   2.7404348589208655e-01   2.7404348589208655e-01   1.4287907022743887e-01   2.7404348589213878e-01   1.4287907022743909e-01   1.5939175831454480e-01   2.1121898340556122e-01   1.5939175831454480e-01   2.1121898340947456e-01   2.1121898340556122e-01   1.4003109080804202e-01   2.1121898340556122e-01   1.4003109080804099e-01   1.5939175831454480e-01   2.1121898340947456e-01   1.5939175831158686e-01   2.1121898340555487e-01   2.1121898340947165e-01   1.4003109081063417e-01   2.1121898340947165e-01   1.4003109081063964e-01   1.6725162798497956e-01   2.3011106241209653e-01   1.6725162798497956e-01   2.3011106241209653e-01   2.3011106241209653e-01   1.6725162798454934e-01   2.3011106241209653e-01   1.6725162798497956e-01   1.6725162798497956e-01   2.3011106241209653e-01   1.6725162798497956e-01   2.3011106241209653e-01   2.3011106241209653e-01   1.6725162798497956e-01   2.3011106241209653e-01   1.6725162798476448e-01   2.6606838175836922e-01   2.6606838175812420e-01   2.6606838175836922e-01   2.6606838175836922e-01   2.6606838175836728e-01   1.1944423922362309e-01   2.6606838175812103e-01   1.1944423922362404e-01   2.6606838175836672e-01   2.6606838175812342e-01   2.6606838175836922e-01   2.6606838175812342e-01   2.6606838175837055e-01   1.1944423922340311e-01   2.6606838175812286e-01   1.1944423922351280e-01   1.9199375402740665e-01   1.4338082555522100e-01   1.9199375402740682e-01   1.4338082555522152e-01   1.4338082555595000e-01   9.1763485234039599e-02   1.4338082555595000e-01   9.1763485234505657e-02   1.9199375402837746e-01   1.4338082555594650e-01   1.9199375402740251e-01   1.4338082555595044e-01   1.4338082555595000e-01   9.1763485234272635e-02   1.4338082555595000e-01   9.1763485234505657e-02   1.6063290734994112e-01   2.3904567328495857e-01   1.6063290735001434e-01   2.3904567328506701e-01   2.3904567328496135e-01   1.3899810608937246e-01   2.3904567328506718e-01   1.3899810608937102e-01   1.6063290735001431e-01   2.3904567328506421e-01   1.6063290735001481e-01   2.3904567328506701e-01   2.3904567328506746e-01   1.3899810608930796e-01   2.3904567328506746e-01   1.3899810608930777e-01   2.3819854843874450e-01   2.3819854843889235e-01   2.3819854843874161e-01   2.3819854843903954e-01   2.3819854843874130e-01   1.2118070164262473e-01   2.3819854843874450e-01   1.2118070164262473e-01   2.3819854843874441e-01   2.3819854843874408e-01   2.3819854843874450e-01   2.3819854843889127e-01   2.3819854843888802e-01   1.2118070164262593e-01   2.3819854843888802e-01   1.2118070164269960e-01   1.6500979342618377e-01   1.7724337900941395e-01   1.6500979342618374e-01   1.7724337900941395e-01   1.7724337900941395e-01   1.2316987441929536e-01   1.7724337900972059e-01   1.2316987441929536e-01   1.6500979342618377e-01   1.7724337900941395e-01   1.6500979342575561e-01   1.7724337900956727e-01   1.7724337900956513e-01   1.2316987441929442e-01   1.7724337900941395e-01   1.2316987441918884e-01   2.5794192165001562e-01   2.5794192165001190e-01   2.5794192165014707e-01   2.5794192164988322e-01   2.5794192164988372e-01   1.4278816159042937e-01   2.5794192164988372e-01   1.4278816159035634e-01   2.5794192164987950e-01   2.5794192164988339e-01   2.5794192164988317e-01   2.5794192164987950e-01   2.5794192165001567e-01   1.4278816159042937e-01   2.5794192164988700e-01   1.4278816159043076e-01   1.8170463541253601e-01   2.0050134852668738e-01   1.8170463541253601e-01   2.0050134852676885e-01   2.0050134852668766e-01   1.8170463541253623e-01   2.0050134852676915e-01   1.8170463541261003e-01   1.8170463541257292e-01   2.0050134852664664e-01   1.8170463541260984e-01   2.0050134852668738e-01   2.0050134852676885e-01   1.8170463541253601e-01   2.0050134852676885e-01   1.8170463541253601e-01   1.7327187859450541e-01   2.0478890083680079e-01   1.7327187859460533e-01   2.0478890083680079e-01   2.0478890083668272e-01   1.7327187859460533e-01   2.0478890083668272e-01   1.7327187859460533e-01   1.7327187859460533e-01   2.0478890083680085e-01   1.7327187859460533e-01   2.0478890083680079e-01   2.0478890083