<?xml version="1.0"?>
<VTKFile type="UnstructuredGrid"  version="0.1"  >
<UnstructuredGrid>
<Piece  NumberOfPoints="9136" NumberOfCells="17460">
<Points>
<DataArray  type="Float64"  NumberOfComponents="3"  format="ascii">3 0.3059179772177343 0  2.826192235005252 0.3047689400210052 0  3 0.4876840732277087 0  2.650848904718999 0.3016978094379971 0  2.828721773526102 0.4861653205783054 0  3 0.6663313827030033 0  2.473127361874204 0.2975031491656049 0  2.654933606300413 0.4824004094506196 0  2.832075157123596 0.6641503142471923 0  3 0.8400450330852545 0  2.292893218813298 0.2928932188132978 0  2.477765466230188 0.4777654662301873 0  2.659590949023722 0.6595909490237226 0  2.836584264135747 0.8365842641357473 0  3 1 0  2.297503149165605 0.4731273618742037 0  2.482400409450619 0.654933606300413 0  2.664150314247192 0.8320751571235961 0  2.840045033085254 1 0  3 1.159954966914746 0  3.163415735864253 1.163415735864253 0  3.159954966914746 1 0  2.301697809437997 0.6508489047189985 0  2.486165320578305 0.8287217735261018 0  2.666331382703003 1 0  2.836584264135747 1.163415735864253 0  3 1.333668617296997 0  3.167924842876404 1.335849685752808 0  3.340409050976278 1.340409050976277 0  3.335849685752808 1.167924842876404 0  3.333668617296997 1 0  2.304768940021005 0.8261922350052512 0  2.487684073227709 1 0  2.664150314247192 1.167924842876404 0  2.832075157123596 1.335849685752808 0  3 1.512315926772291 0  3.171278226473898 1.513834679421695 0  3.345066393699587 1.51759959054938 0  3.522234533769812 1.522234533769813 0  3.517599590549381 1.345066393699587 0  3.513834679421695 1.171278226473898 0  3.512315926772291 1 0  2.305917977217734 1 0  2.486165320578305 1.171278226473898 0  2.659590949023722 1.340409050976277 0  2.828721773526102 1.513834679421695 0  3 1.694082022782266 0  3.173807764994749 1.695231059978995 0  3.349151095281001 1.698302190562003 0  3.526872638125796 1.702496850834395 0  3.707106781186702 1.707106781186702 0  3.702496850834395 1.526872638125796 0  3.698302190562003 1.349151095281002 0  3.695231059978995 1.173807764994749 0  3.694082022782266 1 0  2.304768940021005 1.173807764994749 0  2.482400409450619 1.345066393699587 0  2.654933606300413 1.51759959054938 0  2.826192235005251 1.695231059978995 0  2.301697809437997 1.349151095281002 0  2.477765466230188 1.522234533769813 0  2.650848904718999 1.698302190562003 0  2.297503149165605 1.526872638125796 0  2.473127361874204 1.702496850834395 0  2.292893218813298 1.707106781186702 0  2 4.694082022782266 0  1.826192235005251 4.695231059978995 0  2 4.512315926772291 0  1.650848904718999 4.698302190562003 0  1.828721773526102 4.513834679421695 0  2 4.333668617296997 0  1.473127361874204 4.702496850834395 0  1.654933606300413 4.517599590549381 0  1.832075157123596 4.335849685752808 0  2 4.159954966914746 0  1.292893218813298 4.707106781186702 0  1.477765466230187 4.522234533769812 0  1.659590949023723 4.340409050976278 0  1.836584264135747 4.163415735864253 0  2 4 0  1.297503149165605 4.526872638125797 0  1.48240040945062 4.345066393699587 0  1.664150314247192 4.167924842876404 0  1.840045033085254 4 0  2 3.840045033085254 0  2.163415735864253 3.836584264135747 0  2.159954966914746 4 0  1.301697809437997 4.349151095281002 0  1.486165320578305 4.171278226473898 0  1.666331382703003 4 0  1.836584264135747 3.836584264135747 0  2 3.666331382703003 0  2.167924842876404 3.664150314247192 0  2.340409050976278 3.659590949023722 0  2.335849685752808 3.832075157123596 0  2.333668617296997 4 0  1.304768940021005 4.173807764994748 0  1.487684073227709 4 0  1.664150314247192 3.832075157123596 0  1.832075157123596 3.664150314247192 0  2 3.487684073227709 0  2.171278226473898 3.486165320578305 0  2.345066393699587 3.482400409450619 0  2.522234533769812 3.477765466230188 0  2.517599590549381 3.654933606300413 0  2.513834679421695 3.828721773526102 0  2.512315926772291 4 0  1.305917977217734 4 0  1.486165320578305 3.828721773526102 0  1.659590949023723 3.659590949023722 0  1.828721773526102 3.486165320578305 0  2 3.305917977217734 0  2.173807764994749 3.304768940021005 0  2.349151095281001 3.301697809437997 0  2.526872638125796 3.297503149165605 0  2.707106781186702 3.292893218813298 0  2.702496850834395 3.473127361874204 0  2.698302190562003 3.650848904718999 0  2.695231059978995 3.826192235005251 0  2.694082022782266 4 0  1.304768940021005 3.826192235005251 0  1.48240040945062 3.654933606300413 0  1.654933606300413 3.482400409450619 0  1.826192235005251 3.304768940021005 0  1.301697809437997 3.650848904718999 0  1.477765466230187 3.477765466230188 0  1.650848904718998 3.301697809437997 0  1.297503149165605 3.473127361874204 0  1.473127361874204 3.297503149165605 0  1.292893218813298 3.292893218813298 0  -6 5.694082022782266 0  -5.826192235005252 5.695231059978995 0  -6 5.512315926772291 0  -5.650848904718998 5.698302190562003 0  -5.828721773526102 5.513834679421695 0  -6 5.333668617296997 0  -5.473127361874203 5.702496850834395 0  -5.654933606300413 5.517599590549381 0  -5.832075157123596 5.335849685752808 0  -6 5.159954966914746 0  -5.292893218813298 5.707106781186702 0  -5.477765466230188 5.522234533769812 0  -5.659590949023722 5.340409050976278 0  -5.836584264135747 5.163415735864253 0  -6 5 0  -5.297503149165605 5.526872638125797 0  -5.482400409450619 5.345066393699587 0  -5.664150314247192 5.167924842876404 0  -5.840045033085254 5 0  -6 4.840045033085254 0  -6.163415735864253 4.836584264135747 0  -6.159954966914746 5 0  -5.301697809437997 5.349151095281002 0  -5.486165320578305 5.171278226473898 0  -5.666331382703003 5 0  -5.836584264135747 4.836584264135747 0  -6 4.666331382703003 0  -6.167924842876404 4.664150314247192 0  -6.340409050976278 4.659590949023722 0  -6.335849685752808 4.832075157123596 0  -6.333668617296997 5 0  -5.304768940021005 5.173807764994748 0  -5.487684073227709 5 0  -5.664150314247192 4.832075157123596 0  -5.832075157123596 4.664150314247192 0  -6 4.487684073227709 0  -6.171278226473898 4.486165320578305 0  -6.345066393699587 4.482400409450619 0  -6.522234533769812 4.477765466230188 0  -6.517599590549381 4.654933606300413 0  -6.513834679421695 4.828721773526102 0  -6.512315926772291 5 0  -5.305917977217734 5 0  -5.486165320578305 4.828721773526102 0  -5.659590949023722 4.659590949023722 0  -5.828721773526102 4.486165320578305 0  -6 4.305917977217734 0  -6.173807764994748 4.304768940021005 0  -6.349151095281002 4.301697809437997 0  -6.526872638125797 4.297503149165605 0  -6.707106781186702 4.292893218813298 0  -6.702496850834395 4.473127361874203 0  -6.698302190562003 4.650848904718998 0  -6.695231059978995 4.826192235005252 0  -6.694082022782266 5 0  -5.304768940021005 4.826192235005252 0  -5.482400409450619 4.654933606300413 0  -5.654933606300413 4.482400409450619 0  -5.826192235005252 4.304768940021005 0  -5.301697809437997 4.650848904718998 0  -5.477765466230188 4.477765466230188 0  -5.650848904718998 4.301697809437997 0  -5.297503149165605 4.473127361874203 0  -5.473127361874203 4.297503149165605 0  -5.292893218813298 4.292893218813298 0  -5 2.305917977217734 0  -4.826192235005252 2.304768940021005 0  -5 2.487684073227709 0  -4.650848904718998 2.301697809437997 0  -4.828721773526102 2.486165320578305 0  -5 2.666331382703003 0  -4.473127361874203 2.297503149165605 0  -4.654933606300413 2.482400409450619 0  -4.832075157123596 2.664150314247192 0  -5 2.840045033085254 0  -4.292893218813298 2.292893218813298 0  -4.477765466230188 2.477765466230188 0  -4.659590949023722 2.659590949023722 0  -4.836584264135747 2.836584264135747 0  -5 3 0  -4.297503149165605 2.473127361874204 0  -4.482400409450619 2.654933606300413 0  -4.664150314247192 2.832075157123596 0  -4.840045033085254 3 0  -5 3.159954966914746 0  -5.163415735864253 3.163415735864253 0  -5.159954966914746 3 0  -4.301697809437997 2.650848904718999 0  -4.486165320578305 2.828721773526102 0  -4.666331382703003 3 0  -4.836584264135747 3.163415735864253 0  -5 3.333668617296997 0  -5.167924842876404 3.335849685752808 0  -5.340409050976278 3.340409050976278 0  -5.335849685752808 3.167924842876404 0  -5.333668617296997 3 0  -4.304768940021005 2.826192235005251 0  -4.487684073227709 3 0  -4.664150314247192 3.167924842876404 0  -4.832075157123596 3.335849685752808 0  -5 3.512315926772291 0  -5.171278226473898 3.513834679421695 0  -5.345066393699587 3.517599590549381 0  -5.522234533769812 3.522234533769812 0  -5.517599590549381 3.345066393699587 0  -5.513834679421695 3.171278226473898 0  -5.512315926772291 3 0  -4.305917977217734 3 0  -4.486165320578305 3.171278226473898 0  -4.659590949023722 3.340409050976278 0  -4.828721773526102 3.513834679421695 0  -5 3.694082022782266 0  -5.173807764994748 3.695231059978995 0  -5.349151095281002 3.698302190562003 0  -5.526872638125797 3.702496850834395 0  -5.707106781186702 3.707106781186702 0  -5.702496850834395 3.526872638125796 0  -5.698302190562003 3.349151095281001 0  -5.695231059978995 3.173807764994749 0  -5.694082022782266 3 0  -4.304768940021005 3.173807764994749 0  -4.482400409450619 3.345066393699587 0  -4.654933606300413 3.517599590549381 0  -4.826192235005252 3.695231059978995 0  -4.301697809437997 3.349151095281001 0  -4.477765466230188 3.522234533769812 0  -4.650848904718998 3.698302190562003 0  -4.297503149165605 3.526872638125796 0  -4.473127361874203 3.702496850834395 0  -4.292893218813298 3.707106781186702 0  5 1 0  5 1.1875 0  4.836760252847784 1 0  4.777715803246315 1.196559610919311 0  4.839460463216996 1.347314472439327 0  5 1.375 0  4.673520505695566 1 0  4.632635625466378 1.365213346993499 0  4.556044961094186 1.171744017769988 0  4.510280758543349 1 0  4.794773055276885 1.503974827597894 0  5 1.5625 0  4.509532852384659 1.302052263620541 0  4.410856208148409 1.131488582867765 0  4.347041011391132 1 0  4.456349169075412 1.451051581694457 0  4.607229733549753 1.536976478139674 0  4.689743592565922 1.689749170841861 0  4.856245648493844 1.661305922135441 0  5 1.75 0  4.374259326167071 1.272988741846429 0  4.255464305052109 1.37561778694147
[...]
<CellData  Scalars="f_6210"> 
<DataArray  type="Float64"  Name="f_6210"  format="ascii">2.1463690144579986e-01   2.1463690144579986e-01   2.1463690144584580e-01   2.1463690144579986e-01   2.1434795878240953e-01   2.1434795878245730e-01   2.1434795878245824e-01   2.1434795878240917e-01   2.1434795878241067e-01   2.1434795878241011e-01   2.1434795878245880e-01   2.1434795878241084e-01   2.1468196364124917e-01   2.1468196364124956e-01   2.1468196364124834e-01   2.1468196364129583e-01   2.0394598311879572e-01   2.0995643730372748e-01   2.0394598311879555e-01   2.0995643730372640e-01   2.1412648110106294e-01   2.1412648110106258e-01   2.1412648110106372e-01   2.1412648110101318e-01   2.1292035460757053e-01   2.1292035460752279e-01   2.1292035460752168e-01   2.1292035460752279e-01   2.0175886667033430e-01   2.1217032616770334e-01   2.0175886667033424e-01   2.1217032616765627e-01   2.0394598311879542e-01   2.0995643730372679e-01   2.0394598311879572e-01   2.0995643730382141e-01   2.1292035460752259e-01   2.1292035460752348e-01   2.1292035460752184e-01   2.1292035460752290e-01   2.1412648110111296e-01   2.1412648110106344e-01   2.1412648110106311e-01   2.1412648110106350e-01   2.0175886667038029e-01   2.1217032616770318e-01   2.0175886667033510e-01   2.1217032616765685e-01   2.1424672452735666e-01   2.1424672452730939e-01   2.1424672452731014e-01   2.1424672452730942e-01   2.1484609039155581e-01   2.1484609039160446e-01   2.1484609039160446e-01   2.1484609039160446e-01   2.1424672452730964e-01   2.1424672452735671e-01   2.1424672452731022e-01   2.1424672452735707e-01   2.1480965700145221e-01   2.1480965700150087e-01   2.1480965700150087e-01   2.1480965700150087e-01   2.0710678118652906e-01   2.0710678118658657e-01   2.0710678118658657e-01   2.0710678118658657e-01   2.0369554356235123e-01   2.0987673244867178e-01   2.0369554356235123e-01   2.0987673244872376e-01   2.0369554356240221e-01   2.0987673244867125e-01   2.0369554356240221e-01   2.0987673244872376e-01   2.1333620920781413e-01   2.1333620920775734e-01   2.1333620920775734e-01   2.1333620920775734e-01   2.0550214880208220e-01   2.0809094374501733e-01   2.0550214880212911e-01   2.0809094374496984e-01   2.1367510285517391e-01   2.1367510285507385e-01   2.1367510285512312e-01   2.1367510285512445e-01   2.0487656317171438e-01   2.0866744256602435e-01   2.0487656317181144e-01   2.0866744256602598e-01   2.0293498953813174e-01   2.1103903388719308e-01   2.0293498953813174e-01   2.1103903388719442e-01   2.0550214880208273e-01   2.0809094374497086e-01   2.0550214880208273e-01   2.0809094374499304e-01   2.0487656317181249e-01   2.0866744256597655e-01   2.0487656317181221e-01   2.0866744256607464e-01   2.1367510285512423e-01   2.1367510285512295e-01   2.1367510285512409e-01   2.1367510285512409e-01   2.0293498953813188e-01   2.1103903388719472e-01   2.0293498953813188e-01   2.1103903388721806e-01   2.1279384191791426e-01   2.1279384191791287e-01   2.1279384191791315e-01   2.1279384191791426e-01   2.1489023231002594e-01   2.1489023230997514e-01   2.1489023231002702e-01   2.1489023230997456e-01   2.1279384191791270e-01   2.1279384191786047e-01   2.1279384191786047e-01   2.1279384191786047e-01   2.1480625232013850e-01   2.1480625232008771e-01   2.1480625232008810e-01   2.1480625232008729e-01   2.0789695172428155e-01   2.0596417634426137e-01   2.0789695172432862e-01   2.0596417634430789e-01   2.1162235694602466e-01   2.0241808266230285e-01   2.1162235694602466e-01   2.0241808266228006e-01   2.0824796223349823e-01   2.0565505086471270e-01   2.0824796223347408e-01   2.0565505086471397e-01   2.1015370481803089e-01   2.0349238796445104e-01   2.1015370481803089e-01   2.0349238796442795e-01   2.1465942972361785e-01   1.9963394588628200e-01   2.1465942972360580e-01   1.9963394588627012e-01   2.1482787184737048e-01   1.9946908561418294e-01   2.1482787184739480e-01   1.9946908561420554e-01   2.1387910607149774e-01   2.0035027863827146e-01   2.1387910607152111e-01   2.0035027863826066e-01   2.1471718683820901e-01   1.9952490503583697e-01   2.1471718683820906e-01   1.9952490503583714e-01   2.1017188028253531e-01   2.0397254266265902e-01   2.1017188028253531e-01   2.0397254266265902e-01   2.0890837171317148e-01   2.0510829648583620e-01   2.0890837171319693e-01   2.0510829648588641e-01   2.1484823248643953e-01   1.9944915029224000e-01   2.1484823248643953e-01   1.9944915029219229e-01   2.1379597114038895e-01   1.9997213580801793e-01   2.1379597114038895e-01   1.9997213580796763e-01   2.1347485684533751e-01   2.0052817180384275e-01   2.1347485684536135e-01   2.0052817180386526e-01   2.1479882615451346e-01   1.9937047531454732e-01   2.1479882615451346e-01   1.9937047531452390e-01   2.1146859256641540e-01   2.0217523380379218e-01   2.1146859256644085e-01   2.0217523380381722e-01   2.1300966849798850e-01   2.0115326349883106e-01   2.1300966849801298e-01   2.0115326349883050e-01   2.0789695172431674e-01   2.0596417634429673e-01   2.0789695172430508e-01   2.0596417634429673e-01   2.0824796223352182e-01   2.0565505086473695e-01   2.0824796223352188e-01   2.0565505086471300e-01   2.1162235694602433e-01   2.0241808266229142e-01   2.1162235694602433e-01   2.0241808266230368e-01   2.1015370481806697e-01   2.0349238796442856e-01   2.1015370481803092e-01   2.0349238796445182e-01   2.1017188028250675e-01   2.0397254266265902e-01   2.1017188028253531e-01   2.0397254266268672e-01   2.1484823248643961e-01   1.9944915029219221e-01   2.1484823248646559e-01   1.9944915029221605e-01   2.0890837171319659e-01   2.0510829648581097e-01   2.0890837171319659e-01   2.0510829648586201e-01   2.1379597114038967e-01   1.9997213580796741e-01   2.1379597114041698e-01   1.9997213580796844e-01   2.1465942972361904e-01   1.9963394588628208e-01   2.1465942972361904e-01   1.9963394588629232e-01   2.1387910607149804e-01   2.0035027863826058e-01   2.1387910607149804e-01   2.0035027863825988e-01   2.1482787184737043e-01   1.9946908561418294e-01   2.1482787184737043e-01   1.9946908561419424e-01   2.1471718683822108e-01   1.9952490503583703e-01   2.1471718683820912e-01   1.9952490503583636e-01   2.1146859256644071e-01   2.0217523380381638e-01   2.1146859256644032e-01   2.0217523380381638e-01   2.1479882615448753e-01   1.9937047531452476e-01   2.1479882615451251e-01   1.9937047531452376e-01   2.1347485684536205e-01   2.0052817180384255e-01   2.1347485684535034e-01   2.0052817180385488e-01   2.1300966849796465e-01   2.0115326349885485e-01   2.1300966849798886e-01   2.0115326349883073e-01   2.0789695172428216e-01   2.0596417634426165e-01   2.0789695172432893e-01   2.0596417634430700e-01   2.0824796223352138e-01   2.0565505086468933e-01   2.0824796223352138e-01   2.0565505086473659e-01   2.1162235694602421e-01   2.0241808266230246e-01   2.1162235694602452e-01   2.0241808266230346e-01   2.1015370481803022e-01   2.0349238796440480e-01   2.1015370481807835e-01   2.0349238796445063e-01   2.1017188028253531e-01   2.0397254266265902e-01   2.1017188028253531e-01   2.0397254266265902e-01   2.1484823248643986e-01   1.9944915029223967e-01   2.1484823248644019e-01   1.9944915029219246e-01   2.0890837171322235e-01   2.0510829648588561e-01   2.0890837171317148e-01   2.0510829648578729e-01   2.1379597114038942e-01   1.9997213580801754e-01   2.1379597114038973e-01   1.9997213580796866e-01   2.1465942972358290e-01   1.9963394588624850e-01   2.1465942972367685e-01   1.9963394588624825e-01   2.1387910607154514e-01   2.0035027863831598e-01   2.1387910607154531e-01   2.0035027863822694e-01   2.1482787184737043e-01   1.9946908561418294e-01   2.1482787184737048e-01   1.9946908561422813e-01   2.1471718683822097e-01   1.9952490503585918e-01   2.1471718683822111e-01   1.9952490503585876e-01   2.1146859256634046e-01   2.0217523380391272e-01   2.1146859256644071e-01   2.0217523380376801e-01   2.1479882615453749e-01   1.9937047531457117e-01   2.1479882615448753e-01   1.9937047531457014e-01   2.1347485684528941e-01   2.0052817180388782e-01   2.1347485684533821e-01   2.0052817180397958e-01   2.1300966849796457e-01   2.0115326349880872e-01   2.1300966849801342e-01   2.0115326349890014e-01   2.0789695172432862e-01   2.0596417634430769e-01   2.0789695172428155e-01   2.0596417634430769e-01   2.1162235694597764e-01   2.0241808266230266e-01   2.1162235694602477e-01   2.0241808266230266e-01   2.0824796223347408e-01   2.0565505086469038e-01   2.0824796223352243e-01   2.0565505086468883e-01   2.1015370481807921e-01   2.0349238796445118e-01   2.1015370481812728e-01   2.0349238796449759e-01   2.1465942972358304e-01   1.9963394588624808e-01   2.1465942972367716e-01   1.9963394588633598e-01   2.1482787184741914e-01   1.9946908561413776e-01   2.1482787184741914e-01   1.9946908561422813e-01   2.1387910607145022e-01   2.0035027863831623e-01   2.1387910607145039e-01   2.0035027863827146e-01   2.1471718683812535e-01   1.9952490503594836e-01   2.1471718683817315e-01   1.9952490503581474e-01   2.1017188028253531e-01   2.0397254266265902e-01   2.1017188028253531e-01   2.0397254266265902e-01   2.0890837171312057e-01   2.0510829648588616e-01   2.0890837171312057e-01   2.0510829648578624e-01   2.1484823248643961e-01   1.9944915029224014e-01   2.1484823248643944e-01   1.9944915029223981e-01   2.1379597114038895e-01   1.9997213580796749e-01   2.1379597114038895e-01   1.9997213580796749e-01   2.1347485684533718e-01   2.0052817180393334e-01   2.1347485684538584e-01   2.0052817180388796e-01   2.1479882615443899e-01   1.9937047531457078e-01   2.1479882615453882e-01   1.9937047531457042e-01   2.1146859256644079e-01   2.0217523380381747e-01   2.1146859256644027e-01   2.0217523380381625e-01   2.1300966849796338e-01   2.0115326349885401e-01   2.1300966849801214e-01   2.0115326349885376e-01   2.1463690144579986e-01   2.1463690144575182e-01   2.1463690144584685e-01   2.1463690144579986e-01   2.1434795878236312e-01   2.1434795878250634e-01   2.1434795878241011e-01   2.1434795878250598e-01   2.1434795878231441e-01   2.1434795878241067e-01   2.1434795878245730e-01   2.1434795878245677e-01   2.1468196364129613e-01   2.1468196364134229e-01   2.1468196364134351e-01   2.1468196364124886e-01   2.0394598311879572e-01   2.0995643730372679e-01   2.0394598311879542e-01   2.0995643730382141e-01   2.1412648110101407e-01   2.1412648110111257e-01   2.1412648110111290e-01   2.1412648110111296e-01   2.1292035460752257e-01   2.1292035460747405e-01   2.1292035460752348e-01   2.1292035460752290e-01   2.0175886667033510e-01   2.1217032616775253e-01   2.0175886667042578e-01   2.1217032616770318e-01   2.0394598311879555e-01   2.0995643730372640e-01   2.0394598311879572e-01   2.0995643730372748e-01   2.1292035460757053e-01   2.1292035460747388e-01   2.1292035460757053e-01   2.1292035460747499e-01   2.1412648110101351e-01   2.1412648110101429e-01   2.1412648110111202e-01   2.1412648110111207e-01   2.0175886667024326e-01   2.1217032616765627e-01   2.0175886667033430e-01   2.1217032616775117e-01   2.1424672452735721e-01   2.1424672452735780e-01   2.1424672452730914e-01   2.1424672452726190e-01   2.1484609039155581e-01   2.1484609039155581e-01   2.1484609039165312e-01   2.1484609039165312e-01   2.1424672452740418e-01   2.1424672452721499e-01   2.1424672452730939e-01   2.1424672452721430e-01   2.1480965700150087e-01   2.1480965700140356e-01   2.1480965700150087e-01   2.1480965700150087e-01   2.0710678118670159e-01   2.0710678118658657e-01   2.0710678118658657e-01   2.0710678118658657e-01   2.0369554356235123e-01   2.0987673244867125e-01   2.0369554356235123e-01   2.0987673244867125e-01   2.0369554356245320e-01   2.0987673244867125e-01   2.0369554356245320e-01   2.0987673244856672e-01   2.1333620920770055e-01   2.1333620920781413e-01   2.1333620920781413e-01   2.1333620920770055e-01   2.0550214880208273e-01   2.0809094374501680e-01   2.0550214880208273e-01   2.0809094374492337e-01   2.1367510285522320e-01   2.1367510285512409e-01   2.1367510285512295e-01   2.1367510285512409e-01   2.0487656317181221e-01   2.0866744256597577e-01   2.0487656317181249e-01   2.0866744256607542e-01   2.0293498953813188e-01   2.1103903388719347e-01   2.0293498953822650e-01   2.1103903388719472e-01   2.0550214880208220e-01   2.0809094374492232e-01   2.0550214880198842e-01   2.0809094374501733e-01   2.0487656317181144e-01   2.0866744256597655e-01   2.0487656317181144e-01   2.0866744256607378e-01   2.1367510285502547e-01   2.1367510285512312e-01   2.1367510285512334e-01   2.1367510285522337e-01   2.0293498953813174e-01   2.1103903388719442e-01   2.0293498953813174e-01   2.1103903388729148e-01   2.1279384191786047e-01   2.1279384191796494e-01   2.1279384191786047e-01   2.1279384191786047e-01   2.1489023230997456e-01   2.1489023231007837e-01   2.1489023230997514e-01   2.1489023230997456e-01   2.1279384191786202e-01   2.1279384191786088e-01   2.1279384191796508e-01   2.1279384191786202e-01   2.1480625232008715e-01   2.1480625232008810e-01   2.1480625232008771e-01   2.1480625232019004e-01   2.0789695172442244e-01   2.0596417634430800e-01   2.0789695172432893e-01   2.0596417634430800e-01   2.1162235694602349e-01   2.0241808266230252e-01   2.1162235694602349e-01   2.0241808266230252e-01   2.0824796223352138e-01   2.0565505086473709e-01   2.0824796223342468e-01   2.0565505086464106e-01   2.1015370481803022e-01   2.0349238796440480e-01   2.1015370481803025e-01   2.0349238796440480e-01   2.1465942972367932e-01   1.9963394588625000e-01   2.1465942972367882e-01   1.9963394588624836e-01   2.1482787184741914e-01   1.9946908561413776e-01   2.1482787184741914e-01   1.9946908561413776e-01   2.1387910607154376e-01   2.0035027863831401e-01   2.1387910607154456e-01   2.0035027863831639e-01   2.1471718683822250e-01   1.9952490503585776e-01   2.1471718683812704e-01   1.9952490503577064e-01   2.1017188028247930e-01   2.0397254266260470e-01   2.1017188028247930e-01   2.0397254266271334e-01   2.0890837171312268e-01   2.0510829648588774e-01   2.0890837171322446e-01   2.0510829648588616e-01   2.1484823248643911e-01   1.9944915029219198e-01   2.1484823248643911e-01   1.9944915029209712e-01   2.1379597114038745e-01   1.9997213580796885e-01   2.1379597114038745e-01   1.9997213580796730e-01   2.1347485684528911e-01   2.0052817180379731e-01   2.1347485684528988e-01   2.0052817180379731e-01   2.1479882615438758e-01   1.9937047531452376e-01   2.1479882615448753e-01   1.9937047531452376e-01   2.1146859256644143e-01   2.0217523380381719e-01   2.1146859256644210e-01   2.0217523380391281e-01   2.1300966849806185e-01   2.0115326349880741e-01   2.1300966849806269e-01   2.0115326349880741e-01   2.0789695172423456e-01   2.0596417634430783e-01   2.0789695172423456e-01   2.0596417634430739e-01   2.0824796223362024e-01   2.0565505086464106e-01   2.0824796223352288e-01   2.0565505086473709e-01   2.1162235694593184e-01   2.0241808266230368e-01   2.1162235694602688e-01   2.0241808266230482e-01   2.1015370481803297e-01   2.0349238796440539e-01   2.1015370481803278e-01   2.0349238796440450e-01   2.1017188028247769e-01   2.0397254266260406e-01   2.1017188028247702e-01   2.0397254266271334e-01   2.1484823248654222e-01   1.9944915029219212e-01   2.1484823248643964e-01   1.9944915029228782e-01   2.0890837171312091e-01   2.0510829648578596e-01   2.0890837171332383e-01   2.0510829648578593e-01   2.1379597114038898e-01   1.9997213580786655e-01   2.1379597114038898e-01   1.9997213580796749e-01   2.1465942972358276e-01   1.9963394588624903e-01   2.1465942972358210e-01   1.9963394588633532e-01   2.1387910607145108e-01   2.0035027863822716e-01   2.1387910607145108e-01   2.0035027863822807e-01   2.1482787184741878e-01   1.9946908561413806e-01   2.1482787184741944e-01   1.9946908561422841e-01   2.1471718683812505e-01   1.9952490503577003e-01   2.1471718683812505e-01   1.9952490503585985e-01   2.1146859256634004e-01   2.0217523380381652e-01   2.1146859256644010e-01   2.0217523380381705e-01   2.1479882615448770e-01   1.9937047531461582e-01   2.1479882615448850e-01   1.9937047531452487e-01   2.1347485684528772e-01   2.0052817180388796e-01   2.1347485684528755e-01   2.0052817180388954e-01   2.1300966849796357e-01   2.0115326349880625e-01   2.1300966849806163e-01   2.0115326349880883e-01   2.0789695172432876e-01   2.0596417634430814e-01   2.0789695172423556e-01   2.0596417634430716e-01   2.0824796223342573e-01   2.0565505086473659e-01   2.0824796223352243e-01   2.0565505086473765e-01   2.1162235694602421e-01   2.0241808266221203e-01   2.1162235694592996e-01   2.0241808266239394e-01   2.1015370481812637e-01   2.0349238796440480e-01   2.1015370481812640e-01   2.0349238796440411e-01   2.1017188028247816e-01   2.0397254266271447e-01   2.1017188028247816e-01   2.0397254266260356e-01   2.1484823248643933e-01   1.9944915029219198e-01   2.1484823248643961e-01   1.9944915029228735e-01   2.0890837171322174e-01   2.0510829648578568e-01   2.0890837171311996e-01   2.0510829648588669e-01   2.1379597114038942e-01   1.9997213580796711e-01   2.1379597114049761e-01   1.9997213580786724e-01   2.1465942972358290e-01   1.9963394588616057e-01   2.1465942972348895e-01   1.9963394588616085e-01   2.1387910607145078e-01   2.0035027863822752e-01   2.1387910607145047e-01   2.0035027863831550e-01   2.1482787184732144e-01   1.9946908561404780e-01   2.1482787184732144e-01   1.9946908561422849e-01   2.1471718683812493e-01   1.9952490503585948e-01   2.1471718683812496e-01   1.9952490503576992e-01   2.1146859256633985e-01   2.0217523380381608e-01   2.1146859256644046e-01   2.0217523380381680e-01   2.1479882615458748e-01   1.9937047531443200e-01   2.1479882615458748e-01   1.9937047531452376e-01   2.1347485684538675e-01   2.0052817180388807e-01   2.1347485684529011e-01   2.0052817180388904e-01   2.1300966849806291e-01   2.0115326349890134e-01   2.1300966849806255e-01   2.0115326349871510e-01   2.0789695172423556e-01   2.0596417634421452e-01   2.0789695172423525e-01   2.0596417634440078e-01   2.1162235694602452e-01   2.0241808266230346e-01   2.1162235694602421e-01   2.0241808266212161e-01   2.0824796223352243e-01   2.0565505086464211e-01   2.0824796223352243e-01   2.0565505086473659e-01   2.1015370481812640e-01   2.0349238796449720e-01   2.1015370481803022e-01   2.0349238796431171e-01   2.1465942972367685e-01   1.9963394588624825e-01   2.1465942972367685e-01   1.9963394588624794e-01   2.1482787184732144e-01   1.9946908561422849e-01   2.1482787184741875e-01   1.9946908561431886e-01   2.1387910607145047e-01   2.0035027863813809e-01   2.1387910607145078e-01   2.0035027863822752e-01   2.1471718683822058e-01   1.9952490503594761e-01   2.1471718683812493e-01   1.9952490503594836e-01   2.1017188028259243e-01   2.0397254266271447e-01   2.1017188028259243e-01   2.0397254266271447e-01   2.0890837171322174e-01   2.0510829648598661e-01   2.0890837171311996e-01   2.0510829648578568e-01   2.1484823248654236e-01   1.9944915029228735e-01   2.1484823248643931e-01   1.9944915029209664e-01   2.1379597114038967e-01   1.9997213580806905e-01   2.1379597114038942e-01   1.9997213580796711e-01   2.1347485684529011e-01   2.0052817180397983e-01   2.1347485684548342e-01   2.0052817180379731e-01   2.1479882615468743e-01   1.9937047531443100e-01   2.1479882615448753e-01   1.9937047531461755e-01   2.1146859256644041e-01   2.0217523380391297e-01   2.1146859256644041e-01   2.0217523380381608e-01   2.1300966849796463e-01   2.0115326349871510e-01   2.1300966849806285e-01   2.0115326349880888e-01   2.1463690144556549e-01   2.1463690144594133e-01   2.1463690144594133e-01   2.1463690144594133e-01   2.1434795878231699e-01   2.1434795878269752e-01   2.1434795878231416e-01   2.1434795878269694e-01   2.1434795878231699e-01   2.1434795878231416e-01   2.1434795878193644e-01   2.1434795878193583e-01   2.1468196364162498e-01   2.1468196364125042e-01   2.1468196364125042e-01   2.1468196364087463e-01   2.0394598311879680e-01   2.0995643730372854e-01   2.0394598311879680e-01   2.0995643730372640e-01   2.1412648110111038e-01   2.1412648110111254e-01   2.1412648110150806e-01   2.1412648110111038e-01   2.1292035460757222e-01   2.1292035460757000e-01   2.1292035460718794e-01   2.1292035460757161e-01   2.0175886667