<?xml version="1.0"?>
<VTKFile type="UnstructuredGrid"  version="0.1"  >
<UnstructuredGrid>
<Piece  NumberOfPoints="9136" NumberOfCells="17460">
<Points>
<DataArray  type="Float64"  NumberOfComponents="3"  format="ascii">3 0.3059179772177343 0  2.826192235005252 0.3047689400210052 0  3 0.4876840732277087 0  2.650848904718999 0.3016978094379971 0  2.828721773526102 0.4861653205783054 0  3 0.6663313827030033 0  2.473127361874204 0.2975031491656049 0  2.654933606300413 0.4824004094506196 0  2.832075157123596 0.6641503142471923 0  3 0.8400450330852545 0  2.292893218813298 0.2928932188132978 0  2.477765466230188 0.4777654662301873 0  2.659590949023722 0.6595909490237226 0  2.836584264135747 0.8365842641357473 0  3 1 0  2.297503149165605 0.4731273618742037 0  2.482400409450619 0.654933606300413 0  2.664150314247192 0.8320751571235961 0  2.840045033085254 1 0  3 1.159954966914746 0  3.163415735864253 1.163415735864253 0  3.159954966914746 1 0  2.301697809437997 0.6508489047189985 0  2.486165320578305 0.8287217735261018 0  2.666331382703003 1 0  2.836584264135747 1.163415735864253 0  3 1.333668617296997 0  3.167924842876404 1.335849685752808 0  3.340409050976278 1.340409050976277 0  3.335849685752808 1.167924842876404 0  3.333668617296997 1 0  2.304768940021005 0.8261922350052512 0  2.487684073227709 1 0  2.664150314247192 1.167924842876404 0  2.832075157123596 1.335849685752808 0  3 1.512315926772291 0  3.171278226473898 1.513834679421695 0  3.345066393699587 1.51759959054938 0  3.522234533769812 1.522234533769813 0  3.517599590549381 1.345066393699587 0  3.513834679421695 1.171278226473898 0  3.512315926772291 1 0  2.305917977217734 1 0  2.486165320578305 1.171278226473898 0  2.659590949023722 1.340409050976277 0  2.828721773526102 1.513834679421695 0  3 1.694082022782266 0  3.173807764994749 1.695231059978995 0  3.349151095281001 1.698302190562003 0  3.526872638125796 1.702496850834395 0  3.707106781186702 1.707106781186702 0  3.702496850834395 1.526872638125796 0  3.698302190562003 1.349151095281002 0  3.695231059978995 1.173807764994749 0  3.694082022782266 1 0  2.304768940021005 1.173807764994749 0  2.482400409450619 1.345066393699587 0  2.654933606300413 1.51759959054938 0  2.826192235005251 1.695231059978995 0  2.301697809437997 1.349151095281002 0  2.477765466230188 1.522234533769813 0  2.650848904718999 1.698302190562003 0  2.297503149165605 1.526872638125796 0  2.473127361874204 1.702496850834395 0  2.292893218813298 1.707106781186702 0  2 4.694082022782266 0  1.826192235005251 4.695231059978995 0  2 4.512315926772291 0  1.650848904718999 4.698302190562003 0  1.828721773526102 4.513834679421695 0  2 4.333668617296997 0  1.473127361874204 4.702496850834395 0  1.654933606300413 4.517599590549381 0  1.832075157123596 4.335849685752808 0  2 4.159954966914746 0  1.292893218813298 4.707106781186702 0  1.477765466230187 4.522234533769812 0  1.659590949023723 4.340409050976278 0  1.836584264135747 4.163415735864253 0  2 4 0  1.297503149165605 4.526872638125797 0  1.48240040945062 4.345066393699587 0  1.664150314247192 4.167924842876404 0  1.840045033085254 4 0  2 3.840045033085254 0  2.163415735864253 3.836584264135747 0  2.159954966914746 4 0  1.301697809437997 4.349151095281002 0  1.486165320578305 4.171278226473898 0  1.666331382703003 4 0  1.836584264135747 3.836584264135747 0  2 3.666331382703003 0  2.167924842876404 3.664150314247192 0  2.340409050976278 3.659590949023722 0  2.335849685752808 3.832075157123596 0  2.333668617296997 4 0  1.304768940021005 4.173807764994748 0  1.487684073227709 4 0  1.664150314247192 3.832075157123596 0  1.832075157123596 3.664150314247192 0  2 3.487684073227709 0  2.171278226473898 3.486165320578305 0  2.345066393699587 3.482400409450619 0  2.522234533769812 3.477765466230188 0  2.517599590549381 3.654933606300413 0  2.513834679421695 3.828721773526102 0  2.512315926772291 4 0  1.305917977217734 4 0  1.486165320578305 3.828721773526102 0  1.659590949023723 3.659590949023722 0  1.828721773526102 3.486165320578305 0  2 3.305917977217734 0  2.173807764994749 3.304768940021005 0  2.349151095281001 3.301697809437997 0  2.526872638125796 3.297503149165605 0  2.707106781186702 3.292893218813298 0  2.702496850834395 3.473127361874204 0  2.698302190562003 3.650848904718999 0  2.695231059978995 3.826192235005251 0  2.694082022782266 4 0  1.304768940021005 3.826192235005251 0  1.48240040945062 3.654933606300413 0  1.654933606300413 3.482400409450619 0  1.826192235005251 3.304768940021005 0  1.301697809437997 3.650848904718999 0  1.477765466230187 3.477765466230188 0  1.650848904718998 3.301697809437997 0  1.297503149165605 3.473127361874204 0  1.473127361874204 3.297503149165605 0  1.292893218813298 3.292893218813298 0  -6 5.694082022782266 0  -5.826192235005252 5.695231059978995 0  -6 5.512315926772291 0  -5.650848904718998 5.698302190562003 0  -5.828721773526102 5.513834679421695 0  -6 5.333668617296997 0  -5.473127361874203 5.702496850834395 0  -5.654933606300413 5.517599590549381 0  -5.832075157123596 5.335849685752808 0  -6 5.159954966914746 0  -5.292893218813298 5.707106781186702 0  -5.477765466230188 5.522234533769812 0  -5.659590949023722 5.340409050976278 0  -5.836584264135747 5.163415735864253 0  -6 5 0  -5.297503149165605 5.526872638125797 0  -5.482400409450619 5.345066393699587 0  -5.664150314247192 5.167924842876404 0  -5.840045033085254 5 0  -6 4.840045033085254 0  -6.163415735864253 4.836584264135747 0  -6.159954966914746 5 0  -5.301697809437997 5.349151095281002 0  -5.486165320578305 5.171278226473898 0  -5.666331382703003 5 0  -5.836584264135747 4.836584264135747 0  -6 4.666331382703003 0  -6.167924842876404 4.664150314247192 0  -6.340409050976278 4.659590949023722 0  -6.335849685752808 4.832075157123596 0  -6.333668617296997 5 0  -5.304768940021005 5.173807764994748 0  -5.487684073227709 5 0  -5.664150314247192 4.832075157123596 0  -5.832075157123596 4.664150314247192 0  -6 4.487684073227709 0  -6.171278226473898 4.486165320578305 0  -6.345066393699587 4.482400409450619 0  -6.522234533769812 4.477765466230188 0  -6.517599590549381 4.654933606300413 0  -6.513834679421695 4.828721773526102 0  -6.512315926772291 5 0  -5.305917977217734 5 0  -5.486165320578305 4.828721773526102 0  -5.659590949023722 4.659590949023722 0  -5.828721773526102 4.486165320578305 0  -6 4.305917977217734 0  -6.173807764994748 4.304768940021005 0  -6.349151095281002 4.301697809437997 0  -6.526872638125797 4.297503149165605 0  -6.707106781186702 4.292893218813298 0  -6.702496850834395 4.473127361874203 0  -6.698302190562003 4.650848904718998 0  -6.695231059978995 4.826192235005252 0  -6.694082022782266 5 0  -5.304768940021005 4.826192235005252 0  -5.482400409450619 4.654933606300413 0  -5.654933606300413 4.482400409450619 0  -5.826192235005252 4.304768940021005 0  -5.301697809437997 4.650848904718998 0  -5.477765466230188 4.477765466230188 0  -5.650848904718998 4.301697809437997 0  -5.297503149165605 4.473127361874203 0  -5.473127361874203 4.297503149165605 0  -5.292893218813298 4.292893218813298 0  -5 2.305917977217734 0  -4.826192235005252 2.304768940021005 0  -5 2.487684073227709 0  -4.650848904718998 2.301697809437997 0  -4.828721773526102 2.486165320578305 0  -5 2.666331382703003 0  -4.473127361874203 2.297503149165605 0  -4.654933606300413 2.482400409450619 0  -4.832075157123596 2.664150314247192 0  -5 2.840045033085254 0  -4.292893218813298 2.292893218813298 0  -4.477765466230188 2.477765466230188 0  -4.659590949023722 2.659590949023722 0  -4.836584264135747 2.836584264135747 0  -5 3 0  -4.297503149165605 2.473127361874204 0  -4.482400409450619 2.654933606300413 0  -4.664150314247192 2.832075157123596 0  -4.840045033085254 3 0  -5 3.159954966914746 0  -5.163415735864253 3.163415735864253 0  -5.159954966914746 3 0  -4.301697809437997 2.650848904718999 0  -4.486165320578305 2.828721773526102 0  -4.666331382703003 3 0  -4.836584264135747 3.163415735864253 0  -5 3.333668617296997 0  -5.167924842876404 3.335849685752808 0  -5.340409050976278 3.340409050976278 0  -5.335849685752808 3.167924842876404 0  -5.333668617296997 3 0  -4.304768940021005 2.826192235005251 0  -4.487684073227709 3 0  -4.664150314247192 3.167924842876404 0  -4.832075157123596 3.335849685752808 0  -5 3.512315926772291 0  -5.171278226473898 3.513834679421695 0  -5.345066393699587 3.517599590549381 0  -5.522234533769812 3.522234533769812 0  -5.517599590549381 3.345066393699587 0  -5.513834679421695 3.171278226473898 0  -5.512315926772291 3 0  -4.305917977217734 3 0  -4.486165320578305 3.171278226473898 0  -4.659590949023722 3.340409050976278 0  -4.828721773526102 3.513834679421695 0  -5 3.694082022782266 0  -5.173807764994748 3.695231059978995 0  -5.349151095281002 3.698302190562003 0  -5.526872638125797 3.702496850834395 0  -5.707106781186702 3.707106781186702 0  -5.702496850834395 3.526872638125796 0  -5.698302190562003 3.349151095281001 0  -5.695231059978995 3.173807764994749 0  -5.694082022782266 3 0  -4.304768940021005 3.173807764994749 0  -4.482400409450619 3.345066393699587 0  -4.654933606300413 3.517599590549381 0  -4.826192235005252 3.695231059978995 0  -4.301697809437997 3.349151095281001 0  -4.477765466230188 3.522234533769812 0  -4.650848904718998 3.698302190562003 0  -4.297503149165605 3.526872638125796 0  -4.473127361874203 3.702496850834395 0  -4.292893218813298 3.707106781186702 0  5 1 0  5 1.1875 0  4.836760252847784 1 0  4.777715803246315 1.196559610919311 0  4.839460463216996 1.347314472439327 0  5 1.375 0  4.673520505695566 1 0  4.632635625466378 1.365213346993499 0  4.556044961094186 1.171744017769988 0  4.510280758543349 1 0  4.794773055276885 1.503974827597894 0  5 1.5625 0  4.509532852384659 1.302052263620541 0  4.410856208148409 1.131488582867765 0  4.347041011391132 1 0  4.456349169075412 1.451051581694457 0  4.607229733549753 1.536976478139674 0  4.689743592565922 1.689749170841861 0  4.856245648493844 1.661305922135441 0  5 1.75 0  4.374259326167071 1.272988741846429 0  4.255464305052109 1.37561778694147
[...]
<CellData  Scalars="f_6205"> 
<DataArray  type="Float64"  Name="f_6205"  format="ascii">0.0000000000000000e+00   0.0000000000000000e+00   2.5702696394179156e-15   2.5702696394179156e-15   5.9524291294566836e-03   1.2365983143876679e-15   5.9524291294618470e-03   3.8222129717437057e-15   5.9524291294630761e-03   5.9524291294593733e-03   1.2365983143876727e-15   2.4731966287753406e-15   5.9524291294618470e-03   5.9524291294566836e-03   5.9524291294630761e-03   1.3410102466528261e-15   2.8219612406466695e-02   2.7893460512637490e-02   2.0536676355447897e-02   2.0536676355447897e-02   1.8408185392669568e-02   5.3974952172024096e-02   7.2217540251908125e-03   2.6352801383192810e-15   6.1752726799515557e-04   0.0000000000000000e+00   6.1752726799256844e-04   2.5872118380627960e-15   5.3974952172024096e-02   3.5575603589645205e-02   3.5575603589647793e-02   3.5575603589647793e-02   2.0536676355449236e-02   2.0536676355449236e-02   2.8219612406464107e-02   2.7893460512632647e-02   6.1752726799122089e-04   6.1752726799515643e-04   2.4747243668426739e-15   2.4747243668426739e-15   1.8408185392666889e-02   7.2217540251894377e-03   5.3974952172021709e-02   1.2603513705005250e-15   3.5575603589642818e-02   3.5575603589642818e-02   5.3974952172021709e-02   3.5575603589646759e-02   1.1804310040658664e-02   6.1752726799515557e-04   1.1804310040656079e-02   2.5856146573560382e-15   7.2217540251908125e-03   7.2217540251881774e-03   7.2217540251894377e-03   0.0000000000000000e+00   1.1804310040657316e-02   1.1804310040658553e-02   6.1752726799122089e-04   2.4731966287753438e-15   1.1804310040658553e-02   1.1804310040658664e-02   1.1804310040657316e-02   0.0000000000000000e+00   2.1404344424314801e-02   2.3400122094648806e-04   2.3400122094648806e-04   0.0000000000000000e+00   2.1136124528959747e-02   2.1136124528959747e-02   6.3434357562700439e-02   4.2312415695133124e-02   6.3434357562700439e-02   4.2312415695133124e-02   2.1136124528958335e-02   2.1136124528958335e-02   4.2312415695133124e-02   6.3434357562700439e-02   6.3434357562700439e-02   0.0000000000000000e+00   8.8513763207635817e-03   8.8513763207635817e-03   2.9371828426790883e-02   8.8513763207635817e-03   1.9850710687278544e-02   1.9850710687278610e-02   3.3255708782342554e-02   3.8956315088198091e-15   1.2963038525352895e-02   1.2963038525352895e-02   4.4682898710589961e-02   3.1724454093487280e-02   2.7686719174196021e-02   2.9371828426790883e-02   3.3255708782342554e-02   2.7686719174199900e-02   2.9371828426790810e-02   8.8513763207647093e-03   8.8513763207609137e-03   8.8513763207609137e-03   4.4682898710585964e-02   3.1724454093483283e-02   1.2963038525351561e-02   1.2963038525351561e-02   1.9850710687278519e-02   3.3255708782342554e-02   1.9850710687277232e-02   2.6352801383192810e-15   3.3255708782342554e-02   2.7686719174199900e-02   2.7686719174197277e-02   2.9371828426790810e-02   3.1724454093487280e-02   6.3054455555458643e-03   4.4682898710589961e-02   3.9988732278671501e-15   1.9850710687278610e-02   1.9850710687278519e-02   1.9850710687278544e-02   2.5712421029676560e-15   3.1724454093483283e-02   4.4682898710585964e-02   6.3054455555458643e-03   0.0000000000000000e+00   6.3054455555458643e-03   6.3054455555445789e-03   6.3054455555472920e-03   2.5712421029676560e-15   8.0728870125717344e-03   6.6042799325123844e-03   6.6042799325119446e-03   6.6042799325119446e-03   3.1441609041518846e-02   3.8235105721566826e-02   3.1441609041519283e-02   3.1441609041519283e-02   1.1426205669185686e-02   8.8591459134796310e-03   2.3772291380916646e-02   8.8591459134765033e-03   2.2774225083606662e-02   2.3772291380916646e-02   3.8235105721566826e-02   2.2774225083606221e-02   5.1307202224571323e-02   6.0099837799192889e-02   5.1307202224573654e-02   5.1307202224573654e-02   5.2445643272703756e-02   6.5779346671739389e-02   6.0833533359258417e-02   5.2445643272703756e-02   4.6200590586584885e-02   5.6066634580311005e-02   4.6200590586584232e-02   4.6200590586584232e-02   5.1883238616439953e-02   6.0833533359258417e-02   6.0099837799192889e-02   5.1883238616439321e-02   2.1170369712072895e-02   2.1404344424314801e-02   7.2080849383165377e-02   2.1170369712072895e-02   1.7046364714717682e-02   1.2980393885956865e-02   3.4962309523194457e-02   1.2980393885956292e-02   5.2583282769942875e-02   7.6104189971864702e-02   6.6414254508491685e-02   5.2583282769942875e-02   4.7258593998220577e-02   7.2080849383165377e-02   7.6104189971864702e-02   4.7258593998220001e-02   4.4234597761584740e-02   5.0135299226575725e-02   5.6066634580311005e-02   4.4234597761585163e-02   5.2698781014193119e-02   6.6414254508491685e-02   6.5779346671739389e-02   5.2698781014193771e-02   3.1774912886779277e-02   3.4962309523194457e-02   5.2497069975626573e-02   3.1774912886776155e-02   4.0493052646719985e-02   5.2497069975626573e-02   5.0135299226575725e-02   4.0493052646720651e-02   6.6042799325097415e-03   6.6042799325097415e-03   6.6042799325097415e-03   6.6042799325097415e-03   8.8591459134776084e-03   8.8591459134776084e-03   2.3772291380913094e-02   8.8591459134776084e-03   3.1441609041518173e-02   3.8235105721566819e-02   3.1441609041515786e-02   3.1441609041515786e-02   2.2774225083604237e-02   2.3772291380913094e-02   3.8235105721566819e-02   2.2774225083604237e-02   2.1170369712072895e-02   2.1170369712072895e-02   7.2080849383165960e-02   2.1170369712072895e-02   5.2583282769943576e-02   7.6104189971866618e-02   6.6414254508490422e-02   5.2583282769943576e-02   1.2980393885956740e-02   1.2980393885956740e-02   3.4962309523193097e-02   1.2980393885954230e-02   4.7258593998223061e-02   7.2080849383165960e-02   7.6104189971866618e-02   4.7258593998220549e-02   5.1307202224575119e-02   6.0099837799193229e-02   5.1307202224577457e-02   5.1307202224577457e-02   4.6200590586586238e-02   5.6066634580312268e-02   4.6200590586588583e-02   4.6200590586588583e-02   5.2445643272703756e-02   6.5779346671736738e-02   6.0833533359258195e-02   5.2445643272703756e-02   5.1883238616440078e-02   6.0833533359258195e-02   6.0099837799193229e-02   5.1883238616442437e-02   3.1774912886778611e-02   3.4962309523193097e-02   5.2497069975624616e-02   3.1774912886778611e-02   5.2698781014188498e-02   6.6414254508490422e-02   6.5779346671736738e-02   5.2698781014191121e-02   4.4234597761586419e-02   5.0135299226576516e-02   5.6066634580312268e-02   4.4234597761584046e-02   4.0493052646718590e-02   5.2497069975624616e-02   5.0135299226576516e-02   4.0493052646721213e-02   8.0728870125719668e-03   6.6042799325123922e-03   6.6042799325148130e-03   6.6042799325148130e-03   1.1426205669187024e-02   8.8591459134758112e-03   2.3772291380912955e-02   8.8591459134770394e-03   3.1441609041518617e-02   3.8235105721565348e-02   3.1441609041516230e-02   3.1441609041516230e-02   2.2774225083603650e-02   2.3772291380912955e-02   3.8235105721565348e-02   2.2774225083606069e-02   2.1170369712072895e-02   2.1404344424314801e-02   7.2080849383166751e-02   2.1170369712072895e-02   5.2583282769944596e-02   7.6104189971866451e-02   6.6414254508491005e-02   5.2583282769943493e-02   1.7046364714719091e-02   1.2980393885958234e-02   3.4962309523193236e-02   1.2980393885954351e-02   4.7258593998223263e-02   7.2080849383166751e-02   7.6104189971866451e-02   4.7258593998219377e-02   5.1307202224575563e-02   6.0099837799195227e-02   5.1307202224576826e-02   5.1307202224576826e-02   4.6200590586586120e-02   5.6066634580312254e-02   4.6200590586587389e-02   4.6200590586587389e-02   5.2445643272703756e-02   6.5779346671736738e-02   6.0833533359258417e-02   5.2445643272703756e-02   5.1883238616439953e-02   6.0833533359258417e-02   6.0099837799195227e-02   5.1883238616441237e-02   3.1774912886778854e-02   3.4962309523193236e-02   5.2497069975625414e-02   3.1774912886780089e-02   5.2698781014188498e-02   6.6414254508491005e-02   6.5779346671736738e-02   5.2698781014191121e-02   4.4234597761586412e-02   5.0135299226576731e-02   5.6066634580312254e-02   4.4234597761584032e-02   4.0493052646718590e-02   5.2497069975625414e-02   5.0135299226576731e-02   4.0493052646721213e-02   6.6042799325123844e-03   6.6042799325123844e-03   6.6042799325123844e-03   6.6042799325123844e-03   3.1441609041519956e-02   3.1441609041519956e-02   3.1441609041519956e-02   3.8235105721567818e-02   2.3772291380916646e-02   8.8591459134758337e-03   8.8591459134796310e-03   8.8591459134796310e-03   3.8235105721567818e-02   2.2774225083607224e-02   2.2774225083607224e-02   2.3772291380916646e-02   5.1307202224576826e-02   5.1307202224576826e-02   5.1307202224575563e-02   6.0099837799195227e-02   6.0833533359258417e-02   5.2445643272703756e-02   5.2445643272703756e-02   6.5779346671740652e-02   4.6200590586583601e-02   4.6200590586583601e-02   4.6200590586584885e-02   5.6066634580311005e-02   6.0099837799195227e-02   5.1883238616438669e-02   5.1883238616439953e-02   6.0833533359258417e-02   7.2080849383165377e-02   2.1170369712072895e-02   2.1170369712072895e-02   2.1170369712072895e-02   3.4962309523194457e-02   1.2980393885956865e-02   1.2980393885956865e-02   1.2980393885956865e-02   6.6414254508492351e-02   5.2583282769942209e-02   5.2583282769943313e-02   7.6104189971865147e-02   7.6104189971865147e-02   4.7258593998220577e-02   4.7258593998220577e-02   7.2080849383165377e-02   5.6066634580311005e-02   4.4234597761585163e-02   4.4234597761585163e-02   5.0135299226574226e-02   6.5779346671740652e-02   5.2698781014193730e-02   5.2698781014195041e-02   6.6414254508492351e-02   5.2497069975626656e-02   3.1774912886774906e-02   3.1774912886778701e-02   3.4962309523194457e-02   5.0135299226574226e-02   4.0493052646717397e-02   4.0493052646718708e-02   5.2497069975626656e-02   0.0000000000000000e+00   2.5702696394179156e-15   0.0000000000000000e+00   2.5702696394179156e-15   5.9524291294630761e-03   1.2365983143876727e-15   5.9524291294593733e-03   2.4731966287753406e-15   5.9524291294566836e-03   5.9524291294618470e-03   1.2365983143876679e-15   3.8222129717437057e-15   5.9524291294618470e-03   5.9524291294630761e-03   5.9524291294566836e-03   1.3410102466528261e-15   2.8219612406464107e-02   2.7893460512632647e-02   2.0536676355449236e-02   2.0536676355449236e-02   1.8408185392666889e-02   5.3974952172021709e-02   7.2217540251894377e-03   1.2603513705005250e-15   6.1752726799122089e-04   2.4747243668426739e-15   6.1752726799515643e-04   2.4747243668426739e-15   5.3974952172021709e-02   3.5575603589646759e-02   3.5575603589642818e-02   3.5575603589642818e-02   2.0536676355447897e-02   2.0536676355447897e-02   2.8219612406466695e-02   2.7893460512637490e-02   6.1752726799515557e-04   6.1752726799256844e-04   0.0000000000000000e+00   2.5872118380627960e-15   1.8408185392669568e-02   7.2217540251908125e-03   5.3974952172024096e-02   2.6352801383192810e-15   3.5575603589647793e-02   3.5575603589647793e-02   5.3974952172024096e-02   3.5575603589645205e-02   1.1804310040657316e-02   6.1752726799122089e-04   1.1804310040658553e-02   2.4731966287753438e-15   7.2217540251908125e-03   7.2217540251894377e-03   7.2217540251881774e-03   0.0000000000000000e+00   1.1804310040658664e-02   1.1804310040656079e-02   6.1752726799515557e-04   2.5856146573560382e-15   1.1804310040658553e-02   1.1804310040657316e-02   1.1804310040658664e-02   0.0000000000000000e+00   2.1404344424314801e-02   2.3400122094366664e-04   2.3400122094648806e-04   0.0000000000000000e+00   2.1136124528958335e-02   2.1136124528958335e-02   6.3434357562700439e-02   4.2312415695133124e-02   6.3434357562700439e-02   4.2312415695133124e-02   2.1136124528959747e-02   2.1136124528959747e-02   4.2312415695133124e-02   6.3434357562700439e-02   6.3434357562700439e-02   0.0000000000000000e+00   8.8513763207609137e-03   8.8513763207609137e-03   2.9371828426790810e-02   8.8513763207647093e-03   1.9850710687278519e-02   1.9850710687277232e-02   3.3255708782342554e-02   2.6352801383192810e-15   1.2963038525351561e-02   1.2963038525351561e-02   4.4682898710585964e-02   3.1724454093483283e-02   2.7686719174197277e-02   2.9371828426790810e-02   3.3255708782342554e-02   2.7686719174199900e-02   2.9371828426790883e-02   8.8513763207635817e-03   8.8513763207635817e-03   8.8513763207635817e-03   4.4682898710589961e-02   3.1724454093487280e-02   1.2963038525352895e-02   1.2963038525352895e-02   1.9850710687278544e-02   3.3255708782342554e-02   1.9850710687278610e-02   3.8956315088198091e-15   3.3255708782342554e-02   2.7686719174199900e-02   2.7686719174196021e-02   2.9371828426790883e-02   3.1724454093483283e-02   6.3054455555458643e-03   4.4682898710585964e-02   0.0000000000000000e+00   1.9850710687278610e-02   1.9850710687278544e-02   1.9850710687278519e-02   2.5712421029676560e-15   3.1724454093487280e-02   4.4682898710589961e-02   6.3054455555458643e-03   3.9988732278671501e-15   6.3054455555458643e-03   6.3054455555472920e-03   6.3054455555445789e-03   2.5712421029676560e-15   8.0728870125719668e-03   6.6042799325123922e-03   6.6042799325123922e-03   6.6042799325123922e-03   3.1441609041516154e-02   3.8235105721565348e-02   3.1441609041516154e-02   3.1441609041516154e-02   1.1426205669187024e-02   8.8591459134758112e-03   2.3772291380912955e-02   8.8591459134770394e-03   2.2774225083603650e-02   2.3772291380912955e-02   3.8235105721565348e-02   2.2774225083603650e-02   5.1307202224578241e-02   6.0099837799198065e-02   5.1307202224581856e-02   5.1307202224581856e-02   5.2445643272703756e-02   6.5779346671736738e-02   6.0833533359263330e-02   5.2445643272703756e-02   4.6200590586588562e-02   5.6066634580317180e-02   4.6200590586582366e-02   4.6200590586582366e-02   5.1883238616450056e-02   6.0833533359263330e-02   6.0099837799198065e-02   5.1883238616443846e-02   2.1170369712072954e-02   2.1404344424312039e-02   7.2080849383164433e-02   2.1170369712078477e-02   1.7046364714714005e-02   1.2980393885958185e-02   3.4962309523198322e-02   1.2980393885961951e-02   5.2583282769942036e-02   7.6104189971861191e-02   6.6414254508491061e-02   5.2583282769940919e-02   4.7258593998212868e-02   7.2080849383164433e-02   7.6104189971861191e-02   4.7258593998216636e-02   4.4234597761586412e-02   5.0135299226576731e-02   5.6066634580317180e-02   4.4234597761586412e-02   5.2698781014191121e-02   6.6414254508491061e-02   6.5779346671736738e-02   5.2698781014191121e-02   3.1774912886781394e-02   3.4962309523198322e-02   5.2497069975630577e-02   3.1774912886782615e-02   4.0493052646721213e-02   5.2497069975630577e-02   5.0135299226576731e-02   4.0493052646721213e-02   6.6042799325099566e-03   6.6042799325099566e-03   6.6042799325110556e-03   6.6042799325110556e-03   8.8591459134822210e-03   8.8591459134822210e-03   2.3772291380918135e-02   8.8591459134809928e-03   3.1441609041523898e-02   3.8235105721570795e-02   3.1441609041520005e-02   3.1441609041520005e-02   2.2774225083610176e-02   2.3772291380918135e-02   3.8235105721570795e-02   2.2774225083611276e-02   2.1170369712067434e-02   2.1170369712067434e-02   7.2080849383162698e-02   2.1170369712072958e-02   5.2583282769943313e-02   7.6104189971865147e-02   6.6414254508494752e-02   5.2583282769942209e-02   1.2980393885956865e-02   1.2980393885956865e-02   3.4962309523194457e-02   1.2980393885956865e-02   4.7258593998220577e-02   7.2080849383162698e-02   7.6104189971865147e-02   4.7258593998220577e-02   5.1307202224570650e-02   6.0099837799192889e-02   5.1307202224574265e-02   5.1307202224574265e-02   4.6200590586586120e-02   5.6066634580307168e-02   4.6200590586584822e-02   4.6200590586584822e-02   5.2445643272703756e-02   6.5779346671738001e-02   6.0833533359258417e-02   5.2445643272703756e-02   5.1883238616439953e-02   6.0833533359258417e-02   6.0099837799192889e-02   5.1883238616438669e-02   3.1774912886778701e-02   3.4962309523194457e-02   5.2497069975629064e-02   3.1774912886777473e-02   5.2698781014194798e-02   6.6414254508494752e-02   6.5779346671738001e-02   5.2698781014188456e-02   4.4234597761580237e-02   5.0135299226573143e-02   5.6066634580307168e-02   4.4234597761576344e-02   4.0493052646721116e-02   5.2497069975629064e-02   5.0135299226573143e-02   4.0493052646714774e-02   8.0728870125706276e-03   6.6042799325123922e-03   6.6042799325148130e-03   6.6042799325148130e-03   1.1426205669185686e-02   8.8591459134796310e-03   2.3772291380915543e-02   8.8591459134770619e-03   3.1441609041518617e-02   3.8235105721565348e-02   3.1441609041516230e-02   3.1441609041516230e-02   2.2774225083603650e-02   2.3772291380915543e-02   3.8235105721565348e-02   2.2774225083606069e-02   2.1170369712072895e-02   2.1404344424314801e-02   7.2080849383166751e-02   2.1170369712072895e-02   5.2583282769943313e-02   7.6104189971866451e-02   6.6414254508489728e-02   5.2583282769943313e-02   1.7046364714719070e-02   1.2980393885956846e-02   3.4962309523193076e-02   1.2980393885954221e-02   4.7258593998223263e-02   7.2080849383166751e-02   7.6104189971866451e-02   4.7258593998220640e-02   5.1307202224576826e-02   6.0099837799195262e-02   5.1307202224576826e-02   5.1307202224576826e-02   4.6200590586584822e-02   5.6066634580312219e-02   4.6200590586587389e-02   4.6200590586587389e-02   5.2445643272701209e-02   6.5779346671735447e-02   6.0833533359255877e-02   5.2445643272701209e-02   5.1883238616437427e-02   6.0833533359255877e-02   6.0099837799195262e-02   5.1883238616439994e-02   3.1774912886778701e-02   3.4962309523193076e-02   5.2497069975624033e-02   3.1774912886776134e-02   5.2698781014188498e-02   6.6414254508489728e-02   6.5779346671735447e-02   5.2698781014191121e-02   4.4234597761587661e-02   5.0135299226577980e-02   5.6066634580312219e-02   4.4234597761585281e-02   4.0493052646719846e-02   5.2497069975624033e-02   5.0135299226577980e-02   4.0493052646722469e-02   6.6042799325148130e-03   6.6042799325148130e-03   6.6042799325123922e-03   6.6042799325123922e-03   3.1441609041516230e-02   3.1441609041516230e-02   3.1441609041518617e-02   3.8235105721565348e-02   2.3772291380915543e-02   8.8591459134770619e-03   8.8591459134796310e-03   8.8591459134796310e-03   3.8235105721565348e-02   2.2774225083606069e-02   2.2774225083603650e-02   2.3772291380915543e-02   5.1307202224576826e-02   5.1307202224576826e-02   5.1307202224576826e-02   6.0099837799195262e-02   6.0833533359255877e-02   5.2445643272701209e-02   5.2445643272701209e-02   6.5779346671735447e-02   4.6200590586587389e-02   4.6200590586587389e-02   4.6200590586584822e-02   5.6066634580312219e-02   6.0099837799195262e-02   5.1883238616439994e-02   5.1883238616437427e-02   6.0833533359255877e-02   7.2080849383166751e-02   2.1170369712072895e-02   2.1170369712072895e-02   2.1170369712072895e-02   3.4962309523193076e-02   1.2980393885954221e-02   1.2980393885956846e-02   1.2980393885956846e-02   6.6414254508489728e-02   5.2583282769943313e-02   5.2583282769943313e-02   7.6104189971866451e-02   7.6104189971866451e-02   4.7258593998220640e-02   4.7258593998223263e-02   7.2080849383166751e-02   5.6066634580312219e-02   4.4234597761585281e-02   4.4234597761587661e-02   5.0135299226577980e-02   6.5779346671735447e-02   5.2698781014191121e-02   5.2698781014188498e-02   6.6414254508489728e-02   5.2497069975624033e-02   3.1774912886776134e-02   3.1774912886778701e-02   3.4962309523193076e-02   5.0135299226577980e-02   4.0493052646722469e-02   4.0493052646719846e-02   5.2497069975624033e-02   0.0000000000000000e+00   0.0000000000000000e+00   0.0000000000000000e+00   0.0000000000000000e+00   5.9524291294632114e-03   1.1241802858069790e-16   5.9524291294580402e-03   5.1712293147120898e-15   5.9524291294632114e-03   5.9524291294580402e-03   1.1241802858069790e-16   5.1712293147120898e-15   5.9524291294580402e-03   5.9524291294632114e-03   5.9524291294632114e-03   0.0000000000000000e+00   2.8219612406462865e-02   2.7893460512626783e-02   2.0536676355444181e-02   2.0536676355444181e-02   1.8408185392661709e-02   5.3974952172011835e-02   7.2217540251841962e-03   5.1559828793203128e-15   6.1752726799392218e-04   5.2869111473457335e-15   6.1752726799897781e-04   5.2869111473457335e-15   5.3974952172