<?xml version="1.0"?>
<VTKFile type="UnstructuredGrid"  version="0.1"  >
<UnstructuredGrid>
<Piece  NumberOfPoints="7625" NumberOfCells="14472">
<Points>
<DataArray  type="Float64"  NumberOfComponents="3"  format="ascii">3 0.3378215821452335 0  2.833441594912761 0.3337663796510457 0  3 0.5329865384474093 0  2.661503918807094 0.3230078376141886 0  2.842489777594233 0.5274693327827005 0  3 0.7176341807104085 0  2.481388254524131 0.3085176726988411 0  2.675936639001904 0.5139049585028559 0  2.854783967522197 0.709567935044394 0  3 0.8839527516772595 0  2.292893218813257 0.2928932188132569 0  2.497472710738964 0.4974727107389642 0  2.692797973444407 0.6927979734444063 0  2.871431999438945 0.8714319994389447 0  3 1 0  2.308517672698841 0.4813882545241308 0  2.513904958502856 0.6759366390019039 0  2.709567935044394 0.854783967522197 0  2.883952751677259 1 0  3 1.116047248322741 0  3.128568000561055 1.128568000561055 0  3.116047248322741 1 0  2.323007837614188 0.6615039188070941 0  2.5274693327827 0.8424897775942335 0  2.717634180710409 1 0  2.871431999438945 1.128568000561055 0  3 1.282365819289591 0  3.145216032477803 1.290432064955606 0  3.307202026555593 1.307202026555594 0  3.290432064955606 1.145216032477803 0  3.282365819289591 1 0  2.333766379651045 0.8334415949127614 0  2.53298653844741 1 0  2.709567935044394 1.145216032477803 0  2.854783967522197 1.290432064955606 0  3 1.467013461552591 0  3.157510222405767 1.4725306672173 0  3.324063360998096 1.486095041497144 0  3.502527289261036 1.502527289261036 0  3.486095041497144 1.324063360998096 0  3.4725306672173 1.157510222405767 0  3.46701346155259 1 0  2.337821582145233 1 0  2.5274693327827 1.157510222405767 0  2.692797973444407 1.307202026555594 0  2.842489777594233 1.4725306672173 0  3 1.662178417854766 0  3.166558405087239 1.666233620348955 0  3.338496081192906 1.676992162385812 0  3.518611745475869 1.691482327301159 0  3.707106781186743 1.707106781186743 0  3.691482327301159 1.518611745475869 0  3.676992162385812 1.338496081192906 0  3.666233620348955 1.166558405087239 0  3.662178417854767 1 0  2.333766379651045 1.166558405087239 0  2.513904958502856 1.324063360998096 0  2.675936639001904 1.486095041497144 0  2.833441594912761 1.666233620348955 0  2.323007837614188 1.338496081192906 0  2.497472710738964 1.502527289261036 0  2.661503918807094 1.676992162385812 0  2.308517672698841 1.518611745475869 0  2.481388254524131 1.691482327301159 0  2.292893218813257 1.707106781186743 0  2 4.662178417854767 0  1.833441594912761 4.666233620348955 0  2 4.46701346155259 0  1.661503918807094 4.676992162385812 0  1.842489777594233 4.472530667217299 0  2 4.282365819289591 0  1.481388254524131 4.691482327301159 0  1.675936639001904 4.486095041497144 0  1.854783967522197 4.290432064955606 0  2 4.11604724832274 0  1.292893218813257 4.707106781186743 0  1.497472710738964 4.502527289261036 0  1.692797973444406 4.307202026555593 0  1.871431999438945 4.128568000561056 0  2 4 0  1.308517672698841 4.518611745475869 0  1.513904958502856 4.324063360998096 0  1.709567935044394 4.145216032477803 0  1.883952751677259 4 0  2 3.883952751677259 0  2.128568000561055 3.871431999438945 0  2.116047248322741 4 0  1.323007837614188 4.338496081192906 0  1.5274693327827 4.157510222405767 0  1.717634180710409 4 0  1.871431999438945 3.871431999438945 0  2 3.717634180710409 0  2.145216032477803 3.709567935044394 0  2.307202026555593 3.692797973444407 0  2.290432064955606 3.854783967522197 0  2.282365819289591 4 0  1.333766379651045 4.166558405087239 0  1.532986538447409 4 0  1.709567935044394 3.854783967522197 0  1.854783967522197 3.709567935044394 0  2 3.53298653844741 0  2.157510222405767 3.5274693327827 0  2.324063360998096 3.513904958502856 0  2.502527289261036 3.497472710738964 0  2.486095041497144 3.675936639001904 0  2.4725306672173 3.842489777594233 0  2.46701346155259 4 0  1.337821582145234 4 0  1.5274693327827 3.842489777594233 0  1.692797973444406 3.692797973444407 0  1.842489777594233 3.5274693327827 0  2 3.337821582145233 0  2.166558405087239 3.333766379651045 0  2.338496081192906 3.323007837614188 0  2.518611745475869 3.308517672698841 0  2.707106781186743 3.292893218813257 0  2.691482327301159 3.481388254524131 0  2.676992162385812 3.661503918807094 0  2.666233620348955 3.833441594912761 0  2.662178417854767 4 0  1.333766379651045 3.833441594912761 0  1.513904958502856 3.675936639001904 0  1.675936639001904 3.513904958502856 0  1.833441594912761 3.333766379651045 0  1.323007837614188 3.661503918807094 0  1.497472710738964 3.497472710738964 0  1.661503918807094 3.323007837614188 0  1.308517672698841 3.481388254524131 0  1.481388254524131 3.308517672698841 0  1.292893218813257 3.292893218813257 0  -6 5.662178417854767 0  -5.833441594912761 5.666233620348955 0  -6 5.46701346155259 0  -5.661503918807094 5.676992162385812 0  -5.842489777594234 5.472530667217299 0  -6 5.282365819289591 0  -5.481388254524131 5.691482327301159 0  -5.675936639001904 5.486095041497144 0  -5.854783967522197 5.290432064955606 0  -6 5.11604724832274 0  -5.292893218813257 5.707106781186743 0  -5.497472710738964 5.502527289261036 0  -5.692797973444407 5.307202026555593 0  -5.871431999438944 5.128568000561056 0  -6 5 0  -5.308517672698841 5.518611745475869 0  -5.513904958502856 5.324063360998096 0  -5.709567935044394 5.145216032477803 0  -5.88395275167726 5 0  -6 4.88395275167726 0  -6.128568000561056 4.871431999438944 0  -6.11604724832274 5 0  -5.323007837614188 5.338496081192906 0  -5.527469332782701 5.157510222405767 0  -5.717634180710409 5 0  -5.871431999438944 4.871431999438944 0  -6 4.717634180710409 0  -6.145216032477803 4.709567935044394 0  -6.307202026555593 4.692797973444407 0  -6.290432064955606 4.854783967522197 0  -6.282365819289591 5 0  -5.333766379651045 5.166558405087239 0  -5.53298653844741 5 0  -5.709567935044394 4.854783967522197 0  -5.854783967522197 4.709567935044394 0  -6 4.53298653844741 0  -6.157510222405766 4.527469332782701 0  -6.324063360998096 4.513904958502856 0  -6.502527289261036 4.497472710738964 0  -6.486095041497144 4.675936639001904 0  -6.472530667217299 4.842489777594234 0  -6.46701346155259 5 0  -5.337821582145233 5 0  -5.527469332782701 4.842489777594234 0  -5.692797973444407 4.692797973444407 0  -5.842489777594234 4.527469332782701 0  -6 4.337821582145233 0  -6.166558405087239 4.333766379651045 0  -6.338496081192906 4.323007837614188 0  -6.518611745475869 4.308517672698841 0  -6.707106781186743 4.292893218813257 0  -6.691482327301159 4.481388254524131 0  -6.676992162385812 4.661503918807094 0  -6.666233620348955 4.833441594912761 0  -6.662178417854767 5 0  -5.333766379651045 4.833441594912761 0  -5.513904958502856 4.675936639001904 0  -5.675936639001904 4.513904958502856 0  -5.833441594912761 4.333766379651045 0  -5.323007837614188 4.661503918807094 0  -5.497472710738964 4.497472710738964 0  -5.661503918807094 4.323007837614188 0  -5.308517672698841 4.481388254524131 0  -5.481388254524131 4.308517672698841 0  -5.292893218813257 4.292893218813257 0  -5 2.337821582145233 0  -4.833441594912761 2.333766379651045 0  -5 2.53298653844741 0  -4.661503918807094 2.323007837614189 0  -4.842489777594234 2.5274693327827 0  -5 2.717634180710409 0  -4.481388254524131 2.308517672698841 0  -4.675936639001904 2.513904958502856 0  -4.854783967522197 2.709567935044394 0  -5 2.883952751677259 0  -4.292893218813257 2.292893218813257 0  -4.497472710738964 2.497472710738964 0  -4.692797973444407 2.692797973444407 0  -4.871431999438944 2.871431999438945 0  -5 3 0  -4.308517672698841 2.481388254524131 0  -4.513904958502856 2.675936639001904 0  -4.709567935044394 2.854783967522197 0  -4.88395275167726 3 0  -5 3.116047248322741 0  -5.128568000561056 3.128568000561055 0  -5.11604724832274 3 0  -4.323007837614188 2.661503918807094 0  -4.527469332782701 2.842489777594233 0  -4.717634180710409 3 0  -4.871431999438944 3.128568000561055 0  -5 3.282365819289591 0  -5.145216032477803 3.290432064955606 0  -5.307202026555593 3.307202026555593 0  -5.290432064955606 3.145216032477803 0  -5.282365819289591 3 0  -4.333766379651045 2.833441594912761 0  -4.53298653844741 3 0  -4.709567935044394 3.145216032477803 0  -4.854783967522197 3.290432064955606 0  -5 3.46701346155259 0  -5.157510222405766 3.4725306672173 0  -5.324063360998096 3.486095041497144 0  -5.502527289261036 3.502527289261036 0  -5.486095041497144 3.324063360998096 0  -5.472530667217299 3.157510222405767 0  -5.46701346155259 3 0  -4.337821582145233 3 0  -4.527469332782701 3.157510222405767 0  -4.692797973444407 3.307202026555593 0  -4.842489777594234 3.4725306672173 0  -5 3.662178417854767 0  -5.166558405087239 3.666233620348955 0  -5.338496081192906 3.676992162385812 0  -5.518611745475869 3.691482327301159 0  -5.707106781186743 3.707106781186743 0  -5.691482327301159 3.518611745475869 0  -5.676992162385812 3.338496081192906 0  -5.666233620348955 3.166558405087239 0  -5.662178417854767 3 0  -4.333766379651045 3.166558405087239 0  -4.513904958502856 3.324063360998096 0  -4.675936639001904 3.486095041497144 0  -4.833441594912761 3.666233620348955 0  -4.323007837614188 3.338496081192906 0  -4.497472710738964 3.502527289261036 0  -4.661503918807094 3.676992162385812 0  -4.308517672698841 3.518611745475869 0  -4.481388254524131 3.691482327301159 0  -4.292893218813257 3.707106781186743 0  5 4 0  5 3.8125 0  4.853886151115923 4 0  5 3.625 0  4.80632430795117 3.775436298854279 0  4.707772302231846 4 0  4.79366141355045 3.578587735402333 0  4.673383251713283 3.680732660129706 0  4.561658453347769 3.792168701394072 0  4.56165845334777 4 0  5 3.4375 0  4.600014989010139 3.541027542505437 0  4.789717798409911 3.381371727615638 0  5 3.25 0  4.458472067662114 3.674611746363634 0  4.342487680021653 3.850039194045292 0  4.415544604463692 4 0  4.407847296295088 3.526611069368785 0  4.609194292726674 3.359404168011995 0  4.643840673849824 3.180879833384543 0  4.832283973092349 3.162038632311764 0  5 3.0625 0  4.302631777076505 3.688060601225307 0  4.165321303746107 3.816637485
[...]
<CellData  Scalars="f_6727"> 
<DataArray  type="Float64"  Name="f_6727"  format="ascii">0.0000000000000000e+00   2.4976801812028921e-15   1.3623710079288478e-15   2.4976801812028921e-15   2.0702337038512784e-02   1.2749644163626915e-15   2.0702337038518152e-02   1.5067761284286373e-15   2.0702337038518034e-02   2.0702337038515484e-02   0.0000000000000000e+00   2.5499288327253849e-15   2.0702337038518152e-02   2.0702337038512784e-02   2.0702337038518034e-02   3.8600511891317401e-15   9.9996805019024429e-02   9.6977889548800406e-02   7.0237244526937789e-02   7.0237244526937789e-02   7.0335473272385568e-02   1.9659571038073873e-01   2.7069434350721840e-02   4.2312729862163108e-15   7.5487774345417771e-04   0.0000000000000000e+00   7.5487774345417771e-04   0.0000000000000000e+00   1.9659571038073873e-01   1.2669822184909041e-01   1.2669822184909041e-01   1.2669822184909041e-01   7.0237244526936971e-02   7.0237244526936971e-02   9.9996805019023388e-02   9.6977889548801516e-02   7.5487774345151188e-04   7.5487774345151188e-04   0.0000000000000000e+00   0.0000000000000000e+00   7.0335473272385443e-02   2.7069434350721719e-02   1.9659571038074158e-01   1.2444920547695050e-15   1.2669822184909041e-01   1.2669822184909041e-01   1.9659571038074158e-01   1.2669822184909041e-01   4.4041160700135543e-02   7.5487774345417771e-04   4.4041160700132760e-02   2.7817405447913290e-15   2.7069434350721840e-02   2.7069434350721840e-02   2.7069434350721719e-02   0.0000000000000000e+00   4.4041160700132878e-02   4.4041160700135425e-02   7.5487774345151188e-04   2.5499288327253849e-15   4.4041160700135425e-02   4.4041160700135543e-02   4.4041160700132878e-02   0.0000000000000000e+00   1.0237098705373519e-01   5.7868776697792583e-03   5.7868776697794491e-03   3.8898085770735913e-15   9.4120512519050903e-02   9.4120512519050903e-02   2.9212061270314676e-01   1.9937050032204670e-01   2.9212061270314083e-01   1.9937050032204190e-01   9.4120512519045588e-02   9.4120512519045588e-02   1.9937050032204670e-01   2.9212061270314083e-01   2.9212061270314676e-01   3.8898085770735913e-15   3.4231467835174445e-02   3.4231467835174445e-02   1.0952175719061634e-01   3.4231467835178157e-02   8.2451516261444396e-02   8.2451516261444271e-02   1.2611678240642404e-01   2.6134333150159620e-15   5.3957083019086097e-02   5.3957083019086097e-02   1.8491108027669484e-01   1.3128145464150831e-01   1.0141530201536049e-01   1.0952175719061634e-01   1.2611678240642404e-01   1.0141530201536049e-01   1.0952175719061823e-01   3.4231467835177470e-02   3.4231467835174660e-02   3.4231467835174660e-02   1.8491108027669317e-01   1.3128145464150548e-01   5.3957083019089053e-02   5.3957083019089053e-02   8.2451516261444147e-02   1.2611678240642119e-01   8.2451516261444147e-02   4.2312729862163108e-15   1.2611678240642119e-01   1.0141530201536195e-01   1.0141530201536195e-01   1.0952175719061823e-01   1.3128145464150831e-01   2.4189054567357472e-02   1.8491108027669484e-01   2.7692129539292938e-15   8.2451516261444271e-02   8.2451516261444147e-02   8.2451516261444396e-02   1.4866658273563462e-15   1.3128145464150548e-01   1.8491108027669317e-01   2.4189054567362318e-02   3.4615161924116233e-15   2.4189054567362318e-02   2.4189054567360344e-02   2.4189054567360240e-02   1.4866658273563462e-15   2.7907625900361305e-02   2.4041845048143023e-02   2.4041845048143023e-02   2.4041845048143023e-02   1.0851201022719688e-01   1.3012086347415322e-01   1.0851201022719932e-01   1.0851201022719932e-01   4.2417834275197311e-02   3.4582148282542614e-02   8.4873859529048745e-02   3.4582148282545425e-02   8.0005332960709649e-02   8.4873859529048745e-02   1.3012086347415322e-01   8.0005332960709649e-02   1.6801293134065404e-01   1.9914451460363222e-01   1.6801293134065404e-01   1.6801293134065404e-01   1.8632888915870363e-01   2.3750499665123009e-01   2.0995190245626796e-01   1.8632888915870538e-01   1.5578988849550535e-01   1.9073548526061207e-01   1.5578988849550299e-01   1.5578988849550299e-01   1.7691005883369043e-01   2.0995190245626796e-01   1.9914451460363222e-01   1.7691005883368810e-01   9.6598415811683644e-02   1.0237098705373519e-01   3.1562874338143876e-01   9.6598415811688057e-02   6.8992332200282905e-02   5.5007334992032454e-02   1.3923497283963618e-01   5.5007334992034786e-02   2.0637907063234706e-01   3.0051005773261757e-01   2.5387929957989153e-01   2.0637907063234900e-01   1.9491608390766557e-01   3.1562874338143876e-01   3.0051005773261757e-01   1.9491608390766788e-01   1.5558696872933478e-01   1.7779655314011791e-01   1.9073548526061207e-01   1.5558696872933719e-01   1.9680500542109708e-01   2.5387929957989153e-01   2.3750499665123009e-01   1.9680500542109666e-01   1.1992795106199546e-01   1.3923497283963618e-01   1.9045968806855301e-01   1.1992795106199826e-01   1.4836453897640478e-01   1.9045968806855301e-01   1.7779655314011791e-01   1.4836453897640436e-01   2.4041845048143055e-02   2.4041845048143055e-02   2.4041845048143055e-02   2.4041845048143055e-02   3.4582148282543829e-02   3.4582148282543829e-02   8.4873859529046899e-02   3.4582148282541580e-02   1.0851201022719868e-01   1.3012086347415447e-01   1.0851201022719663e-01   1.0851201022719663e-01   8.0005332960708372e-02   8.4873859529046899e-02   1.3012086347415447e-01   8.0005332960708372e-02   9.6598415811688335e-02   9.6598415811688335e-02   3.1562874338144403e-01   9.6598415811692762e-02   2.0637907063235533e-01   3.0051005773261907e-01   2.5387929957989996e-01   2.0637907063235733e-01   5.5007334992031649e-02   5.5007334992031649e-02   1.3923497283963640e-01   5.5007334992032503e-02   1.9491608390766776e-01   3.1562874338144403e-01   3.0051005773261907e-01   1.9491608390766862e-01   1.6801293134065404e-01   1.9914451460363511e-01   1.6801293134065404e-01   1.6801293134065404e-01   1.5578988849550529e-01   1.9073548526061251e-01   1.5578988849550313e-01   1.5578988849550313e-01   1.8632888915870902e-01   2.3750499665123373e-01   2.0995190245627296e-01   1.8632888915871082e-01   1.7691005883369296e-01   2.0995190245627296e-01   1.9914451460363511e-01   1.7691005883369079e-01   1.1992795106199385e-01   1.3923497283963640e-01   1.9045968806854982e-01   1.1992795106199160e-01   1.9680500542110094e-01   2.5387929957989996e-01   2.3750499665123373e-01   1.9680500542110094e-01   1.5558696872933683e-01   1.7779655314011839e-01   1.9073548526061251e-01   1.5558696872933481e-01   1.4836453897640425e-01   1.9045968806854982e-01   1.7779655314011839e-01   1.4836453897640425e-01   2.7907625900360215e-02   2.4041845048143055e-02   2.4041845048144331e-02   2.4041845048144331e-02   4.2417834275195736e-02   3.4582148282545203e-02   8.4873859529047579e-02   3.4582148282541608e-02   1.0851201022719933e-01   1.3012086347415547e-01   1.0851201022719713e-01   1.0851201022719713e-01   8.0005332960708372e-02   8.4873859529047579e-02   1.3012086347415547e-01   8.0005332960709649e-02   9.6598415811687349e-02   1.0237098705373519e-01   3.1562874338144231e-01   9.6598415811690833e-02   2.0637907063235603e-01   3.0051005773261885e-01   2.5387929957990057e-01   2.0637907063235733e-01   6.8992332200287637e-02   5.5007334992030907e-02   1.3923497283963709e-01   5.5007334992032503e-02   1.9491608390766615e-01   3.1562874338144231e-01   3.0051005773261885e-01   1.9491608390766774e-01   1.6801293134065828e-01   1.9914451460363566e-01   1.6801293134066059e-01   1.6801293134066059e-01   1.5578988849550263e-01   1.9073548526061110e-01   1.5578988849550263e-01   1.5578988849550263e-01   1.8632888915870902e-01   2.3750499665123281e-01   2.0995190245627257e-01   1.8632888915871021e-01   1.7691005883369235e-01   2.0995190245627257e-01   1.9914451460363566e-01   1.7691005883369235e-01   1.1992795106199375e-01   1.3923497283963709e-01   1.9045968806854968e-01   1.1992795106199017e-01   1.9680500542110066e-01   2.5387929957990057e-01   2.3750499665123281e-01   1.9680500542109941e-01   1.5558696872933675e-01   1.7779655314012016e-01   1.9073548526061110e-01   1.5558696872933456e-01   1.4836453897640561e-01   1.9045968806854968e-01   1.7779655314012016e-01   1.4836453897640436e-01   2.4041845048143023e-02   2.4041845048143023e-02   2.4041845048143023e-02   2.4041845048143023e-02   1.0851201022719932e-01   1.0851201022719932e-01   1.0851201022719688e-01   1.3012086347415322e-01   8.4873859529048745e-02   3.4582148282545425e-02   3.4582148282542614e-02   3.4582148282542614e-02   1.3012086347415322e-01   8.0005332960709649e-02   8.0005332960709649e-02   8.4873859529048745e-02   1.6801293134065676e-01   1.6801293134065676e-01   1.6801293134065448e-01   1.9914451460363422e-01   2.0995190245626855e-01   1.8632888915870482e-01   1.8632888915870363e-01   2.3750499665123009e-01   1.5578988849550185e-01   1.5578988849550185e-01   1.5578988849550535e-01   1.9073548526061268e-01   1.9914451460363422e-01   1.7691005883368879e-01   1.7691005883369229e-01   2.0995190245626855e-01   3.1562874338143876e-01   9.6598415811687155e-02   9.6598415811683644e-02   9.6598415811683644e-02   1.3923497283963618e-01   5.5007334992035514e-02   5.5007334992032454e-02   5.5007334992032454e-02   2.5387929957989186e-01   2.0637907063234984e-01   2.0637907063234853e-01   3.0051005773261885e-01   3.0051005773261885e-01   1.9491608390766921e-01   1.9491608390766615e-01   3.1562874338143876e-01   1.9073548526061268e-01   1.5558696872933719e-01   1.5558696872933478e-01   1.7779655314011791e-01   2.3750499665123009e-01   1.9680500542109666e-01   1.9680500542109666e-01   2.5387929957989186e-01   1.9045968806855196e-01   1.1992795106199763e-01   1.1992795106199483e-01   1.3923497283963618e-01   1.7779655314011791e-01   1.4836453897640436e-01   1.4836453897640436e-01   1.9045968806855196e-01   0.0000000000000000e+00   1.3623710079288478e-15   2.4976801812028921e-15   2.4976801812028921e-15   2.0702337038518034e-02   0.0000000000000000e+00   2.0702337038515484e-02   2.5499288327253849e-15   2.0702337038512784e-02   2.0702337038518152e-02   1.2749644163626915e-15   1.5067761284286373e-15   2.0702337038518152e-02   2.0702337038518034e-02   2.0702337038512784e-02   3.8600511891317401e-15   9.9996805019023388e-02   9.6977889548801516e-02   7.0237244526936971e-02   7.0237244526936971e-02   7.0335473272385443e-02   1.9659571038074158e-01   2.7069434350721719e-02   1.2444920547695050e-15   7.5487774345151188e-04   0.0000000000000000e+00   7.5487774345151188e-04   0.0000000000000000e+00   1.9659571038074158e-01   1.2669822184909041e-01   1.2669822184909041e-01   1.2669822184909041e-01   7.0237244526937789e-02   7.0237244526937789e-02   9.9996805019024429e-02   9.6977889548800406e-02   7.5487774345417771e-04   7.5487774345417771e-04   0.0000000000000000e+00   0.0000000000000000e+00   7.0335473272385568e-02   2.7069434350721840e-02   1.9659571038073873e-01   4.2312729862163108e-15   1.2669822184909041e-01   1.2669822184909041e-01   1.9659571038073873e-01   1.2669822184909041e-01   4.4041160700132878e-02   7.5487774345151188e-04   4.4041160700135425e-02   2.5499288327253849e-15   2.7069434350721840e-02   2.7069434350721719e-02   2.7069434350721840e-02   0.0000000000000000e+00   4.4041160700135543e-02   4.4041160700132760e-02   7.5487774345417771e-04   2.7817405447913290e-15   4.4041160700135425e-02   4.4041160700132878e-02   4.4041160700135543e-02   0.0000000000000000e+00   1.0237098705374205e-01   5.7868776697878556e-03   5.7868776697770725e-03   3.8898085770735913e-15   9.4120512519045588e-02   9.4120512519045588e-02   2.9212061270314083e-01   1.9937050032204190e-01   2.9212061270314676e-01   1.9937050032204670e-01   9.4120512519050903e-02   9.4120512519050903e-02   1.9937050032204670e-01   2.9212061270314676e-01   2.9212061270314083e-01   3.8898085770735913e-15   3.4231467835174660e-02   3.4231467835174660e-02   1.0952175719061823e-01   3.4231467835177470e-02   8.2451516261444147e-02   8.2451516261444147e-02   1.2611678240642119e-01   4.2312729862163108e-15   5.3957083019089053e-02   5.3957083019089053e-02   1.8491108027669317e-01   1.3128145464150548e-01   1.0141530201536195e-01   1.0952175719061823e-01   1.2611678240642119e-01   1.0141530201536195e-01   1.0952175719061634e-01   3.4231467835178157e-02   3.4231467835174445e-02   3.4231467835174445e-02   1.8491108027669484e-01   1.3128145464150831e-01   5.3957083019086097e-02   5.3957083019086097e-02   8.2451516261444396e-02   1.2611678240642404e-01   8.2451516261444271e-02   2.6134333150159620e-15   1.2611678240642404e-01   1.0141530201536049e-01   1.0141530201536049e-01   1.0952175719061634e-01   1.3128145464150548e-01   2.4189054567362318e-02   1.8491108027669317e-01   3.4615161924116233e-15   8.2451516261444271e-02   8.2451516261444396e-02   8.2451516261444147e-02   1.4866658273563462e-15   1.3128145464150831e-01   1.8491108027669484e-01   2.4189054567357472e-02   2.7692129539292938e-15   2.4189054567362318e-02   2.4189054567360240e-02   2.4189054567360344e-02   1.4866658273563462e-15   2.7907625900360215e-02   2.4041845048143055e-02   2.4041845048144331e-02   2.4041845048144331e-02   1.0851201022719713e-01   1.3012086347415094e-01   1.0851201022719713e-01   1.0851201022719713e-01   4.2417834275195736e-02   3.4582148282545203e-02   8.4873859529047579e-02   3.4582148282543856e-02   8.0005332960706055e-02   8.4873859529047579e-02   1.3012086347415094e-01   8.0005332960707332e-02   1.6801293134065320e-01   1.9914451460363441e-01   1.6801293134064882e-01   1.6801293134064882e-01   1.8632888915870902e-01   2.3750499665123281e-01   2.0995190245627257e-01   1.8632888915871243e-01   1.5578988849550263e-01   1.9073548526061110e-01   1.5578988849550263e-01   1.5578988849550263e-01   1.7691005883368977e-01   2.0995190245627257e-01   1.9914451460363441e-01   1.7691005883368977e-01   9.6598415811685795e-02   1.0237098705374205e-01   3.1562874338143421e-01   9.6598415811678939e-02   6.8992332200287637e-02   5.5007334992030907e-02   1.3923497283963709e-01   5.5007334992032503e-02   2.0637907063235239e-01   3.0051005773261841e-01   2.5387929957989458e-01   2.0637907063234628e-01   1.9491608390766338e-01   3.1562874338143421e-01   3.0051005773261841e-01   1.9491608390766493e-01   1.5558696872933456e-01   1.7779655314012055e-01   1.9073548526061110e-01   1.5558696872933456e-01   1.9680500542110066e-01   2.5387929957989458e-01   2.3750499665123281e-01   1.9680500542109941e-01   1.1992795106199375e-01   1.3923497283963709e-01   1.9045968806854968e-01   1.1992795106199242e-01   1.4836453897640828e-01   1.9045968806854968e-01   1.7779655314012055e-01   1.4836453897640703e-01   2.4041845048137611e-02   2.4041845048137611e-02   2.4041845048142739e-02   2.4041845048142739e-02   3.4582148282542614e-02   3.4582148282542614e-02   8.4873859529046192e-02   3.4582148282542614e-02   1.0851201022719935e-01   1.3012086347415447e-01   1.0851201022720057e-01   1.0851201022720057e-01   8.0005332960707082e-02   8.4873859529046192e-02   1.3012086347415447e-01   8.0005332960712203e-02   9.6598415811700561e-02   9.6598415811700561e-02   3.1562874338145158e-01   9.6598415811693705e-02   2.0637907063235691e-01   3.0051005773262496e-01   2.5387929957989791e-01   2.0637907063235084e-01   5.5007334992035514e-02   5.5007334992035514e-02   1.3923497283963618e-01   5.5007334992035514e-02   1.9491608390767304e-01   3.1562874338145158e-01   3.0051005773262496e-01   1.9491608390767304e-01   1.6801293134065839e-01   1.9914451460363697e-01   1.6801293134065401e-01   1.6801293134065401e-01   1.5578988849550418e-01   1.9073548526061021e-01   1.5578988849550418e-01   1.5578988849550418e-01   1.8632888915870363e-01   2.3750499665123009e-01   2.0995190245626741e-01   1.8632888915870699e-01   1.7691005883369251e-01   2.0995190245626741e-01   1.9914451460363697e-01   1.7691005883369251e-01   1.1992795106199483e-01   1.3923497283963618e-01   1.9045968806855196e-01   1.1992795106199483e-01   1.9680500542109666e-01   2.5387929957989791e-01   2.3750499665123009e-01   1.9680500542109666e-01   1.5558696872933472e-01   1.7779655314012202e-01   1.9073548526061021e-01   1.5558696872933589e-01   1.4836453897640725e-01   1.9045968806855196e-01   1.7779655314012202e-01   1.4836453897640725e-01   2.7907625900361305e-02   2.4041845048143023e-02   2.4041845048143023e-02   2.4041845048143023e-02   4.2417834275198588e-02   3.4582148282542462e-02   8.4873859529047468e-02   3.4582148282543017e-02   1.0851201022719677e-01   1.3012086347415425e-01   1.0851201022719698e-01   1.0851201022719698e-01   8.0005332960709649e-02   8.4873859529047468e-02   1.3012086347415425e-01   8.0005332960709649e-02   9.6598415811684143e-02   1.0237098705373353e-01   3.1562874338144087e-01   9.6598415811690999e-02   2.0637907063234909e-01   3.0051005773261641e-01   2.5387929957989486e-01   2.0637907063235386e-01   6.8992332200282905e-02   5.5007334992032454e-02   1.3923497283963729e-01   5.5007334992035514e-02   1.9491608390766615e-01   3.1562874338144087e-01   3.0051005773261641e-01   1.9491608390766921e-01   1.6801293134065612e-01   1.9914451460363330e-01   1.6801293134066048e-01   1.6801293134066048e-01   1.5578988849550535e-01   1.9073548526061385e-01   1.5578988849550301e-01   1.5578988849550301e-01   1.8632888915870519e-01   2.3750499665123026e-01   2.0995190245627129e-01   1.8632888915870977e-01   1.7691005883369229e-01   2.0995190245627129e-01   1.9914451460363330e-01   1.7691005883368996e-01   1.1992795106199720e-01   1.3923497283963729e-01   1.9045968806855323e-01   1.1992795106199777e-01   1.9680500542109802e-01   2.5387929957989486e-01   2.3750499665123026e-01   1.9680500542109802e-01   1.5558696872933697e-01   1.7779655314011891e-01   1.9073548526061385e-01   1.5558696872933719e-01   1.4836453897640436e-01   1.9045968806855323e-01   1.7779655314011891e-01   1.4836453897640436e-01   2.4041845048143023e-02   2.4041845048143023e-02   2.4041845048143023e-02   2.4041845048143023e-02   1.0851201022719698e-01   1.0851201022719698e-01   1.0851201022719677e-01   1.3012086347415425e-01   8.4873859529047468e-02   3.4582148282543017e-02   3.4582148282542462e-02   3.4582148282542462e-02   1.3012086347415425e-01   8.0005332960709649e-02   8.0005332960709649e-02   8.4873859529047468e-02   1.6801293134066048e-01   1.6801293134066048e-01   1.6801293134065612e-01   1.9914451460363330e-01   2.0995190245627129e-01   1.8632888915870977e-01   1.8632888915870519e-01   2.3750499665123026e-01   1.5578988849550301e-01   1.5578988849550301e-01   1.5578988849550535e-01   1.9073548526061385e-01   1.9914451460363330e-01   1.7691005883368996e-01   1.7691005883369229e-01   2.0995190245627129e-01   3.1562874338144087e-01   9.6598415811690999e-02   9.6598415811684143e-02   9.6598415811684143e-02   1.3923497283963729e-01   5.5007334992035514e-02   5.5007334992032454e-02   5.5007334992032454e-02   2.5387929957989486e-01   2.0637907063235386e-01   2.0637907063234909e-01   3.0051005773261641e-01   3.0051005773261641e-01   1.9491608390766921e-01   1.9491608390766615e-01   3.1562874338144087e-01   1.9073548526061385e-01   1.5558696872933719e-01   1.5558696872933697e-01   1.7779655314011891e-01   2.3750499665123026e-01   1.9680500542109802e-01   1.9680500542109802e-01   2.5387929957989486e-01   1.9045968806855323e-01   1.1992795106199777e-01   1.1992795106199720e-01   1.3923497283963729e-01   1.7779655314011891e-01   1.4836453897640436e-01   1.4836453897640436e-01   1.9045968806855323e-01   0.0000000000000000e+00   0.0000000000000000e+00   0.0000000000000000e+00   0.0000000000000000e+00   2.0702337038516642e-02   4.9839518094177841e-15   2.0702337038522090e-02   5.4475752335497007e-15   2.0702337038516642e-02   2.0702337038522090e-02   4.9839518094177841e-15   5.4475752335497007e-15   2.0702337038522090e-02   2.0702337038516642e-02   2.0702337038516642e-02   0.0000000000000000e+00   9.9996805019027774e-02   9.6977889548801169e-02   7.0237244526944631e-02   7.0237244526944631e-02   7.0335473272381599e-02   1.9659571038074883e-01   2.7069434350717861e-02   5.2268666300319176e-15   7.5487774345788666e-04   0.0000000000000000e+00   7.5487774345290280e-04   0.0000000000000000e+00   1.9659571038