<?xml version="1.0"?>
<VTKFile type="UnstructuredGrid"  version="0.1"  >
<UnstructuredGrid>
<Piece  NumberOfPoints="29717" NumberOfCells="57888">
<Points>
<DataArray  type="Float64"  NumberOfComponents="3"  format="ascii">3 0.3378215821452335 0  2.833441594912761 0.3337663796510457 0  3 0.5329865384474093 0  2.661503918807094 0.3230078376141886 0  2.842489777594233 0.5274693327827005 0  3 0.7176341807104085 0  2.481388254524131 0.3085176726988411 0  2.675936639001904 0.5139049585028559 0  2.854783967522197 0.709567935044394 0  3 0.8839527516772595 0  2.292893218813257 0.2928932188132569 0  2.497472710738964 0.4974727107389642 0  2.692797973444407 0.6927979734444063 0  2.871431999438945 0.8714319994389447 0  3 1 0  2.308517672698841 0.4813882545241308 0  2.513904958502856 0.6759366390019039 0  2.709567935044394 0.854783967522197 0  2.883952751677259 1 0  3 1.116047248322741 0  3.128568000561055 1.128568000561055 0  3.116047248322741 1 0  2.323007837614188 0.6615039188070941 0  2.5274693327827 0.8424897775942335 0  2.717634180710409 1 0  2.871431999438945 1.128568000561055 0  3 1.282365819289591 0  3.145216032477803 1.290432064955606 0  3.307202026555593 1.307202026555594 0  3.290432064955606 1.145216032477803 0  3.282365819289591 1 0  2.333766379651045 0.8334415949127614 0  2.53298653844741 1 0  2.709567935044394 1.145216032477803 0  2.854783967522197 1.290432064955606 0  3 1.467013461552591 0  3.157510222405767 1.4725306672173 0  3.324063360998096 1.486095041497144 0  3.502527289261036 1.502527289261036 0  3.486095041497144 1.324063360998096 0  3.4725306672173 1.157510222405767 0  3.46701346155259 1 0  2.337821582145233 1 0  2.5274693327827 1.157510222405767 0  2.692797973444407 1.307202026555594 0  2.842489777594233 1.4725306672173 0  3 1.662178417854766 0  3.166558405087239 1.666233620348955 0  3.338496081192906 1.676992162385812 0  3.518611745475869 1.691482327301159 0  3.707106781186743 1.707106781186743 0  3.691482327301159 1.518611745475869 0  3.676992162385812 1.338496081192906 0  3.666233620348955 1.166558405087239 0  3.662178417854767 1 0  2.333766379651045 1.166558405087239 0  2.513904958502856 1.324063360998096 0  2.675936639001904 1.486095041497144 0  2.833441594912761 1.666233620348955 0  2.323007837614188 1.338496081192906 0  2.497472710738964 1.502527289261036 0  2.661503918807094 1.676992162385812 0  2.308517672698841 1.518611745475869 0  2.481388254524131 1.691482327301159 0  2.292893218813257 1.707106781186743 0  2 4.662178417854767 0  1.833441594912761 4.666233620348955 0  2 4.46701346155259 0  1.661503918807094 4.676992162385812 0  1.842489777594233 4.472530667217299 0  2 4.282365819289591 0  1.481388254524131 4.691482327301159 0  1.675936639001904 4.486095041497144 0  1.854783967522197 4.290432064955606 0  2 4.11604724832274 0  1.292893218813257 4.707106781186743 0  1.497472710738964 4.502527289261036 0  1.692797973444406 4.307202026555593 0  1.871431999438945 4.128568000561056 0  2 4 0  1.308517672698841 4.518611745475869 0  1.513904958502856 4.324063360998096 0  1.709567935044394 4.145216032477803 0  1.883952751677259 4 0  2 3.883952751677259 0  2.128568000561055 3.871431999438945 0  2.116047248322741 4 0  1.323007837614188 4.338496081192906 0  1.5274693327827 4.157510222405767 0  1.717634180710409 4 0  1.871431999438945 3.871431999438945 0  2 3.717634180710409 0  2.145216032477803 3.709567935044394 0  2.307202026555593 3.692797973444407 0  2.290432064955606 3.854783967522197 0  2.282365819289591 4 0  1.333766379651045 4.166558405087239 0  1.532986538447409 4 0  1.709567935044394 3.854783967522197 0  1.854783967522197 3.709567935044394 0  2 3.53298653844741 0  2.157510222405767 3.5274693327827 0  2.324063360998096 3.513904958502856 0  2.502527289261036 3.497472710738964 0  2.486095041497144 3.675936639001904 0  2.4725306672173 3.842489777594233 0  2.46701346155259 4 0  1.337821582145234 4 0  1.5274693327827 3.842489777594233 0  1.692797973444406 3.692797973444407 0  1.842489777594233 3.5274693327827 0  2 3.337821582145233 0  2.166558405087239 3.333766379651045 0  2.338496081192906 3.323007837614188 0  2.518611745475869 3.308517672698841 0  2.707106781186743 3.292893218813257 0  2.691482327301159 3.481388254524131 0  2.676992162385812 3.661503918807094 0  2.666233620348955 3.833441594912761 0  2.662178417854767 4 0  1.333766379651045 3.833441594912761 0  1.513904958502856 3.675936639001904 0  1.675936639001904 3.513904958502856 0  1.833441594912761 3.333766379651045 0  1.323007837614188 3.661503918807094 0  1.497472710738964 3.497472710738964 0  1.661503918807094 3.323007837614188 0  1.308517672698841 3.481388254524131 0  1.481388254524131 3.308517672698841 0  1.292893218813257 3.292893218813257 0  -6 5.662178417854767 0  -5.833441594912761 5.666233620348955 0  -6 5.46701346155259 0  -5.661503918807094 5.676992162385812 0  -5.842489777594234 5.472530667217299 0  -6 5.282365819289591 0  -5.481388254524131 5.691482327301159 0  -5.675936639001904 5.486095041497144 0  -5.854783967522197 5.290432064955606 0  -6 5.11604724832274 0  -5.292893218813257 5.707106781186743 0  -5.497472710738964 5.502527289261036 0  -5.692797973444407 5.307202026555593 0  -5.871431999438944 5.128568000561056 0  -6 5 0  -5.308517672698841 5.518611745475869 0  -5.513904958502856 5.324063360998096 0  -5.709567935044394 5.145216032477803 0  -5.88395275167726 5 0  -6 4.88395275167726 0  -6.128568000561056 4.871431999438944 0  -6.11604724832274 5 0  -5.323007837614188 5.338496081192906 0  -5.527469332782701 5.157510222405767 0  -5.717634180710409 5 0  -5.871431999438944 4.871431999438944 0  -6 4.717634180710409 0  -6.145216032477803 4.709567935044394 0  -6.307202026555593 4.692797973444407 0  -6.290432064955606 4.854783967522197 0  -6.282365819289591 5 0  -5.333766379651045 5.166558405087239 0  -5.53298653844741 5 0  -5.709567935044394 4.854783967522197 0  -5.854783967522197 4.709567935044394 0  -6 4.53298653844741 0  -6.157510222405766 4.527469332782701 0  -6.324063360998096 4.513904958502856 0  -6.502527289261036 4.497472710738964 0  -6.486095041497144 4.675936639001904 0  -6.472530667217299 4.842489777594234 0  -6.46701346155259 5 0  -5.337821582145233 5 0  -5.527469332782701 4.842489777594234 0  -5.692797973444407 4.692797973444407 0  -5.842489777594234 4.527469332782701 0  -6 4.337821582145233 0  -6.166558405087239 4.333766379651045 0  -6.338496081192906 4.323007837614188 0  -6.518611745475869 4.308517672698841 0  -6.707106781186743 4.292893218813257 0  -6.691482327301159 4.481388254524131 0  -6.676992162385812 4.661503918807094 0  -6.666233620348955 4.833441594912761 0  -6.662178417854767 5 0  -5.333766379651045 4.833441594912761 0  -5.513904958502856 4.675936639001904 0  -5.675936639001904 4.513904958502856 0  -5.833441594912761 4.333766379651045 0  -5.323007837614188 4.661503918807094 0  -5.497472710738964 4.497472710738964 0  -5.661503918807094 4.323007837614188 0  -5.308517672698841 4.481388254524131 0  -5.481388254524131 4.308517672698841 0  -5.292893218813257 4.292893218813257 0  -5 2.337821582145233 0  -4.833441594912761 2.333766379651045 0  -5 2.53298653844741 0  -4.661503918807094 2.323007837614189 0  -4.842489777594234 2.5274693327827 0  -5 2.717634180710409 0  -4.481388254524131 2.308517672698841 0  -4.675936639001904 2.513904958502856 0  -4.854783967522197 2.709567935044394 0  -5 2.883952751677259 0  -4.292893218813257 2.292893218813257 0  -4.497472710738964 2.497472710738964 0  -4.692797973444407 2.692797973444407 0  -4.871431999438944 2.871431999438945 0  -5 3 0  -4.308517672698841 2.481388254524131 0  -4.513904958502856 2.675936639001904 0  -4.709567935044394 2.854783967522197 0  -4.88395275167726 3 0  -5 3.116047248322741 0  -5.128568000561056 3.128568000561055 0  -5.11604724832274 3 0  -4.323007837614188 2.661503918807094 0  -4.527469332782701 2.842489777594233 0  -4.717634180710409 3 0  -4.871431999438944 3.128568000561055 0  -5 3.282365819289591 0  -5.145216032477803 3.290432064955606 0  -5.307202026555593 3.307202026555593 0  -5.290432064955606 3.145216032477803 0  -5.282365819289591 3 0  -4.333766379651045 2.833441594912761 0  -4.53298653844741 3 0  -4.709567935044394 3.145216032477803 0  -4.854783967522197 3.290432064955606 0  -5 3.46701346155259 0  -5.157510222405766 3.4725306672173 0  -5.324063360998096 3.486095041497144 0  -5.502527289261036 3.502527289261036 0  -5.486095041497144 3.324063360998096 0  -5.472530667217299 3.157510222405767 0  -5.46701346155259 3 0  -4.337821582145233 3 0  -4.527469332782701 3.157510222405767 0  -4.692797973444407 3.307202026555593 0  -4.842489777594234 3.4725306672173 0  -5 3.662178417854767 0  -5.166558405087239 3.666233620348955 0  -5.338496081192906 3.676992162385812 0  -5.518611745475869 3.691482327301159 0  -5.707106781186743 3.707106781186743 0  -5.691482327301159 3.518611745475869 0  -5.676992162385812 3.338496081192906 0  -5.666233620348955 3.166558405087239 0  -5.662178417854767 3 0  -4.333766379651045 3.166558405087239 0  -4.513904958502856 3.324063360998096 0  -4.675936639001904 3.486095041497144 0  -4.833441594912761 3.666233620348955 0  -4.323007837614188 3.338496081192906 0  -4.497472710738964 3.502527289261036 0  -4.661503918807094 3.676992162385812 0  -4.308517672698841 3.518611745475869 0  -4.481388254524131 3.691482327301159 0  -4.292893218813257 3.707106781186743 0  5 4 0  5 3.8125 0  4.853886151115923 4 0  5 3.625 0  4.80632430795117 3.775436298854279 0  4.707772302231846 4 0  4.79366141355045 3.578587735402333 0  4.673383251713283 3.680732660129706 0  4.561658453347769 3.792168701394072 0  4.56165845334777 4 0  5 3.4375 0  4.600014989010139 3.541027542505437 0  4.789717798409911 3.381371727615638 0  5 3.25 0  4.458472067662114 3.674611746363634 0  4.342487680021653 3.850039194045292 0  4.415544604463692 4 0  4.407847296295088 3.526611069368785 0  4.609194292726674 3.359404168011995 0  4.643840673849824 3.180879833384543 0  4.832283973092349 3.162038632311764 0  5 3.0625 0  4.302631777076505 3.688060601225307 0  4.165321303746107 3.81663748
[...]
<CellData  Scalars="f_6743"> 
<DataArray  type="Float64"  Name="f_6743"  format="ascii">0.0000000000000000e+00   0.0000000000000000e+00   2.6112110985302932e-15   2.6112110985302932e-15   7.7201023782634944e-15   0.0000000000000000e+00   7.7201023782634944e-15   7.7201023782634944e-15   2.6112110985302932e-15   0.0000000000000000e+00   2.6112110985302932e-15   0.0000000000000000e+00   2.6112110985302932e-15   7.7201023782634944e-15   2.6112110985302932e-15   2.6112110985302932e-15   2.0702337038508923e-02   0.0000000000000000e+00   2.0702337038514030e-02   0.0000000000000000e+00   0.0000000000000000e+00   0.0000000000000000e+00   2.4340229766924099e-15   2.4340229766924099e-15   2.0702337038514210e-02   2.0702337038522090e-02   2.4340229766924099e-15   7.8815982102421090e-15   2.4340229766924099e-15   0.0000000000000000e+00   2.4340229766924099e-15   0.0000000000000000e+00   2.0702337038519307e-02   2.0702337038516642e-02   0.0000000000000000e+00   2.6658346887583603e-15   2.0702337038519307e-02   2.0702337038516642e-02   4.9839518094177983e-15   4.9839518094177983e-15   2.6658346887583603e-15   0.0000000000000000e+00   2.6658346887583603e-15   2.6658346887583603e-15   2.6658346887583603e-15   2.6658346887583603e-15   2.6658346887583603e-15   2.6658346887583603e-15   2.0702337038522090e-02   2.0702337038514210e-02   2.0702337038519307e-02   0.0000000000000000e+00   2.0702337038514030e-02   2.6112110985302932e-15   2.0702337038508923e-02   5.1088912797332024e-15   2.0702337038516642e-02   0.0000000000000000e+00   2.0702337038519307e-02   0.0000000000000000e+00   0.0000000000000000e+00   2.6112110985302932e-15   0.0000000000000000e+00   0.0000000000000000e+00   7.0237244526940176e-02   7.0237244526945797e-02   9.6977889548801377e-02   9.9996805019023388e-02   7.0237244526940759e-02   7.0237244526945797e-02   9.9996805019020668e-02   9.6977889548794022e-02   7.0237244526937928e-02   7.0237244526940176e-02   7.0237244526935610e-02   7.0237244526935610e-02   7.0237244526937859e-02   7.0237244526940176e-02   7.0237244526935610e-02   7.0237244526935610e-02   7.0335473272386817e-02   1.9659571038074419e-01   2.7069434350723089e-02   2.6134333150159620e-15   7.0335473272381599e-02   1.9659571038073334e-01   2.6134333150159620e-15   3.2356793424006969e-15   2.7069434350723089e-02   2.7069434350720473e-02   0.0000000000000000e+00   2.6134333150159620e-15   2.6134333150159620e-15   2.6134333150159620e-15   0.0000000000000000e+00   2.6134333150159620e-15   7.5487774345290280e-04   0.0000000000000000e+00   7.5487774345290280e-04   0.0000000000000000e+00   0.0000000000000000e+00   0.0000000000000000e+00   0.0000000000000000e+00   0.0000000000000000e+00   7.5487774345290280e-04   7.5487774345290280e-04   0.0000000000000000e+00   0.0000000000000000e+00   0.0000000000000000e+00   0.0000000000000000e+00   0.0000000000000000e+00   0.0000000000000000e+00   1.2669822184908799e-01   1.9659571038073334e-01   1.2669822184909305e-01   1.2669822184909305e-01   1.9659571038074419e-01   1.2669822184909305e-01   1.2669822184909305e-01   1.2669822184909305e-01   1.2669822184908799e-01   1.2669822184908799e-01   1.2669822184909305e-01   1.2669822184909305e-01   1.2669822184909305e-01   1.2669822184909305e-01   1.2669822184909305e-01   1.2669822184909305e-01   7.0237244526935610e-02   7.0237244526935610e-02   7.0237244526935610e-02   7.0237244526935610e-02   7.0237244526935610e-02   7.0237244526935610e-02   7.0237244526938442e-02   7.0237244526938442e-02   7.0237244526942827e-02   7.0237244526942938e-02   9.6977889548797228e-02   9.9996805019023388e-02   7.0237244526947323e-02   7.0237244526947323e-02   9.9996805019032645e-02   9.6977889548797228e-02   7.5487774345290280e-04   7.5487774345290280e-04   0.0000000000000000e+00   0.0000000000000000e+00   7.5487774345290280e-04   7.5487774345290280e-04   0.0000000000000000e+00   0.0000000000000000e+00   0.0000000000000000e+00   0.0000000000000000e+00   0.0000000000000000e+00   0.0000000000000000e+00   0.0000000000000000e+00   0.0000000000000000e+00   0.0000000000000000e+00   0.0000000000000000e+00   7.0335473272386817e-02   2.7069434350723089e-02   1.9659571038073931e-01   2.8623317259698629e-15   2.7069434350720227e-02   2.7069434350720227e-02   2.8623317259698629e-15   2.8623317259698629e-15   7.0335473272386456e-02   1.9659571038074211e-01   2.3645349040620543e-15   5.2268666300319176e-15   2.8623317259698629e-15   2.8623317259698629e-15   2.3645349040620543e-15   2.8623317259698629e-15   1.2669822184909321e-01   1.2669822184909321e-01   1.2669822184909751e-01   1.2669822184909751e-01   1.2669822184908838e-01   1.2669822184908838e-01   1.2669822184909321e-01   1.2669822184909266e-01   1.2669822184908353e-01   1.9659571038074211e-01   1.2669822184908780e-01   1.2669822184909266e-01   1.9659571038073931e-01   1.2669822184908838e-01   1.2669822184908838e-01   1.2669822184909266e-01   4.4041160700134266e-02   7.5487774345290280e-04   4.4041160700136694e-02   2.4340229766924099e-15   7.5487774345290280e-04   2.4340229766924099e-15   7.5487774345290280e-04   2.4340229766924099e-15   4.4041160700136694e-02   0.0000000000000000e+00   4.4041160700128819e-02   7.8815982102421090e-15   0.0000000000000000e+00   2.4340229766924099e-15   0.0000000000000000e+00   2.4340229766924099e-15   2.7069434350720473e-02   2.7069434350723089e-02   2.7069434350720227e-02   0.0000000000000000e+00   2.7069434350723089e-02   0.0000000000000000e+00   2.7069434350723089e-02   0.0000000000000000e+00   2.7069434350723089e-02   0.0000000000000000e+00   2.7069434350723089e-02   0.0000000000000000e+00   0.0000000000000000e+00   0.0000000000000000e+00   0.0000000000000000e+00   0.0000000000000000e+00   4.4041160700134266e-02   4.4041160700131601e-02   7.5487774345290280e-04   2.6658346887583603e-15   4.4041160700131601e-02   4.9839518094177983e-15   4.4041160700134266e-02   4.9839518094177983e-15   7.5487774345290280e-04   2.6658346887583603e-15   7.5487774345290280e-04   2.6658346887583603e-15   4.9839518094177983e-15   0.0000000000000000e+00   2.6658346887583603e-15   2.6658346887583603e-15   4.4041160700134266e-02   4.4041160700136694e-02   4.4041160700131601e-02   0.0000000000000000e+00   4.4041160700136694e-02   4.4041160700134266e-02   0.0000000000000000e+00   0.0000000000000000e+00   4.4041160700131601e-02   4.4041160700134266e-02   0.0000000000000000e+00   0.0000000000000000e+00   0.0000000000000000e+00   0.0000000000000000e+00   0.0000000000000000e+00   0.0000000000000000e+00   1.0237098705373537e-01   5.7868776697789321e-03   1.0237098705373705e-01   5.7868776697816452e-03   1.0237098705374389e-01   5.7868776697740350e-03   3.8898085770735992e-15   3.8898085770735992e-15   1.0237098705373483e-01   5.7868776697794586e-03   0.0000000000000000e+00   0.0000000000000000e+00   0.0000000000000000e+00   0.0000000000000000e+00   3.8898085770735992e-15   3.8898085770735992e-15   9.4120512519049113e-02   9.4120512519049113e-02   9.4120512519049113e-02   9.4120512519049113e-02   9.4120512519052554e-02   9.4120512519052554e-02   9.4120512519049113e-02   9.4120512519049113e-02   1.9937050032204964e-01   2.9212061270314860e-01   9.4120512519053873e-02   9.4120512519049113e-02   2.9212061270315320e-01   1.9937050032204964e-01   9.4120512519053873e-02   9.4120512519048211e-02   1.9937050032204856e-01   2.9212061270314110e-01   9.4120512519048724e-02   9.4120512519048960e-02   2.9212061270313966e-01   1.9937050032204964e-01   9.4120512519055496e-02   9.4120512519055496e-02   9.4120512519056010e-02   9.4120512519056010e-02   9.4120512519056010e-02   9.4120512519051860e-02   9.4120512519049113e-02   9.4120512519049113e-02   9.4120512519056010e-02   9.4120512519046351e-02   1.9937050032204964e-01   2.9212061270313966e-01   2.9212061270315320e-01   1.1500303619174074e-14   1.9937050032204856e-01   2.9212061270314110e-01   7.6104950421004757e-15   3.7206864650269064e-15   1.9937050032204964e-01   2.9212061270314860e-01   7.6104950421004757e-15   3.8898085770735992e-15   7.6104950421004757e-15   7.6104950421004757e-15   1.1500303619174074e-14   1.1500303619174074e-14   3.4231467835171787e-02   3.4231467835171787e-02   3.4231467835174403e-02   3.4231467835174403e-02   3.4231467835177214e-02   3.4231467835177214e-02   3.4231467835174403e-02   3.4231467835174403e-02   3.4231467835177304e-02   1.0952175719061649e-01   3.4231467835179913e-02   3.4231467835181717e-02   1.0952175719061409e-01   3.4231467835170254e-02   3.4231467835174750e-02   3.4231467835181717e-02   8.2451516261445867e-02   8.2451516261442911e-02   1.2611678240642885e-01   0.0000000000000000e+00   8.2451516261445756e-02   2.8623317259698629e-15   8.2451516261445756e-02   2.8623317259698629e-15   2.4780717799185600e-02   5.2268666300319176e-15   1.2611678240642885e-01   5.2268666300319176e-15   5.2268666300319176e-15   2.8623317259698629e-15   0.0000000000000000e+00   0.0000000000000000e+00   5.3957083019089053e-02   5.3957083019089053e-02   5.3957083019089053e-02   5.3957083019086055e-02   5.3957083019089053e-02   5.3957083019089053e-02   5.3957083019089053e-02   5.3957083019086013e-02   1.3128145464151333e-01   1.8491108027669795e-01   5.3957083019083023e-02   5.3957083019083023e-02   1.8491108027669156e-01   1.3128145464150687e-01   5.3957083019083023e-02   5.3957083019083023e-02   1.0141530201536607e-01   1.0141530201536149e-01   1.0952175719061409e-01   1.0141530201536607e-01   1.0141530201536607e-01   1.0141530201536111e-01   1.0141530201536414e-01   1.0952175719061649e-01   1.0141530201535616e-01   1.0141530201535652e-01   1.0141530201535616e-01   1.2611678240642885e-01   1.0141530201536111e-01   1.0141530201536111e-01   1.2611678240642885e-01   1.0141530201536414e-01   3.4231467835182286e-02   1.0952175719062213e-01   3.4231467835180322e-02   3.4231467835180322e-02   1.0952175719061412e-01   3.4231467835172447e-02   3.4231467835180322e-02   3.4231467835180322e-02   3.4231467835174403e-02   3.4231467835174403e-02   3.4231467835174403e-02   3.4231467835174695e-02   3.4231467835174403e-02   3.4231467835174403e-02   3.4231467835176652e-02   3.4231467835176652e-02   1.3128145464150384e-01   1.8491108027669156e-01   5.3957083019094958e-02   5.3957083019094958e-02   1.8491108027669156e-01   1.3128145464150384e-01   5.3957083019089087e-02   5.3957083019088886e-02   5.3957083019083023e-02   5.3957083019083023e-02   5.3957083019088886e-02   5.3957083019088886e-02   5.3957083019094958e-02   5.3957083019094958e-02   5.3957083019088886e-02   5.3957083019088886e-02   8.2451516261442911e-02   1.2611678240642404e-01   8.2451516261442911e-02   2.6134333150159620e-15   2.4780717799175400e-02   2.6134333150159620e-15   1.2611678240641822e-01   3.2356793424006969e-15   8.2451516261442911e-02   0.0000000000000000e+00   8.2451516261445520e-02   2.6134333150159620e-15   2.6134333150159620e-15   2.6134333150159620e-15   0.0000000000000000e+00   2.6134333150159620e-15   1.0141530201535892e-01   1.0141530201535892e-01   1.0141530201535892e-01   1.2611678240641822e-01   1.0141530201535892e-01   1.0141530201535892e-01   1.2611678240642404e-01   1.0141530201536497e-01   1.0141530201535892e-01   1.0141530201535892e-01   1.0952175719061412e-01   1.0141530201535892e-01   1.0141530201535892e-01   1.0141530201535892e-01   1.0141530201536497e-01   1.0952175719062213e-01   1.3128145464150687e-01   2.4189054567361729e-02   1.8491108027669156e-01   0.0000000000000000e+00   2.4189054567361729e-02   2.4189054567364837e-02   5.6768865555550438e-15   5.6768865555550438e-15   1.3128145464151333e-01   1.8491108027669795e-01   3.4615161924116284e-15   3.4615161924116284e-15   5.6768865555550438e-15   0.0000000000000000e+00   3.4615161924116284e-15   0.0000000000000000e+00   8.2451516261445756e-02   8.2451516261442911e-02   8.2451516261445756e-02   0.0000000000000000e+00   8.2451516261442911e-02   8.2451516261442911e-02   0.0000000000000000e+00   0.0000000000000000e+00   8.2451516261442911e-02   8.2451516261445867e-02   0.0000000000000000e+00   2.9733316547126947e-15   0.0000000000000000e+00   0.0000000000000000e+00   0.0000000000000000e+00   0.0000000000000000e+00   1.3128145464150384e-01   1.8491108027669156e-01   2.4189054567358960e-02   2.7692129539292938e-15   1.3128145464150384e-01   1.8491108027669156e-01   2.7692129539292938e-15   2.7692129539292938e-15   2.4189054567362769e-02   2.4189054567364837e-02   6.7845717371267842e-15   4.0153587831974900e-15   6.7845717371267842e-15   2.7692129539292938e-15   6.7845717371267842e-15   2.7692129539292938e-15   2.4189054567364837e-02   2.4189054567362769e-02   2.4189054567361729e-02   6.0818147482759572e-15   2.4189054567358960e-02   0.0000000000000000e+00   2.4189054567361729e-02   0.0000000000000000e+00   2.4189054567361729e-02   0.0000000000000000e+00   2.4189054567358755e-02   2.9733316547126947e-15   0.0000000000000000e+00   2.9733316547126947e-15   0.0000000000000000e+00   2.9733316547126947e-15   2.4041845048143086e-02   2.4041845048143086e-02   2.4041845048137611e-02   2.7907625900363026e-02   2.4041845048143086e-02   2.4041845048143086e-02   2.7907625900357551e-02   2.4041845048148217e-02   2.4041845048148217e-02   2.4041845048148217e-02   2.4041845048142739e-02   2.4041845048142739e-02   2.4041845048142739e-02   2.4041845048143086e-02   2.4041845048142739e-02   2.4041845048142739e-02   1.0851201022719932e-01   1.0851201022719932e-01   1.3012086347415566e-01   1.0851201022719932e-01   1.0851201022719932e-01   1.0851201022719932e-01   1.0851201022719445e-01   1.3012086347415081e-01   1.0851201022719932e-01   1.0851201022719932e-01   1.0851201022719932e-01   1.0851201022719932e-01   1.0851201022719932e-01   1.0851201022719932e-01   1.0851201022719932e-01   1.0851201022719932e-01   3.4582148282542614e-02   3.4582148282542614e-02   3.4582148282542614e-02   4.2417834275200336e-02   3.4582148282542614e-02   3.4582148282542614e-02   4.2417834275194272e-02   3.4582148282542614e-02   3.4582148282548117e-02   3.4582148282548117e-02   3.4582148282548117e-02   8.4873859529051313e-02   3.4582148282542420e-02   3.4582148282542614e-02   8.4873859529040502e-02   3.4582148282542420e-02   8.4873859529040502e-02   8.0005332960707082e-02   8.0005332960707082e-02   8.0005332960707082e-02   8.0005332960712203e-02   8.4873859529051313e-02   8.0005332960707082e-02   8.0005332960707082e-02   8.0005332960707082e-02   1.3012086347415081e-01   8.0005332960707082e-02   8.0005332960707082e-02   1.3012086347415566e-01   8.0005332960712203e-02   8.0005332960707082e-02   8.0005332960707082e-02   3.1394186637085084e-02   1.4571820000128677e-01   1.6801293134065526e-01   5.1088731924960276e-15   1.6801293134065526e-01   1.6801293134065526e-01   1.6801293134065906e-01   1.9914451460363697e-01   5.2224037078848248e-15   5.2224037078848248e-15   1.6801293134065526e-01   5.2224037078848248e-15   1.6801293134064937e-01   1.6801293134065526e-01   1.6801293134065320e-01   1.6801293134065320e-01   5.1748628995308001e-02   1.4542664681896444e-01   1.8632888915870363e-01   0.0000000000000000e+00   1.8632888915870363e-01   1.8632888915870363e-01   1.8632888915870363e-01   2.3750499665123009e-01   3.3351534325771558e-02   2.0995190245626855e-01   1.8632888915870244e-01   0.0000000000000000e+00   1.8632888915870244e-01   1.8632888915870244e-01   1.8632888915870802e-01   1.8632888915870802e-01   3.5207138804727922e-02   1.2054490930697377e-01   1.5578988849550529e-01   1.1468633963883609e-15   1.5578988849550418e-01   1.5578988849550529e-01   1.5578988849550535e-01   1.9073548526061268e-01   0.0000000000000000e+00   1.1468633963883609e-15   1.5578988849550529e-01   1.1468633963883609e-15   1.5578988849550529e-01   1.5578988849550529e-01   1.5578988849550182e-01   1.5578988849550182e-01   3.3351534325774014e-02   1.7691005883368704e-01   1.5321538851168059e-01   6.6776385408751848e-15   1.7691005883368952e-01   2.0995190245626855e-01   1.7691005883368835e-01   1.7691005883368835e-01   3.1394186637080566e-02   1.7691005883368704e-01   1.9914451460363697e-01   5.5061230073883126e-15   1.7691005883368296e-01   1.7691005883368296e-01   1.7691005883368649e-01   1.7691005883368704e-01   9.6598415811693858e-02   9.6598415811687141e-02   1.0237098705374389e-01   9.6598415811693858e-02   9.6598415811693858e-02   9.6598415811686988e-02   9.6598415811686988e-02   1.0237098705373705e-01   9.6598415811684976e-02   9.6598415811688973e-02   9.6598415811686988e-02   3.1562874338143904e-01   9.6598415811693664e-02   9.6598415811693664e-02   3.1562874338143709e-01   9.6598415811684976e-02   5.5007334992035514e-02   5.5007334992035514e-02   5.5007334992035514e-02   6.8992332200284279e-02   5.5007334992035514e-02   5.5007334992035514e-02   6.8992332200291204e-02   5.5007334992029408e-02   5.5007334992035514e-02   5.5007334992035514e-02   5.5007334992035514e-02   1.3923497283963618e-01   5.5007334992035514e-02   5.5007334992035514e-02   1.3923497283963504e-01   5.5007334992034293e-02   9.5613449405583376e-02   9.9767466069846850e-02   2.0637907063234612e-01   1.6218166945157891e-15   2.0637907063235214e-01   2.0637907063235214e-01   2.0637907063235583e-01   3.0051005773262246e-01   5.7796237318100172e-02   2.5387929957989136e-01   2.0637907063234984e-01   1.6218166945157891e-15   2.0637907063234823e-01   2.0637907063234984e-01   2.0637907063234823e-01   2.0637907063234823e-01   3.1562874338143709e-01   1.9491608390766549e-01   1.9491608390766696e-01   1.9491608390766538e-01   1.9491608390766696e-01   3.1562874338143904e-01   1.9491608390767304e-01   1.9491608390767304e-01   1.9491608390767157e-01   3.0051005773262246e-01   1.9491608390766538e-01   1.9491608390766538e-01   1.9491608390766416e-01   1.9491608390766416e-01   1.9491608390766538e-01   1.9491608390766538e-01   2.2364248997156687e-02   1.5558696872933719e-01   1.2610489592903479e-01   0.0000000000000000e+00   1.5558696872933234e-01   1.7779655314011261e-01   1.5558696872933719e-01   1.5558696872933719e-01   3.5207138804727922e-02   1.5558696872933719e-01   1.9073548526061268e-01   0.0000000000000000e+00   1.5558696872933719e-01   1.5558696872933719e-01   1.5558696872933719e-01   1.5558696872933719e-01   5.7796237318099949e-02   1.9680500542109666e-01   1.4902723004574855e-01   0.0000000000000000e+00   1.9680500542109908e-01   2.5387929957989136e-01   1.9680500542109802e-01   1.9680500542109802e-01   5.1748628995306592e-02   1.9680500542109666e-01   2.3750499665123009e-01   1.4031549351518548e-15   1.9680500542109666e-01   1.9680500542109666e-01   1.9680500542109666e-01   1.9680500542109666e-01   1.3923497283963504e-01   1.1992795106199371e-01   1.1992795106199497e-01   1.1992795106199609e-01   1.1992795106199483e-01   1.3923497283963618e-01   1.1992795106199483e-01   1.1992795106199609e-01   1.1992795106199594e-01   1.9045968806855301e-01   1.1992795106199720e-01   1.1992795106199720e-01   1.1992795106200033e-01   1.1992795106200033e-01   1.1992795106199594e-01   1.1992795106199609e-01   4.2394640346014714e-02   7.7631986839312911e-02   1.4836453897640725e-01   5.8311988271447889e-15   1.4836453897640725e-01   1.4836453897640725e-01   1.4836453897640831e-01   1.9045968806855301e-01   2.2364248997156687e-02   1.7779655314011261e-01   1.4836453897640725e-01   5.8311988271447889e-15   1.4836453897640725e-01   1.4836453897640725e-01   1.4836453897640725e-01   1.4836453897640725e-01   2.4041845048143055e-02   2.4041845048143055e-02   2.4041845048143055e-02   2.4041845048143055e-02   2.4041845048143055e-02   2.4041845048143055e-02   2.4041845048143055e-02   2.4041845048143055e-02   2.4041845048143055e-02   2.4041845048143055e-02   2.4041845048143055e-02   2.4041845048143055e-02   2.4041845048143055e-02   2.4041845048143055e-02   2.4041845048143055e-02   2.4041845048143055e-02   3.4582148282542462e-02   3.4582148282542462e-02   3.4582148282543856e-02   3.4582148282545203e-02   3.4582148282542462e-02   3.4582148282542462e-02   3.4582148282543808e-02   3.4582148282545203e-02   3.4582148282543808e-02   8.4873859529046192e-02   3.4582148282550206e-02   3.4582148282545203e-02   8.4873859529