<?xml version="1.0"?>
<VTKFile type="UnstructuredGrid"  version="0.1"  >
<UnstructuredGrid>
<Piece  NumberOfPoints="1244" NumberOfCells="2155">
<Points>
<DataArray  type="Float64"  NumberOfComponents="3"  format="ascii">3 0.4505813909508334 0  2.858706694155233 0.4348267766209324 0  3 0.7083486900555757 0  2.697160447111943 0.3943208942238857 0  2.895262666184017 0.6857879985520519 0  3 0.9065018226950635 0  2.507383127572992 0.3431775034306555 0  2.753392185228413 0.6300882778426198 0  2.941422924974046 0.8828458499480929 0  3 0.990182154601809 0  2.292893218813706 0.292893218813706 0  2.565213330712254 0.565213330712254 0  2.822205042701531 0.8222050427015308 0  2.978182683361986 0.9781826833619861 0  3 1 0  2.343177503430655 0.5073831275729916 0  2.63008827784262 0.7533921852284131 0  2.882845849948093 0.9414229249740464 0  2.990182154601809 1 0  3 1.009817845398191 0  3.021817316638014 1.021817316638014 0  3.009817845398191 1 0  2.394320894223886 0.6971604471119428 0  2.685787998552052 0.8952626661840173 0  2.906501822695064 1 0  2.978182683361986 1.021817316638014 0  3 1.093498177304937 0  3.058577075025954 1.117154150051907 0  3.177794957298469 1.177794957298469 0  3.117154150051907 1.058577075025954 0  3.093498177304936 1 0  2.434826776620932 0.858706694155233 0  2.708348690055576 1 0  2.882845849948093 1.058577075025954 0  2.941422924974046 1.117154150051907 0  3 1.291651309944424 0  3.104737333815983 1.314212001447948 0  3.246607814771587 1.36991172215738 0  3.434786669287746 1.434786669287746 0  3.36991172215738 1.246607814771587 0  3.314212001447948 1.104737333815983 0  3.291651309944424 1 0  2.450581390950833 1 0  2.685787998552052 1.104737333815983 0  2.822205042701531 1.177794957298469 0  2.895262666184017 1.314212001447948 0  3 1.549418609049167 0  3.141293305844767 1.565173223379068 0  3.302839552888057 1.605679105776114 0  3.492616872427008 1.656822496569345 0  3.707106781186294 1.707106781186294 0  3.656822496569345 1.492616872427008 0  3.605679105776114 1.302839552888057 0  3.565173223379068 1.141293305844767 0  3.549418609049167 1 0  2.434826776620932 1.141293305844767 0  2.63008827784262 1.246607814771587 0  2.753392185228413 1.36991172215738 0  2.858706694155233 1.565173223379068 0  2.394320894223886 1.302839552888057 0  2.565213330712254 1.434786669287746 0  2.697160447111943 1.605679105776114 0  2.343177503430655 1.492616872427008 0  2.507383127572992 1.656822496569345 0  2.292893218813706 1.707106781186294 0  2 4.549418609049167 0  1.858706694155233 4.565173223379068 0  2 4.291651309944425 0  1.697160447111943 4.605679105776114 0  1.895262666184017 4.314212001447948 0  2 4.093498177304936 0  1.507383127572992 4.656822496569345 0  1.753392185228413 4.36991172215738 0  1.941422924974046 4.117154150051907 0  2 4.009817845398191 0  1.292893218813706 4.707106781186294 0  1.565213330712254 4.434786669287746 0  1.822205042701531 4.177794957298469 0  1.978182683361986 4.021817316638014 0  2 4 0  1.343177503430655 4.492616872427009 0  1.63008827784262 4.246607814771587 0  1.882845849948093 4.058577075025953 0  1.990182154601809 4 0  2 3.990182154601809 0  2.021817316638014 3.978182683361986 0  2.009817845398191 4 0  1.394320894223886 4.302839552888058 0  1.685787998552052 4.104737333815983 0  1.906501822695063 4 0  1.978182683361986 3.978182683361986 0  2 3.906501822695064 0  2.058577075025954 3.882845849948093 0  2.177794957298469 3.822205042701531 0  2.117154150051907 3.941422924974046 0  2.093498177304936 4 0  1.434826776620932 4.141293305844767 0  1.708348690055576 4 0  1.882845849948093 3.941422924974046 0  1.941422924974046 3.882845849948093 0  2 3.708348690055576 0  2.104737333815983 3.685787998552052 0  2.246607814771587 3.63008827784262 0  2.434786669287746 3.565213330712254 0  2.36991172215738 3.753392185228413 0  2.314212001447948 3.895262666184017 0  2.291651309944424 4 0  1.450581390950833 4 0  1.685787998552052 3.895262666184017 0  1.822205042701531 3.822205042701531 0  1.895262666184017 3.685787998552052 0  2 3.450581390950833 0  2.141293305844767 3.434826776620932 0  2.302839552888057 3.394320894223886 0  2.492616872427008 3.343177503430655 0  2.707106781186294 3.292893218813706 0  2.656822496569345 3.507383127572992 0  2.605679105776114 3.697160447111943 0  2.565173223379068 3.858706694155233 0  2.549418609049167 4 0  1.434826776620932 3.858706694155233 0  1.63008827784262 3.753392185228413 0  1.753392185228413 3.63008827784262 0  1.858706694155233 3.434826776620932 0  1.394320894223886 3.697160447111943 0  1.565213330712254 3.565213330712254 0  1.697160447111943 3.394320894223886 0  1.343177503430655 3.507383127572992 0  1.507383127572992 3.343177503430655 0  1.292893218813706 3.292893218813706 0  -6 5.549418609049167 0  -5.858706694155233 5.565173223379068 0  -6 5.291651309944425 0  -5.697160447111943 5.605679105776114 0  -5.895262666184017 5.314212001447948 0  -6 5.093498177304936 0  -5.507383127572992 5.656822496569345 0  -5.753392185228413 5.36991172215738 0  -5.941422924974047 5.117154150051907 0  -6 5.009817845398191 0  -5.292893218813706 5.707106781186294 0  -5.565213330712254 5.434786669287746 0  -5.822205042701531 5.177794957298469 0  -5.978182683361986 5.021817316638014 0  -6 5 0  -5.343177503430655 5.492616872427009 0  -5.63008827784262 5.246607814771587 0  -5.882845849948093 5.058577075025953 0  -5.990182154601809 5 0  -6 4.990182154601809 0  -6.021817316638014 4.978182683361986 0  -6.009817845398191 5 0  -5.394320894223886 5.302839552888058 0  -5.685787998552052 5.104737333815983 0  -5.906501822695064 5 0  -5.978182683361986 4.978182683361986 0  -6 4.906501822695064 0  -6.058577075025953 4.882845849948093 0  -6.177794957298469 4.822205042701531 0  -6.117154150051907 4.941422924974047 0  -6.093498177304936 5 0  -5.434826776620932 5.141293305844767 0  -5.708348690055575 5 0  -5.882845849948093 4.941422924974047 0  -5.941422924974047 4.882845849948093 0  -6 4.708348690055575 0  -6.104737333815983 4.685787998552052 0  -6.246607814771587 4.63008827784262 0  -6.434786669287746 4.565213330712254 0  -6.36991172215738 4.753392185228413 0  -6.314212001447948 4.895262666184017 0  -6.291651309944425 5 0  -5.450581390950833 5 0  -5.685787998552052 4.895262666184017 0  -5.822205042701531 4.822205042701531 0  -5.895262666184017 4.685787998552052 0  -6 4.450581390950833 0  -6.141293305844767 4.434826776620932 0  -6.302839552888058 4.394320894223886 0  -6.492616872427009 4.343177503430655 0  -6.707106781186294 4.292893218813706 0  -6.656822496569345 4.507383127572991 0  -6.605679105776114 4.697160447111942 0  -6.565173223379068 4.858706694155233 0  -6.549418609049167 5 0  -5.434826776620932 4.858706694155233 0  -5.63008827784262 4.753392185228413 0  -5.753392185228413 4.63008827784262 0  -5.858706694155233 4.434826776620932 0  -5.394320894223886 4.697160447111942 0  -5.565213330712254 4.565213330712254 0  -5.697160447111942 4.394320894223886 0  -5.343177503430655 4.507383127572991 0  -5.507383127572991 4.343177503430655 0  -5.292893218813706 4.292893218813706 0  -5 2.450581390950833 0  -4.858706694155233 2.434826776620932 0  -5 2.708348690055576 0  -4.697160447111943 2.394320894223886 0  -4.895262666184017 2.685787998552052 0  -5 2.906501822695064 0  -4.507383127572992 2.343177503430655 0  -4.753392185228413 2.63008827784262 0  -4.941422924974047 2.882845849948093 0  -5 2.990182154601809 0  -4.292893218813706 2.292893218813706 0  -4.565213330712254 2.565213330712254 0  -4.822205042701531 2.822205042701531 0  -4.978182683361986 2.978182683361986 0  -5 3 0  -4.343177503430655 2.507383127572992 0  -4.63008827784262 2.753392185228413 0  -4.882845849948093 2.941422924974046 0  -4.990182154601809 3 0  -5 3.009817845398191 0  -5.021817316638014 3.021817316638014 0  -5.009817845398191 3 0  -4.394320894223886 2.697160447111943 0  -4.685787998552052 2.895262666184017 0  -4.906501822695064 3 0  -4.978182683361986 3.021817316638014 0  -5 3.093498177304936 0  -5.058577075025953 3.117154150051907 0  -5.177794957298469 3.177794957298469 0  -5.117154150051907 3.058577075025954 0  -5.093498177304936 3 0  -4.434826776620932 2.858706694155233 0  -4.708348690055575 3 0  -4.882845849948093 3.058577075025954 0  -4.941422924974047 3.117154150051907 0  -5 3.291651309944424 0  -5.104737333815983 3.314212001447948 0  -5.246607814771587 3.36991172215738 0  -5.434786669287746 3.434786669287746 0  -5.36991172215738 3.246607814771587 0  -5.314212001447948 3.104737333815983 0  -5.291651309944425 3 0  -4.450581390950833 3 0  -4.685787998552052 3.104737333815983 0  -4.822205042701531 3.177794957298469 0  -4.895262666184017 3.314212001447948 0  -5 3.549418609049167 0  -5.141293305844767 3.565173223379068 0  -5.302839552888058 3.605679105776114 0  -5.492616872427009 3.656822496569345 0  -5.707106781186294 3.707106781186294 0  -5.656822496569345 3.492616872427008 0  -5.605679105776114 3.302839552888057 0  -5.565173223379068 3.141293305844767 0  -5.549418609049167 3 0  -4.434826776620932 3.141293305844767 0  -4.63008827784262 3.246607814771587 0  -4.753392185228413 3.36991172215738 0  -4.858706694155233 3.565173223379068 0  -4.394320894223886 3.302839552888057 0  -4.565213330712254 3.434786669287746 0  -4.697160447111942 3.605679105776114 0  -4.343177503430655 3.492616872427008 0  -4.507383127572991 3.656822496569345 0  -4.292893218813706 3.707106781186294 0  5 1 0  5 1.1875 0  4.825709888222015 1.037854944111007 0  4.786264867164171 1.260115678616865 0  4.651419776444029 1.075709888222014 0  5 1.375 0  4.644818160953175 1.436037744007759 0  4.465641823823532 1.303565771594816 0  4.302839552888058 1.151419776444029 0  5 1.5625 0  4.421294993849391 1.718733939153952 0  4.746742394938785 1.678619710993132 0  5 1.75 0  4.296598959349347 1.448746669899425 0  4.128549441110072 1.189274720555036 0  4.699672700402207 1.9375 0  5 2.125 0  4.410658553323315 2.018768213700664 0  4.267130272717368 1.863474356104607 0  4.220399009241286 1.64772992213087 0  4.023462850188271 1.566385491943431 0  4.078391068383893 1.3784946945315
[...]
<CellData  Scalars="f_7587"> 
<DataArray  type="Float64"  Name="f_7587"  format="ascii">0.0000000000000000e+00   5.4838658048626421e-02   5.4838658048627385e-02   1.2036828805682022e-02   1.5115972430850009e-02   2.1648790049880359e-01   4.5280214539433622e-02   2.1648790049880359e-01   1.5115972430850451e-02   4.5280214539432630e-02   2.1648790049880245e-01   2.1648790049880245e-01   1.9632900809843443e-01   2.4910564655841200e-02   1.9632900809843454e-01   1.9632900809843454e-01   7.5861607575078616e-01   1.0827224133120814e+00   1.0827224133120796e+00   1.0827224133120814e+00   2.4067828555702353e-01   4.0838049317317515e-01   6.3912670073277900e-01   2.4067828555702353e-01   2.4067828555702472e-01   6.3912670073278011e-01   4.0838049317317393e-01   2.4067828555702472e-01   6.3912670073277900e-01   4.0838049317317515e-01   6.3912670073278011e-01   2.6767024309446164e-01   1.7712398124363468e-01   1.3496250406787980e-01   2.3020782919788771e-01   2.3020782919788771e-01   1.8817219989368427e-02   1.4271640563902857e-01   6.9891190436563277e-02   3.9111658748230908e-02   1.1940572185387812e+00   6.6573723139281715e-01   5.7343688404626991e-01   1.1940572185387812e+00   1.1203894888929894e-01   3.5264744772684470e-01   6.6573723139281715e-01   2.5288347629065672e-01   0.0000000000000000e+00   2.3020782919788602e-01   1.3496250406787960e-01   2.3020782919788602e-01   1.1940572185387812e+00   5.7343688404626991e-01   6.6573723139281782e-01   1.1940572185387812e+00   1.8817219989368576e-02   6.9891190436564235e-02   1.4271640563902893e-01   3.9111658748230770e-02   6.6573723139281782e-01   3.5264744772684425e-01   1.1203894888929820e-01   2.5288347629065566e-01   1.7712398124363468e-01   2.3020782919788724e-01   1.3496250406787885e-01   2.3020782919788724e-01   1.1940572185387794e+00   5.7343688404626958e-01   6.6573723139281760e-01   1.1940572185387794e+00   1.8817219989370016e-02   6.9891190436564068e-02   1.4271640563902893e-01   3.9111658748230770e-02   6.6573723139281760e-01   3.5264744772684464e-01   1.1203894888929836e-01   2.5288347629065594e-01   0.0000000000000000e+00   1.3496250406787980e-01   2.3020782919788771e-01   2.3020782919788771e-01   1.8817219989369870e-02   1.4271640563902857e-01   6.9891190436563277e-02   3.9111658748230908e-02   1.1940572185387794e+00   6.6573723139281715e-01   5.7343688404626958e-01   1.1940572185387794e+00   1.1203894888929894e-01   3.5264744772684498e-01   6.6573723139281715e-01   2.5288347629065672e-01   0.0000000000000000e+00   5.4838658048627385e-02   5.4838658048626421e-02   1.2036828805682022e-02   1.5115972430850451e-02   2.1648790049880245e-01   4.5280214539432630e-02   2.1648790049880245e-01   1.5115972430850009e-02   4.5280214539433622e-02   2.1648790049880359e-01   2.1648790049880359e-01   1.9632900809843454e-01   2.4910564655841200e-02   1.9632900809843443e-01   1.9632900809843454e-01   7.5861607575078616e-01   1.0827224133120796e+00   1.0827224133120814e+00   1.0827224133120814e+00   2.4067828555702472e-01   4.0838049317317393e-01   6.3912670073278011e-01   2.4067828555702472e-01   2.4067828555702353e-01   6.3912670073277900e-01   4.0838049317317515e-01   2.4067828555702353e-01   6.3912670073278011e-01   4.0838049317317515e-01   6.3912670073277900e-01   2.6767024309446164e-01   1.7712398124363540e-01   1.3496250406787891e-01   2.3020782919788793e-01   2.3020782919788793e-01   1.8817219989368431e-02   1.4271640563902716e-01   6.9891190436563291e-02   3.9111658748230770e-02   1.1940572185387786e+00   6.6573723139281904e-01   5.7343688404627113e-01   1.1940572185387786e+00   1.1203894888929739e-01   3.5264744772684636e-01   6.6573723139281904e-01   2.5288347629065772e-01   0.0000000000000000e+00   2.3020782919788660e-01   1.3496250406788088e-01   2.3020782919788660e-01   1.1940572185387814e+00   5.7343688404626658e-01   6.6573723139281427e-01   1.1940572185387814e+00   1.8817219989368285e-02   6.9891190436563277e-02   1.4271640563902857e-01   3.9111658748230908e-02   6.6573723139281427e-01   3.5264744772684498e-01   1.1203894888929894e-01   2.5288347629065672e-01   1.7712398124363468e-01   2.3020782919788724e-01   1.3496250406787949e-01   2.3020782919788724e-01   1.1940572185387794e+00   5.7343688404627002e-01   6.6573723139281760e-01   1.1940572185387794e+00   1.8817219989369426e-02   6.9891190436564027e-02   1.4271640563902846e-01   3.9111658748231810e-02   6.6573723139281760e-01   3.5264744772684403e-01   1.1203894888929898e-01   2.5288347629065594e-01   0.0000000000000000e+00   1.3496250406787949e-01   2.3020782919788724e-01   2.3020782919788724e-01   1.8817219989369426e-02   1.4271640563902846e-01   6.9891190436564027e-02   3.9111658748231810e-02   1.1940572185387794e+00   6.6573723139281760e-01   5.7343688404627002e-01   1.1940572185387794e+00   1.1203894888929898e-01   3.5264744772684403e-01   6.6573723139281760e-01   2.5288347629065594e-01   0.0000000000000000e+00   5.4838658048625935e-02   5.4838658048625935e-02   1.2036828805678537e-02   1.5115972430850220e-02   2.1648790049880381e-01   4.5280214539433733e-02   2.1648790049880381e-01   1.5115972430850220e-02   4.5280214539433733e-02   2.1648790049880381e-01   2.1648790049880381e-01   1.9632900809843662e-01   2.4910564655843018e-02   1.9632900809843662e-01   1.9632900809843662e-01   7.5861607575082479e-01   1.0827224133120774e+00   1.0827224133120774e+00   1.0827224133120774e+00   2.4067828555702225e-01   4.0838049317317116e-01   6.3912670073278344e-01   2.4067828555702225e-01   2.4067828555702225e-01   6.3912670073278344e-01   4.0838049317317116e-01   2.4067828555702225e-01   6.3912670073278344e-01   4.0838049317317116e-01   6.3912670073278344e-01   2.6767024309446674e-01   1.7712398124363588e-01   1.3496250406788063e-01   2.3020782919788671e-01   2.3020782919788671e-01   1.8817219989367844e-02   1.4271640563902671e-01   6.9891190436563388e-02   3.9111658748231810e-02   1.1940572185387808e+00   6.6573723139281615e-01   5.7343688404626869e-01   1.1940572185387808e+00   1.1203894888929786e-01   3.5264744772684575e-01   6.6573723139281615e-01   2.5288347629065772e-01   0.0000000000000000e+00   2.3020782919788529e-01   1.3496250406788068e-01   2.3020782919788529e-01   1.1940572185387808e+00   5.7343688404626869e-01   6.6573723139281615e-01   1.1940572185387808e+00   1.8817219989369461e-02   6.9891190436563194e-02   1.4271640563902671e-01   3.9111658748230194e-02   6.6573723139281615e-01   3.5264744772684575e-01   1.1203894888929643e-01   2.5288347629065772e-01   1.7712398124363588e-01   2.3020782919788671e-01   1.3496250406788063e-01   2.3020782919788671e-01   1.1940572185387808e+00   5.7343688404626869e-01   6.6573723139281615e-01   1.1940572185387808e+00   1.8817219989367844e-02   6.9891190436563388e-02   1.4271640563902671e-01   3.9111658748231810e-02   6.6573723139281615e-01   3.5264744772684575e-01   1.1203894888929786e-01   2.5288347629065772e-01   0.0000000000000000e+00   1.3496250406788063e-01   2.3020782919788671e-01   2.3020782919788671e-01   1.8817219989367844e-02   1.4271640563902671e-01   6.9891190436563388e-02   3.9111658748231810e-02   1.1940572185387808e+00   6.6573723139281615e-01   5.7343688404626869e-01   1.1940572185387808e+00   1.1203894888929786e-01   3.5264744772684575e-01   6.6573723139281615e-01   2.5288347629065772e-01   0.0000000000000000e+00   5.4838658048626532e-02   5.4838658048625935e-02   1.2036828805680459e-02   1.5115972430850437e-02   2.1648790049880429e-01   4.5280214539433511e-02   2.1648790049880429e-01   1.5115972430850220e-02   4.5280214539433733e-02   2.1648790049880381e-01   2.1648790049880381e-01   1.9632900809843454e-01   2.4910564655840923e-02   1.9632900809843454e-01   1.9632900809843454e-01   7.5861607575080547e-01   1.0827224133120736e+00   1.0827224133120774e+00   1.0827224133120774e+00   2.4067828555702395e-01   4.0838049317317116e-01   6.3912670073278144e-01   2.4067828555702395e-01   2.4067828555702278e-01   6.3912670073278210e-01   4.0838049317317060e-01   2.4067828555702278e-01   6.3912670073278144e-01   4.0838049317317116e-01   6.3912670073278210e-01   2.6767024309446530e-01   1.7712398124363535e-01   1.3496250406788057e-01   2.3020782919788621e-01   2.3020782919788621e-01   1.8817219989367844e-02   1.4271640563902846e-01   6.9891190436564027e-02   3.9111658748231810e-02   1.1940572185387814e+00   6.6573723139281471e-01   5.7343688404626725e-01   1.1940572185387814e+00   1.1203894888929898e-01   3.5264744772684403e-01   6.6573723139281471e-01   2.5288347629065594e-01   0.0000000000000000e+00   2.3020782919788671e-01   1.3496250406787924e-01   2.3020782919788671e-01   1.1940572185387786e+00   5.7343688404627169e-01   6.6573723139281904e-01   1.1940572185387786e+00   1.8817219989369461e-02   6.9891190436563194e-02   1.4271640563902671e-01   3.9111658748230194e-02   6.6573723139281904e-01   3.5264744772684575e-01   1.1203894888929643e-01   2.5288347629065772e-01   1.7712398124363540e-01   2.3020782919788793e-01   1.3496250406787941e-01   2.3020782919788793e-01   1.1940572185387786e+00   5.7343688404627169e-01   6.6573723139281904e-01   1.1940572185387786e+00   1.8817219989368708e-02   6.9891190436563388e-02   1.4271640563902671e-01   3.9111658748231810e-02   6.6573723139281904e-01   3.5264744772684575e-01   1.1203894888929786e-01   2.5288347629065772e-01   0.0000000000000000e+00   1.3496250406788057e-01   2.3020782919788621e-01   2.3020782919788621e-01   1.8817219989368708e-02   1.4271640563902846e-01   6.9891190436564027e-02   3.9111658748231810e-02   1.1940572185387814e+00   6.6573723139281471e-01   5.7343688404626725e-01   1.1940572185387814e+00   1.1203894888929898e-01   3.5264744772684403e-01   6.6573723139281471e-01   2.5288347629065594e-01   3.7180063828128745e-01   2.1097515961237415e-01   9.2320872648271407e-02   2.9824015514770258e-01   2.8913787632097754e-01   8.9302250741212327e-02   6.6344918037419584e-02   2.2292143777020162e-01   6.1503722688982937e-02   2.7586712747615050e-01   1.8144062003071929e-01   9.7185246370512152e-02   1.5928962691974410e-02   3.6277152946838975e-01   1.3146999218251232e-01   4.8722345433645835e-02   2.3366081029193395e-01   1.9111643996270622e-01   3.1132801465724280e-01   1.9640050329599448e-01   4.8722345433645835e-02   3.3674509439844669e-01   4.2832030640840436e-02   8.0182248624708588e-02   1.5650873253887279e-01   1.2930045732113066e-01   3.5458426222629774e-01   2.3858903207071966e-01   2.2533359059199672e-02   8.9697335462110950e-02   3.9941683620134789e-02   1.3306540601977654e-01   1.6150906746399135e-01   3.2634790537676178e-01   2.0808512510038471e-01   9.7977824009157319e-02   4.8722345433644870e-02   2.5537370534702436e-01   1.4020976889309425e-01   2.7875504516608907e-01   2.8131919346188677e-01   3.6241532839780172e-01   6.6064404611840086e-02   9.4280768010348903e-02   6.1054700189805904e-02   2.7046767187926019e-01   1.9344875513169085e-01   1.4318619370385299e-01   3.7411536143555590e-01   2.3696124984109984e-01   3.5450863446645264e-01   3.2672095031479143e-01   1.8510796948636651e-01   3.2042866702425310e-01   1.8505061297073258e-01   2.4371440592020399e-01   1.1303520129584748e-02   1.8603597305424652e-01   1.6990893558920261e-01   3.7861708302732106e-01   2.3785561492779247e-01   1.5685979458063184e-01   2.6684380034509236e-01   2.5537370534702436e-01   1.0713675182827438e-01   1.8985936326560102e-01   1.1102084558918304e-01   4.5060039642337496e-01   1.5426048206918394e-01   2.3215514146466021e-01   3.0488899411263853e-01   1.6896512517544776e-01   6.5288880308650321e-02   3.0773051919387506e-01   1.0408985868386635e-01   3.3077987572486744e-01   1.5518344078148175e-01   2.7932233317755791e-02   2.6051941501006548e-01   1.8510672333556011e-01   5.5197529204744189e-02   1.8929512367650711e-01   2.8333725132897192e-01   1.8362630276972072e-01   1.8208884175205348e-01   1.5340997868852965e-01   2.4354288936317972e-01   3.0346673726199114e-01   2.6183226287867073e-01   8.1989629451328719e-02   1.4740558164592354e-01   2.5452448256071236e-01   5.6963058078444963e-02   1.8922917341480211e-01   2.6819127131961279e-01   9.6963675461336385e-02   2.0955462237572109e-01   1.2564550875701092e-01   3.1169798523426079e-01   6.3108436888663424e-02   8.6991288917456971e-02   2.2153253753504562e-01   2.2832179422198162e-01   2.3851176227597501e-01   2.9070021671357171e-01   2.2500086902150937e-01   1.1333693557130731e-01   2.3107684504540504e-01   2.8820592051870370e-01   1.8971437024076537e-01   1.1014493857047916e-01   2.0535380231802025e-01   8.8760368173419701e-02   2.8731192298393426e-01   2.3319530770572250e-01   3.6277152946838975e-01   8.6761664475004344e-02   2.5047479319384825e-02   2.6202001545842546e-01   2.5314201839194067e-01   1.3757253203111741e-01   2.8333725132897192e-01   1.9778853046256720e-01   1.3150907466365766e-01   2.8731192298393510e-01   2.4417319281090707e-01   2.4417319281090707e-01   1.4858634589825584e-01   1.4615364576800330e-01   4.4913639047629728e-01   9.4860579491445607e-03   3.1181068904518973e-02   1.3439117532826278e-01   2.1524337183132305e-01   1.0083244056132912e-01   1.6044530389006920e-01   7.7593940271526829e-02   4.2114374387896530e-02   2.5019777016395905e-01   3.9941683620134789e-02   2.0592903064244106e-01   1.6900788450313453e-01   4.8882691332082118e-02   1.2893715352018476e-01   1.6990893558920261e-01   3.0336982794698958e-01   4.6281465567235214e-01   1.0713675182827387e-01   1.0064323233982213e-01   2.0955462237572092e-01   2.7328921869771050e-01   2.5452448256071236e-01   9.4713640130358989e-02   1.1721150609986358e-01   2.8994664491043898e-01   2.2349512712853448e-01   7.4288644635351980e-02   3.8585103354290023e-01   1.5403482627961249e-01   1.8477202127911962e-01   6.9153000982865524e-04   1.4255974621567949e-01   3.1794688810213512e-01   2.5779656895420178e-01   1.3514846775320132e-02   1.2808885861997088e-01   1.5355927797955260e-01   1.4269327665263223e-01   2.3088885651160376e-01   2.4611296686506878e-01   5.3558871149582334e-02   1.1333693557130814e-01   2.4096088767453186e-01   2.3858903207071966e-01   1.6203982843366169e-01   4.8028039081437557e-01   3.7654241935073307e-03   1.5160784629553900e-01   6.3108436888663577e-02   2.5605145287633790e-01   1.9640050329599579e-01   2.5098937584386788e-01   4.3919410738006909e-01   1.9115972146040394e-01   3.2025698076319375e-01   2.0479877342754718e-01   1.9376490419786904e-01   1.1988184180698491e-01   3.2672095031479143e-01   2.5300267964148687e-01   2.8577678569548296e-02   1.4445166211257288e-01   2.2979198714165663e-01   1.1695456961415061e-01   2.2272802386471435e-01   3.7455533349287884e-01   3.4330122426509641e-01   1.8276109208469629e-01   2.9293328667108648e-01   1.2974339224994894e-01   2.7522792779447691e-01   1.5257973759089430e-01   3.3999891746069916e-01   8.1133857069075388e-02   2.3487336757994576e-01   1.6807272103520721e-01   2.2732770581591513e-01   2.4568269873828252e-01   1.7369184737833579e-01   2.5084721134792831e-01   1.3843472816014346e-01   1.4463187482868894e-01   2.8451158093014839e-01   1.7628247699292737e-01   8.9788904720757678e-02   2.9112558977936537e-01   2.9112558977936537e-01   2.0072192220833301e-01   6.3600668140067540e-02   2.5788093668782184e-02   2.7777069748138006e-01   8.1075343695523036e-02   1.1063038059111453e-01   1.6077062481009816e-01   7.4219398350801269e-02   2.6847233108435981e-01   2.0641341475555308e-01   3.6241532839780172e-01   3.2619163667118467e-01   2.8575007874275637e-01   6.0967802722056482e-03   3.7383594526764502e-01   1.9934622797766086e-01   7.6134882628479741e-02   2.9981092002888303e-03   8.7457742964530419e-02   2.1248579561009237e-01   2.4563884518339130e-01   1.4548122774111275e-02   2.1797469441550468e-01   3.1106985420463840e-01   2.0919804798941261e-01   2.1675770166549491e-01   2.5821711595029329e-01   2.1675770166549491e-01   1.9934622797766066e-01   3.0957422283647928e-01   1.7015407610327335e-01   1.5558848348043625e-01   2.3528845703635337e-01   2.2495205116681893e-01   2.2627284706704737e-01   2.4371440592020399e-01   2.5631022509749274e-01   1.7911195564369642e-01   1.4740558164592354e-01   1.5800159883426626e-01   1.7015407610327399e-01   1.7015407610327335e-01   3.2973101471645527e-01   6.6635052325306449e-02   1.8351231253440917e-01   2.9665241612235097e-03   7.3713694948415676e-02   2.4010538426377467e-01   1.2367559620875626e-01   1.7917497109659250e-01   6.4217147411978162e-02   1.9103306896910360e-01   1.0831076233831118e-01   2.2869239739464098e-01   2.2922574683781677e-01   2.2869239739464098e-01   3.1181101541098022e-01   4.3105285170400354e-02   1.2993490735288638e-01   8.3594744425798090e-02   3.0021137906674322e-01   4.5118159414499981e-02   5.4768581358777678e-02   1.7369184737833435e-01   7.8381500676010990e-02   2.6470251962586050e-01   1.6262965102812738e-01   6.3057092006187046e-02   1.7849616246764485e-01   1.9936103832646263e-01   1.7569361999182945e-01   2.2286689800990239e-01   1.6454599137017842e-01   3.4669991025531827e-01   6.3777350283614559e-02   1.8510796948636651e-01   2.6603265015056166e-01   4.6466340827856153e-02   2.7586712747615050e-01   1.0683230350628228e-01   1.4425714129281925e-01   1.3687039074310009e-01   1.7448199222888355e-02   1.2891623141196262e-01   3.5060490878749750e-01   1.5722062800643904e-01   1.4909344169977787e-01   1.4255974621567913e-01   2.0028152362962542e-01   3.5521583335143901e-16   4.3003740297998465e-02   1.1194684756720591e-01   2.2874975883407392e-01   1.6028164905475559e-01   2.8759495155132581e-01   1.1594090658809748e-01   6.6880517578510754e-02   4.5410828252472966e-02   3.0986331057243362e-02   4.1521485696234803e-02   1.9648869729554178e-01   2.6330250228716456e-01   2.3528845703635337e-01   2.8820592051870370e-01   4.0149984247694842e-01   1.1555070468752489e-02   3.4462311935279322e-02   1.7010712307724740e-01   3.5223227738577745e-01   8.4078001803179175e-02   1.9164553449847374e-01   1.9640050329599579e-01   8.1972855264363820e-02   8.5901679642868975e-02   1.4909344169977787e-01   2.4661945679298730e-01   1.2808885861997032e-01   2.1256204480776092e-01   1.9323458961483220e-01   4.1592447577385022e-01   5.9037143460280647e-02   1.1341335841854130e-01   1.8603597305424574e-01   0.0000000000000000e+00   9.6963675461336843e-02   1.6853395204811897e-01   2.8154644789231364e-01   2.8154644789231398e-01   1.1479932984710281e-01   2.3528845703635282e-01   2.5779656895420178e-01   1.6274063892989341e-01   2.2654692976092741e-01   2.8687858441022600e-02   1.9911382509708289e-01   1.6824623210582282e-01   1.9754996630449070e-01   7.0576270680217948e-02   1.7445392225436857e-01   1.0931134931404185e-01   7.5816456025992310e-02   2.3396440281776801e-01   4.4367410788941172e-02   5.6893995052399289e-02   1.9096733286834947e-01   2.5835869917075691e-02   8.3586530642116727e-02   7.1348143227407818e-02   2.1804094123728118e-02   2.1123345874250726e-01   2.8154644789231398e-01   1.0083018505989480e-01   1.0083018505989480e-01   9.2123904020401909e-02   1.1401428870383762e-01   4.1742465613255986e-01   2.3723108384141425e-01   8.5096671378610475e-02   1.0499769286019354e-01   2.7046767187926019e-01   3.0080769394811677e-02   2.7888913552328598e-01   3.1752429950975786e-01   2.1915907822638139e-01   7.0478236997116819e-02   1.9276453036766647e-01   3.6271669384313804e-01   1.6853395204811897e-01   2.6462424919163768e-01   2.6462424919163768e-01   9.3642973044287398e-02   1.7225265030915184e-02   2.4418121459493947e-01   2.5555341102556811e-01   3.4095223394082325e-01   2.8731192298393510e-01   1.8288004895893956e-01   1.4108108753973234e-01   1.1695456961415061e-01   1.6833204807065533e-01   4.4203371671881231e-01   1.0113645167785486e-01   2.1552336047655576e-01   2.2124293379302834e-01   2.7572935604478593e-01   1.2988230287786454e-01   1.1650396229378672e-01   4.6799614639271020e-01   1.4809800198741957e-01   5.9142001208978411e-02   3.2184275626493380e-01   9.9643499828928242e-02   3.1074084035158211e-02   2.3215514146466235e-01   1.9778853046256512e-01   2.2713479548