<?xml version="1.0"?>
<VTKFile type="UnstructuredGrid"  version="0.1"  >
<UnstructuredGrid>
<Piece  NumberOfPoints="1371" NumberOfCells="2401">
<Points>
<DataArray  type="Float64"  NumberOfComponents="3"  format="ascii">3 0.4118207621415985 0  2.850097571428131 0.4003902857125256 0  3 0.6451325180728931 0  2.685321360221745 0.3706427204434891 0  2.876293965053353 0.62888189516006 0  3 0.8443666535747749 0  2.499093303904763 0.3321244052063501 0  2.726084095315085 0.5891261429726272 0  2.911582771125035 0.8231655422500692 0  3 0.9693365453905908 0  2.292893218813691 0.292893218813691 0  2.542331217136824 0.5423312171368238 0  2.775577275295324 0.7755772752953246 0  2.950052991924517 0.9500529919245165 0  3 1 0  2.33212440520635 0.4990933039047626 0  2.589126142972627 0.7260840953150849 0  2.823165542250069 0.9115827711250346 0  2.969336545390591 1 0  3 1.030663454609409 0  3.049947008075483 1.049947008075483 0  3.030663454609409 1 0  2.370642720443489 0.6853213602217444 0  2.62888189516006 0.8762939650533533 0  2.844366653574775 1 0  2.950052991924517 1.049947008075483 0  3 1.155633346425225 0  3.088417228874965 1.176834457749931 0  3.224422724704676 1.224422724704675 0  3.176834457749931 1.088417228874965 0  3.155633346425225 1 0  2.400390285712525 0.8500975714281314 0  2.645132518072893 1 0  2.823165542250069 1.088417228874965 0  2.911582771125035 1.176834457749931 0  3 1.354867481927107 0  3.123706034946647 1.37111810483994 0  3.273915904684915 1.410873857027373 0  3.457668782863176 1.457668782863176 0  3.410873857027373 1.273915904684915 0  3.37111810483994 1.123706034946647 0  3.354867481927107 1 0  2.411820762141598 1 0  2.62888189516006 1.123706034946647 0  2.775577275295324 1.224422724704675 0  2.876293965053353 1.37111810483994 0  3 1.588179237858402 0  3.149902428571869 1.599609714287475 0  3.314678639778255 1.629357279556511 0  3.500906696095238 1.66787559479365 0  3.707106781186309 1.707106781186309 0  3.66787559479365 1.500906696095238 0  3.629357279556511 1.314678639778255 0  3.599609714287475 1.149902428571869 0  3.588179237858402 1 0  2.400390285712525 1.149902428571869 0  2.589126142972627 1.273915904684915 0  2.726084095315085 1.410873857027373 0  2.850097571428131 1.599609714287475 0  2.370642720443489 1.314678639778255 0  2.542331217136824 1.457668782863176 0  2.685321360221745 1.629357279556511 0  2.33212440520635 1.500906696095238 0  2.499093303904762 1.66787559479365 0  2.292893218813691 1.707106781186309 0  2 4.588179237858402 0  1.850097571428131 4.599609714287475 0  2 4.354867481927107 0  1.685321360221745 4.629357279556511 0  1.876293965053353 4.37111810483994 0  2 4.155633346425225 0  1.499093303904763 4.667875594793649 0  1.726084095315085 4.410873857027373 0  1.911582771125035 4.176834457749931 0  2 4.030663454609409 0  1.292893218813691 4.707106781186309 0  1.542331217136824 4.457668782863176 0  1.775577275295325 4.224422724704676 0  1.950052991924517 4.049947008075484 0  2 4 0  1.33212440520635 4.500906696095237 0  1.589126142972627 4.273915904684915 0  1.823165542250069 4.088417228874965 0  1.969336545390591 4 0  2 3.969336545390591 0  2.049947008075483 3.950052991924517 0  2.030663454609409 4 0  1.370642720443489 4.314678639778256 0  1.62888189516006 4.123706034946647 0  1.844366653574775 4 0  1.950052991924517 3.950052991924517 0  2 3.844366653574775 0  2.088417228874965 3.823165542250069 0  2.224422724704676 3.775577275295324 0  2.176834457749931 3.911582771125035 0  2.155633346425225 4 0  1.400390285712525 4.149902428571869 0  1.645132518072893 4 0  1.823165542250069 3.911582771125035 0  1.911582771125035 3.823165542250069 0  2 3.645132518072893 0  2.123706034946647 3.62888189516006 0  2.273915904684915 3.589126142972627 0  2.457668782863176 3.542331217136824 0  2.410873857027373 3.726084095315085 0  2.37111810483994 3.876293965053353 0  2.354867481927107 4 0  1.411820762141598 4 0  1.62888189516006 3.876293965053353 0  1.775577275295325 3.775577275295324 0  1.876293965053353 3.62888189516006 0  2 3.411820762141598 0  2.149902428571869 3.400390285712525 0  2.314678639778255 3.370642720443489 0  2.500906696095238 3.33212440520635 0  2.707106781186309 3.292893218813691 0  2.66787559479365 3.499093303904762 0  2.629357279556511 3.685321360221745 0  2.599609714287475 3.850097571428131 0  2.588179237858402 4 0  1.400390285712525 3.850097571428131 0  1.589126142972627 3.726084095315085 0  1.726084095315085 3.589126142972627 0  1.850097571428131 3.400390285712525 0  1.370642720443489 3.685321360221745 0  1.542331217136824 3.542331217136824 0  1.685321360221745 3.370642720443489 0  1.33212440520635 3.499093303904762 0  1.499093303904762 3.33212440520635 0  1.292893218813691 3.292893218813691 0  -6 5.588179237858402 0  -5.850097571428131 5.599609714287475 0  -6 5.354867481927107 0  -5.685321360221745 5.629357279556511 0  -5.876293965053353 5.37111810483994 0  -6 5.155633346425225 0  -5.499093303904763 5.667875594793649 0  -5.726084095315085 5.410873857027373 0  -5.911582771125035 5.176834457749931 0  -6 5.030663454609409 0  -5.292893218813691 5.707106781186309 0  -5.542331217136824 5.457668782863176 0  -5.775577275295324 5.224422724704676 0  -5.950052991924516 5.049947008075484 0  -6 5 0  -5.332124405206351 5.500906696095237 0  -5.589126142972627 5.273915904684915 0  -5.823165542250069 5.088417228874965 0  -5.969336545390591 5 0  -6 4.969336545390591 0  -6.049947008075484 4.950052991924516 0  -6.030663454609409 5 0  -5.370642720443489 5.314678639778256 0  -5.62888189516006 5.123706034946647 0  -5.844366653574775 5 0  -5.950052991924516 4.950052991924516 0  -6 4.844366653574775 0  -6.088417228874965 4.823165542250069 0  -6.224422724704676 4.775577275295324 0  -6.176834457749931 4.911582771125035 0  -6.155633346425225 5 0  -5.400390285712525 5.149902428571869 0  -5.645132518072893 5 0  -5.823165542250069 4.911582771125035 0  -5.911582771125035 4.823165542250069 0  -6 4.645132518072893 0  -6.123706034946647 4.62888189516006 0  -6.273915904684915 4.589126142972627 0  -6.457668782863176 4.542331217136824 0  -6.410873857027373 4.726084095315085 0  -6.37111810483994 4.876293965053353 0  -6.354867481927107 5 0  -5.411820762141598 5 0  -5.62888189516006 4.876293965053353 0  -5.775577275295324 4.775577275295324 0  -5.876293965053353 4.62888189516006 0  -6 4.411820762141598 0  -6.149902428571869 4.400390285712525 0  -6.314678639778256 4.370642720443489 0  -6.500906696095237 4.332124405206351 0  -6.707106781186309 4.292893218813691 0  -6.667875594793649 4.499093303904763 0  -6.629357279556511 4.685321360221744 0  -6.599609714287475 4.850097571428131 0  -6.588179237858402 5 0  -5.400390285712525 4.850097571428131 0  -5.589126142972627 4.726084095315085 0  -5.726084095315085 4.589126142972627 0  -5.850097571428131 4.400390285712525 0  -5.370642720443489 4.685321360221744 0  -5.542331217136824 4.542331217136824 0  -5.685321360221744 4.370642720443489 0  -5.332124405206351 4.499093303904763 0  -5.499093303904763 4.332124405206351 0  -5.292893218813691 4.292893218813691 0  -5 2.411820762141598 0  -4.850097571428131 2.400390285712525 0  -5 2.645132518072893 0  -4.685321360221745 2.370642720443489 0  -4.876293965053353 2.62888189516006 0  -5 2.844366653574775 0  -4.499093303904763 2.33212440520635 0  -4.726084095315085 2.589126142972627 0  -4.911582771125035 2.823165542250069 0  -5 2.969336545390591 0  -4.292893218813691 2.292893218813691 0  -4.542331217136824 2.542331217136824 0  -4.775577275295324 2.775577275295324 0  -4.950052991924516 2.950052991924517 0  -5 3 0  -4.332124405206351 2.499093303904762 0  -4.589126142972627 2.726084095315085 0  -4.823165542250069 2.911582771125035 0  -4.969336545390591 3 0  -5 3.030663454609409 0  -5.049947008075484 3.049947008075483 0  -5.030663454609409 3 0  -4.370642720443489 2.685321360221745 0  -4.62888189516006 2.876293965053353 0  -4.844366653574775 3 0  -4.950052991924516 3.049947008075483 0  -5 3.155633346425225 0  -5.088417228874965 3.176834457749931 0  -5.224422724704676 3.224422724704676 0  -5.176834457749931 3.088417228874965 0  -5.155633346425225 3 0  -4.400390285712525 2.850097571428131 0  -4.645132518072893 3 0  -4.823165542250069 3.088417228874965 0  -4.911582771125035 3.176834457749931 0  -5 3.354867481927107 0  -5.123706034946647 3.37111810483994 0  -5.273915904684915 3.410873857027373 0  -5.457668782863176 3.457668782863176 0  -5.410873857027373 3.273915904684915 0  -5.37111810483994 3.123706034946647 0  -5.354867481927107 3 0  -4.411820762141598 3 0  -4.62888189516006 3.123706034946647 0  -4.775577275295324 3.224422724704676 0  -4.876293965053353 3.37111810483994 0  -5 3.588179237858402 0  -5.149902428571869 3.599609714287475 0  -5.314678639778256 3.629357279556511 0  -5.500906696095237 3.66787559479365 0  -5.707106781186309 3.707106781186309 0  -5.667875594793649 3.500906696095238 0  -5.629357279556511 3.314678639778255 0  -5.599609714287475 3.149902428571869 0  -5.588179237858402 3 0  -4.400390285712525 3.149902428571869 0  -4.589126142972627 3.273915904684915 0  -4.726084095315085 3.410873857027373 0  -4.850097571428131 3.599609714287475 0  -4.370642720443489 3.314678639778255 0  -4.542331217136824 3.457668782863176 0  -4.685321360221744 3.629357279556511 0  -4.332124405206351 3.500906696095238 0  -4.499093303904763 3.66787559479365 0  -4.292893218813691 3.707106781186309 0  5 1 0  5 1.1875 0  4.828669659944564 1.039334829972282 0  5 1.375 0  4.799955282837507 1.28125 0  4.657339319889128 1.078669659944564 0  4.820634918236892 1.506417692786598 0  4.6452355475728 1.438948303365132 0  4.608183587928194 1.257360882676231 0  4.486008979833692 1.118004489916846 0  5 1.5625 0  4.747895110462368 1.679697749640207 0  5 1.75 0  4.573762165742714 1.611688335159911 0  4.356652757945501 1.442880316242406 0  4.314678639778256 1.157339319889128 0  4.702758856255141 1.9375 0  4.42396586971011 1.723530333486135 0  4.232041642026576 1.621165377692019 0  4.149300793242634 1.407019981108342 0  4.143348299722819 1.19667414986141 0  5 1.9375 0  4.761477544891046 
[...]
<CellData  Scalars="f_7392"> 
<DataArray  type="Float64"  Name="f_7392"  format="ascii">0.0000000000000000e+00   5.5247331384674817e-02   5.5247331384675434e-02   5.5247331384675434e-02   8.2734105676589093e-02   1.7536263803698204e-01   1.8232385774483328e-02   1.7536263803698204e-01   8.2734105676589093e-02   1.8232385774483328e-02   1.7536263803698132e-01   1.7536263803698132e-01   1.4262967179959918e-01   4.0327691559423479e-03   1.4262967179959857e-01   1.4262967179959918e-01   4.7843797997919574e-01   8.0028655177800434e-01   8.0028655177800434e-01   8.0028655177800434e-01   2.2762262169374003e-01   3.1252384366078328e-01   4.0167597561190443e-01   2.2762262169374003e-01   2.2762262169374112e-01   4.0167597561190233e-01   3.1252384366078328e-01   2.2762262169374112e-01   4.0167597561190443e-01   3.1252384366078328e-01   4.0167597561190233e-01   8.3125772749255103e-02   1.3845318918599714e-01   1.1240475374313376e-01   2.1994440881373814e-01   1.4391780722559064e-01   2.8367437138203305e-02   9.9356093468377704e-02   6.5382753273001470e-02   3.8742254004099537e-02   8.2989354194674536e-01   3.7031653164129097e-01   3.6359171818491409e-01   8.2989354194674536e-01   7.2746881772103492e-02   1.9029304753554024e-01   3.7031653164129097e-01   1.8339470065665209e-01   0.0000000000000000e+00   1.4391780722558831e-01   1.1240475374313370e-01   1.4391780722558831e-01   8.2989354194674581e-01   3.6359171818491359e-01   3.7031653164129180e-01   8.2989354194674581e-01   2.8367437138204114e-02   6.5382753273001692e-02   9.9356093468377510e-02   3.8742254004098732e-02   3.7031653164129180e-01   1.9029304753554047e-01   7.2746881772102256e-02   1.8339470065665092e-01   1.3845318918599658e-01   2.1994440881373695e-01   1.1240475374313454e-01   1.4391780722558903e-01   8.2989354194674692e-01   3.6359171818491309e-01   3.7031653164129102e-01   8.2989354194674692e-01   2.8367437138202979e-02   6.5382753273001623e-02   9.9356093468377857e-02   3.8742254004099697e-02   3.7031653164129102e-01   1.9029304753554024e-01   7.2746881772103658e-02   1.8339470065665106e-01   0.0000000000000000e+00   1.1240475374313344e-01   1.4391780722559039e-01   1.4391780722559039e-01   2.8367437138202979e-02   9.9356093468377857e-02   6.5382753273002137e-02   3.8742254004099697e-02   8.2989354194674614e-01   3.7031653164129119e-01   3.6359171818491409e-01   8.2989354194674614e-01   7.2746881772103131e-02   1.9029304753554024e-01   3.7031653164129119e-01   1.8339470065665184e-01   0.0000000000000000e+00   5.5247331384675434e-02   5.5247331384674817e-02   5.5247331384675434e-02   8.2734105676589093e-02   1.7536263803698132e-01   1.8232385774483328e-02   1.7536263803698132e-01   8.2734105676589093e-02   1.8232385774483328e-02   1.7536263803698204e-01   1.7536263803698204e-01   1.4262967179959857e-01   4.0327691559423479e-03   1.4262967179959918e-01   1.4262967179959918e-01   4.7843797997919890e-01   8.0028655177800434e-01   8.0028655177800434e-01   8.0028655177800434e-01   2.2762262169374112e-01   3.1252384366078328e-01   4.0167597561190233e-01   2.2762262169374112e-01   2.2762262169374003e-01   4.0167597561190443e-01   3.1252384366078328e-01   2.2762262169374003e-01   4.0167597561190233e-01   3.1252384366078328e-01   4.0167597561190443e-01   8.3125772749255103e-02   1.3845318918599658e-01   1.1240475374313538e-01   2.1994440881373695e-01   1.4391780722558903e-01   2.8367437138203954e-02   9.9356093468376927e-02   6.5382753272999791e-02   3.8742254004098725e-02   8.2989354194674236e-01   3.7031653164129230e-01   3.6359171818491315e-01   8.2989354194674236e-01   7.2746881772103589e-02   1.9029304753554238e-01   3.7031653164129230e-01   1.8339470065665200e-01   0.0000000000000000e+00   1.4391780722558883e-01   1.1240475374313222e-01   1.4391780722558883e-01   8.2989354194674259e-01   3.6359171818491287e-01   3.7031653164129269e-01   8.2989354194674259e-01   2.8367437138205408e-02   6.5382753273000929e-02   9.9356093468376747e-02   3.8742254004097261e-02   3.7031653164129269e-01   1.9029304753554260e-01   7.2746881772100813e-02   1.8339470065665142e-01   1.3845318918599714e-01   2.1994440881373839e-01   1.1240475374313344e-01   1.4391780722559039e-01   8.2989354194674614e-01   3.6359171818491470e-01   3.7031653164129119e-01   8.2989354194674614e-01   2.8367437138203451e-02   6.5382753273002137e-02   9.9356093468376858e-02   3.8742254004100703e-02   3.7031653164129119e-01   1.9029304753553955e-01   7.2746881772103131e-02   1.8339470065665184e-01   0.0000000000000000e+00   1.1240475374313344e-01   1.4391780722559039e-01   1.4391780722559039e-01   2.8367437138203451e-02   9.9356093468376858e-02   6.5382753273002137e-02   3.8742254004100703e-02   8.2989354194674614e-01   3.7031653164129119e-01   3.6359171818491470e-01   8.2989354194674614e-01   7.2746881772103131e-02   1.9029304753553955e-01   3.7031653164129119e-01   1.8339470065665184e-01   0.0000000000000000e+00   5.5247331384676801e-02   5.5247331384676801e-02   5.5247331384676801e-02   8.2734105676589592e-02   1.7536263803697827e-01   1.8232385774483120e-02   1.7536263803697827e-01   8.2734105676589592e-02   1.8232385774483120e-02   1.7536263803697827e-01   1.7536263803697827e-01   1.4262967179959407e-01   4.0327691559436298e-03   1.4262967179959407e-01   1.4262967179959407e-01   4.7843797997919985e-01   8.0028655177799679e-01   8.0028655177799679e-01   8.0028655177799679e-01   2.2762262169374067e-01   3.1252384366078251e-01   4.0167597561190715e-01   2.2762262169374067e-01   2.2762262169374067e-01   4.0167597561190715e-01   3.1252384366078251e-01   2.2762262169374067e-01   4.0167597561190715e-01   3.1252384366078251e-01   4.0167597561190715e-01   8.3125772749263582e-02   1.3845318918599858e-01   1.1240475374313307e-01   2.1994440881373989e-01   1.4391780722558883e-01   2.8367437138206365e-02   9.9356093468374804e-02   6.5382753272999569e-02   3.8742254004097788e-02   8.2989354194673759e-01   3.7031653164129413e-01   3.6359171818491359e-01   8.2989354194673759e-01   7.2746881772100744e-02   1.9029304753554419e-01   3.7031653164129413e-01   1.8339470065665234e-01   0.0000000000000000e+00   1.4391780722558883e-01   1.1240475374313137e-01   1.4391780722558883e-01   8.2989354194673759e-01   3.6359171818491359e-01   3.7031653164129413e-01   8.2989354194673759e-01   2.8367437138206365e-02   6.5382753273001304e-02   9.9356093468374804e-02   3.8742254004097788e-02   3.7031653164129413e-01   1.9029304753554419e-01   7.2746881772099023e-02   1.8339470065665234e-01   1.3845318918599858e-01   2.1994440881373989e-01   1.1240475374313307e-01   1.4391780722558883e-01   8.2989354194673759e-01   3.6359171818491359e-01   3.7031653164129413e-01   8.2989354194673759e-01   2.8367437138206365e-02   6.5382753272999569e-02   9.9356093468374804e-02   3.8742254004097788e-02   3.7031653164129413e-01   1.9029304753554419e-01   7.2746881772100744e-02   1.8339470065665234e-01   0.0000000000000000e+00   1.1240475374313307e-01   1.4391780722558883e-01   1.4391780722558883e-01   2.8367437138206365e-02   9.9356093468374804e-02   6.5382753272999569e-02   3.8742254004097788e-02   8.2989354194673759e-01   3.7031653164129413e-01   3.6359171818491359e-01   8.2989354194673759e-01   7.2746881772100744e-02   1.9029304753554419e-01   3.7031653164129413e-01   1.8339470065665234e-01   0.0000000000000000e+00   5.5247331384675434e-02   5.5247331384676801e-02   5.5247331384676801e-02   8.2734105676589592e-02   1.7536263803697827e-01   1.8232385774483120e-02   1.7536263803697827e-01   8.2734105676589093e-02   1.8232385774483328e-02   1.7536263803698249e-01   1.7536263803698249e-01   1.4262967179959699e-01   4.0327691559443558e-03   1.4262967179959563e-01   1.4262967179959699e-01   4.7843797997919557e-01   8.0028655177799912e-01   8.0028655177799912e-01   8.0028655177799912e-01   2.2762262169374212e-01   3.1252384366078029e-01   4.0167597561190416e-01   2.2762262169374212e-01   2.2762262169373973e-01   4.0167597561190532e-01   3.1252384366078206e-01   2.2762262169373973e-01   4.0167597561190416e-01   3.1252384366078206e-01   4.0167597561190532e-01   8.3125772749260446e-02   1.3845318918599858e-01   1.1240475374313222e-01   2.1994440881373989e-01   1.4391780722558883e-01   2.8367437138205560e-02   9.9356093468375747e-02   6.5382753273001235e-02   3.8742254004098600e-02   8.2989354194674259e-01   3.7031653164129269e-01   3.6359171818491337e-01   8.2989354194674259e-01   7.2746881772100813e-02   1.9029304753554199e-01   3.7031653164129269e-01   1.8339470065665142e-01   0.0000000000000000e+00   1.4391780722559039e-01   1.1240475374313257e-01   1.4391780722559039e-01   8.2989354194674136e-01   3.6359171818491481e-01   3.7031653164129258e-01   8.2989354194674136e-01   2.8367437138204422e-02   6.5382753273002026e-02   9.9356093468375942e-02   3.8742254004099731e-02   3.7031653164129258e-01   1.9029304753554185e-01   7.2746881772101341e-02   1.8339470065665278e-01   1.3845318918599714e-01   2.1994440881373839e-01   1.1240475374313412e-01   1.4391780722559039e-01   8.2989354194674136e-01   3.6359171818491481e-01   3.7031653164129258e-01   8.2989354194674136e-01   2.8367437138204422e-02   6.5382753273000485e-02   9.9356093468375942e-02   3.8742254004099731e-02   3.7031653164129258e-01   1.9029304753554185e-01   7.2746881772102895e-02   1.8339470065665278e-01   0.0000000000000000e+00   1.1240475374313222e-01   1.4391780722558883e-01   1.4391780722558883e-01   2.8367437138205560e-02   9.9356093468375747e-02   6.5382753273001235e-02   3.8742254004098600e-02   8.2989354194674259e-01   3.7031653164129269e-01   3.6359171818491337e-01   8.2989354194674259e-01   7.2746881772100813e-02   1.9029304753554199e-01   3.7031653164129269e-01   1.8339470065665142e-01   1.6216571803576224e-01   2.9086937985432937e-01   1.1227830389137687e-01   3.5630673299630494e-01   2.4209725331861773e-01   2.4433301301458960e-01   3.5484982977518126e-01   3.3926261296128118e-01   1.0564526614743117e-01   6.4126267660561787e-02   1.5941355374867192e-01   2.5005719517565178e-01   1.1867508150873117e-01   2.6188447898145201e-01   1.2445001690456159e-01   7.8878413269631423e-02   3.4328381862073504e-01   3.4515229351801735e-01   7.4964328738963706e-02   3.2755217048413926e-01   3.6617923091868426e-01   1.8552711095357907e-01   3.4827063931652674e-01   1.9024935542302043e-02   3.3768343345392865e-01   1.4608313737453060e-01   3.0995283052422024e-01   9.5602889821595274e-02   1.5297625212382537e-01   1.0950377233586085e-01   2.5220549279282037e-02   2.2844142992881758e-01   3.1765521854737877e-01   5.3546942599879107e-03   2.7368541034910487e-01   7.9039136289531051e-03   1.8256989382847411e-01   1.2800154756680091e-01   1.1227830389137794e-01   1.9922724598598707e-01   2.0998145543000005e-01   1.5287427918057886e-01   1.1245797087136682e-01   2.9807802467486899e-01   1.9644793195171800e-01   2.8092962294963664e-01   1.5526803695351794e-02   2.2440466127295350e-01   1.2876062965695007e-01   1.5574432288475393e-01   1.5574432288475029e-01   2.7595253095428655e-02   1.3545332050142142e-01   4.6041551295391260e-02   6.8184449911025222e-02   1.7602765193807843e-01   4.0270924956457688e-01   2.2239256413608516e-01   2.3439711925306475e-01   4.4319551479496128e-01   1.0942824695489285e-01   1.1657165821007166e-01   8.7069751915837115e-02   1.6552827829107730e-01   1.8444997826088552e-01   2.4040808025590663e-01   2.0807838635536371e-01   5.0599757684424307e-01   2.5173447504445934e-01   3.3097258403207797e-01   1.7853641644128121e-01   1.8044588221437935e-01   2.5170915603684191e-01   1.5133112157403880e-01   2.4683670167275043e-01   1.8388365193328210e-01   3.6207333406668590e-01   1.1445769735151512e-01   2.3139784769962865e-01   1.1368552911810847e-01   1.1638077957321195e-01   2.7735865605249288e-01   2.0998145543000005e-01   4.6041551295391260e-02   1.4847825387863459e-01   1.4783184704098098e-01   5.5786141317841549e-02   7.3236879905811875e-02   8.0727998336654103e-02   9.5262203131603121e-02   4.9052182552442362e-02   1.7985056867462146e-01   1.3288337502952180e-01   2.1345299266000170e-01   2.5141198550284233e-01   8.8628298002183609e-02   2.0922009355089288e-01   2.8046711258035384e-01   3.2001523956525468e-01   9.2945943246525248e-02   2.4263633304739729e-01   6.9684345664632052e-02   1.7482149594085347e-01   3.7726168855546721e-01   1.2728615509229288e-01   2.2167333229746219e-01   1.4693300408937016e-01   1.8323242764263406e-01   3.5320411378696914e-01   2.4597566266224311e-01   2.0206338867710255e-01   2.5683112413351183e-01   2.6077522630423983e-01   3.5946979256130190e-01   1.1370424991317013e-01   1.1370424991317013e-01   7.7555490785205641e-02   2.0961406263046553e-01   9.3228897855846884e-02   2.7505641004725367e-01   2.0592362287648991e-01   9.9057741621889767e-02   1.1951735471050029e-01   2.6188447898145201e-01   3.0013526434708493e-01   4.5448349728105203e-01   4.2559570925884721e-02   9.3243026687463339e-03   1.1368552911810847e-01   8.1919392020050039e-02   3.5848719201173010e-02   1.7918916330161985e-01   1.8496943142696767e-01   5.8003428651365048e-02   1.5346296291870101e-01   2.6040035554144236e-01   1.4696403638919853e-01   3.6534476556935541e-01   1.4191777434054384e-01   9.8063230424032047e-02   8.9135179757909008e-02   5.2690787229240879e-02   1.4875561984110616e-01   2.3559766818954994e-01   2.5219857500616544e-01   1.1474165341653779e-01   2.8462058918932193e-01   1.5641303123328090e-01   2.6282861620497372e-01   1.3568402529271439e-03   2.4441894494488245e-01   3.2994666942883832e-01   3.1359204833976773e-01   1.4349538955366198e-01   5.8997277489181037e-02   3.3034797418973555e-02   1.6837542156510418e-01   9.7914556821623880e-02   3.0282973745520753e-01   2.3247941976878858e-01   1.2897117896944932e-01   8.6762201005247758e-02   2.8991942307250063e-01   1.1595848658496252e-01   9.5169089819032701e-02   3.8853555467499268e-01   1.3753592004109905e-01   4.0304125890522008e-01   1.1951735471050103e-01   1.6302349452171216e-01   1.0551976222587436e-02   2.4433301301458940e-01   1.8388365193328210e-01   1.1285635719877626e-01   1.3886620721552959e-01   3.0122763153818860e-01   4.5448349728105203e-01   2.1179983850521300e-01   3.8359439258516731e-01   1.4853516181508056e-01   3.0387365786100612e-01   1.8150326900094951e-01   1.9142301812615375e-01   2.8919129745814837e-01   1.2412068776807625e-01   1.6879323988760525e-01   7.7555490785205475e-02   2.4775978760451367e-01   9.2417255012926913e-02   3.7103014180860788e-02   2.6555430156896165e-01   9.0860189213179246e-02   2.2618176142724020e-01   3.3926261296128118e-01   1.0500423129033702e-01   3.1863626103275222e-01   1.1416883798540858e-01   2.1708535783832478e-01   1.7976788701544072e-01   2.9675487447137394e-01   9.1881065307198861e-02   3.1008155767499462e-01   1.4740201504901018e-01   2.0886940721972086e-01   5.5109701152652023e-03   2.6390678100416071e-01   1.1657165821007096e-01   8.0252217030976583e-02   2.8486344487905274e-01   6.4447552285499990e-02   1.4875561984110669e-01   2.0033655443322662e-01   1.2059492999946072e-02   3.4080354679604230e-01   4.3609872429963940e-02   2.8991942307250063e-01   3.2612369102464081e-02   1.1267935504060093e-01   1.4093882546835987e-01   1.9553188713021313e-01   2.2556201983972318e-01   2.0402216179093502e-01   7.3082676433209995e-02   2.1933360254962156e-01   1.3159098087239346e-01   2.4815723434448844e-01   1.5090674985432831e-01   9.4361487822050200e-02   2.6450184918779790e-01   1.0089662157775195e-01   6.9684345664632052e-02   3.1839522494500516e-01   8.7549773463318201e-02   1.5223505574116347e-01   1.8957067979356618e-01   3.4323653676404153e-01   2.2287468552014630e-01   7.6156045854950075e-02   3.2425488010254372e-01   1.1893904094846382e-01   1.4284578200027453e-01   4.3289023921775666e-01   2.1018648029813786e-01   2.2310441678912044e-01   1.6614124726448332e-01   1.4234113434859427e-01   4.2005059691174317e-02   2.7759491408094888e-01   2.3702334842289360e-01   1.8473143409612064e-01   2.0102873299035617e-01   2.0607087841586802e-01   2.5173447504445934e-01   5.0938448734750799e-02   1.8079694939334473e-01   1.0984443184793150e-01   1.6483929722523913e-01   1.9072316674886514e-01   2.3306466703548206e-01   1.3686007871028924e-01   1.7745972935817331e-01   2.1562955185717905e-01   3.2322498852726150e-01   3.4927216308993109e-01   2.0348555086728223e-01   2.3850858147642254e-01   8.5765459425194188e-02   1.0807680941100345e-01   1.4893816390089559e-01   1.5630539322221870e-01   1.8501147975871088e-01   3.0100551546269205e-01   2.6803147472178396e-01   3.4185437744680969e-02   2.0952925740227057e-02   2.6718277199516677e-01   6.9598794624141397e-02   7.5820273598515661e-02   2.2790111096973673e-01   1.5451176633658359e-01   2.6312070359854622e-02   2.3329193698875333e-01   2.8978609530909094e-01   9.7690525499031927e-02   3.6534476556935541e-01   2.0624014655166056e-01   1.5551568493218465e-01   1.5826691503201049e-01   2.9216983062482194e-01   2.3738194335192123e-01   2.3736875915428671e-01   2.3736875915428671e-01   1.2546486391248504e-01   2.7595253095429036e-02   1.6486385609814247e-01   7.7858044077781727e-02   2.3705660991783156e-01   3.2288181158531282e-01   1.2843408711293477e-01   1.6434588184467272e-01   4.0620193688108991e-01   1.5451176633658417e-01   1.6364390878745949e-01   1.8555233994491122e-01   1.9829079747569914e-01   5.5532592449624281e-02   6.8184449911025222e-02   1.1501417788854222e-01   2.9572320688511200e-01   1.4959414785847702e-01   2.2734525745676812e-01   2.4683670167275043e-01   1.9983533381636043e-01   1.5474902501073518e-01   0.0000000000000000e+00   3.0120191989696998e-01   3.0921269559228909e-01   5.3721922878031667e-02   2.2045404819780129e-01   1.5516545595675624e-01   4.0620193688108858e-01   6.4430382124492480e-02   3.0573923150626270e-01   8.4459841965275756e-02   1.8714922697859834e-01   1.1857159127963558e-01   2.0121139482707820e-01   1.6062211970474782e-01   8.3483171287562399e-02   1.4875561984110669e-01   8.2643182145854324e-02   3.6651186917320944e-01   1.5158392998454137e-01   7.9455697684280749e-02   2.8671205771905713e-03   5.4075295791647490e-16   2.3007884215039576e-01   6.6633515203806254e-02   2.5732586501607269e-01   1.0560434513033032e-01   6.6164092998054508e-02   2.2483446473697602e-01   3.6672794035125472e-01   1.7818456408343145e-01   6.1258311667215841e-02   2.1468543028618092e-01   2.2330033725034235e-01   1.4679516240133092e-01   2.2253100667555042e-01   2.3441598661244831e-01   1.6699704239845412e-01   4.0304125890522008e-01   3.0846081077962789e-01   2.5113234021885728e-01   2.1334212186500459e-01   1.0786683818947898e-01   1.6322473546330266e-01   1.3639680248578956e-01   5.2358191162865560e-02   4.3216867210469758e-16   3.3036781860924186e-01   9.6272847278754736e-02   6.3759026448344819e-03   4.5220639508030687e-02   1.7482039627632862e-01   2.3702334842289360e-01   3.4152874237514570e-02   4.0422628912143582e-01   3.1238697522334274e-01   2.6517630901086364e-01   3.0013526434708493e-01   3.0013526434708454e-01   1.3803477214030704e-02   8.3585923631189746e-02   1.8552711095357907e-01   3.4835023783489988e-01   1.7313435000898392e-01   1.1902434824847413e-01   2.1040207732605035e-01   3.0859229535543452e-02   2.4983679261740896e-01   8.2643182145854324e-02   1.9930700492209305e-01   1.1657165821007166e-01   8.1919392020050691e-02   2.6849621081746922e-01   1.4908922297554386e-01   2.4518829616625404e-01   3.7631302352404683e-01   3.3165656704831642e-01   3.0128567247729593e-01   4.3219594144893209e-01   1.6803565440261495e-01   1.6803565440261495e-01   3.0128567247729593e-01   3.1008155767499462e-01   1.0603616842330794e-01   5.3957721009146531e-02   2.7469839492445491e-01   1.0420451979023085e-01   1.1831795859204022e-01   8.4547865239066489e-02   3.1744084476231677e-01   1.6182931179117618e-01   1.3526900598826960e-01   1.2487411521032099e-01   2.2878499863316876e-02   8.8709649331016077e-02   1.1962357988786598e-02   1.1831795859204138e-01   1.7667503403150558e-01   1.2902109623562074e-02   2.1393128335