<?xml version="1.0"?>
<VTKFile type="UnstructuredGrid"  version="0.1"  >
<UnstructuredGrid>
<Piece  NumberOfPoints="2006" NumberOfCells="3618">
<Points>
<DataArray  type="Float64"  NumberOfComponents="3"  format="ascii">3 0.3378215821452335 0  2.833441594912761 0.3337663796510457 0  3 0.5329865384474093 0  2.661503918807094 0.3230078376141886 0  2.842489777594233 0.5274693327827005 0  3 0.7176341807104085 0  2.481388254524131 0.3085176726988411 0  2.675936639001904 0.5139049585028559 0  2.854783967522197 0.709567935044394 0  3 0.8839527516772595 0  2.292893218813257 0.2928932188132569 0  2.497472710738964 0.4974727107389642 0  2.692797973444407 0.6927979734444063 0  2.871431999438945 0.8714319994389447 0  3 1 0  2.308517672698841 0.4813882545241308 0  2.513904958502856 0.6759366390019039 0  2.709567935044394 0.854783967522197 0  2.883952751677259 1 0  3 1.116047248322741 0  3.128568000561055 1.128568000561055 0  3.116047248322741 1 0  2.323007837614188 0.6615039188070941 0  2.5274693327827 0.8424897775942335 0  2.717634180710409 1 0  2.871431999438945 1.128568000561055 0  3 1.282365819289591 0  3.145216032477803 1.290432064955606 0  3.307202026555593 1.307202026555594 0  3.290432064955606 1.145216032477803 0  3.282365819289591 1 0  2.333766379651045 0.8334415949127614 0  2.53298653844741 1 0  2.709567935044394 1.145216032477803 0  2.854783967522197 1.290432064955606 0  3 1.467013461552591 0  3.157510222405767 1.4725306672173 0  3.324063360998096 1.486095041497144 0  3.502527289261036 1.502527289261036 0  3.486095041497144 1.324063360998096 0  3.4725306672173 1.157510222405767 0  3.46701346155259 1 0  2.337821582145233 1 0  2.5274693327827 1.157510222405767 0  2.692797973444407 1.307202026555594 0  2.842489777594233 1.4725306672173 0  3 1.662178417854766 0  3.166558405087239 1.666233620348955 0  3.338496081192906 1.676992162385812 0  3.518611745475869 1.691482327301159 0  3.707106781186743 1.707106781186743 0  3.691482327301159 1.518611745475869 0  3.676992162385812 1.338496081192906 0  3.666233620348955 1.166558405087239 0  3.662178417854767 1 0  2.333766379651045 1.166558405087239 0  2.513904958502856 1.324063360998096 0  2.675936639001904 1.486095041497144 0  2.833441594912761 1.666233620348955 0  2.323007837614188 1.338496081192906 0  2.497472710738964 1.502527289261036 0  2.661503918807094 1.676992162385812 0  2.308517672698841 1.518611745475869 0  2.481388254524131 1.691482327301159 0  2.292893218813257 1.707106781186743 0  2 4.662178417854767 0  1.833441594912761 4.666233620348955 0  2 4.46701346155259 0  1.661503918807094 4.676992162385812 0  1.842489777594233 4.472530667217299 0  2 4.282365819289591 0  1.481388254524131 4.691482327301159 0  1.675936639001904 4.486095041497144 0  1.854783967522197 4.290432064955606 0  2 4.11604724832274 0  1.292893218813257 4.707106781186743 0  1.497472710738964 4.502527289261036 0  1.692797973444406 4.307202026555593 0  1.871431999438945 4.128568000561056 0  2 4 0  1.308517672698841 4.518611745475869 0  1.513904958502856 4.324063360998096 0  1.709567935044394 4.145216032477803 0  1.883952751677259 4 0  2 3.883952751677259 0  2.128568000561055 3.871431999438945 0  2.116047248322741 4 0  1.323007837614188 4.338496081192906 0  1.5274693327827 4.157510222405767 0  1.717634180710409 4 0  1.871431999438945 3.871431999438945 0  2 3.717634180710409 0  2.145216032477803 3.709567935044394 0  2.307202026555593 3.692797973444407 0  2.290432064955606 3.854783967522197 0  2.282365819289591 4 0  1.333766379651045 4.166558405087239 0  1.532986538447409 4 0  1.709567935044394 3.854783967522197 0  1.854783967522197 3.709567935044394 0  2 3.53298653844741 0  2.157510222405767 3.5274693327827 0  2.324063360998096 3.513904958502856 0  2.502527289261036 3.497472710738964 0  2.486095041497144 3.675936639001904 0  2.4725306672173 3.842489777594233 0  2.46701346155259 4 0  1.337821582145234 4 0  1.5274693327827 3.842489777594233 0  1.692797973444406 3.692797973444407 0  1.842489777594233 3.5274693327827 0  2 3.337821582145233 0  2.166558405087239 3.333766379651045 0  2.338496081192906 3.323007837614188 0  2.518611745475869 3.308517672698841 0  2.707106781186743 3.292893218813257 0  2.691482327301159 3.481388254524131 0  2.676992162385812 3.661503918807094 0  2.666233620348955 3.833441594912761 0  2.662178417854767 4 0  1.333766379651045 3.833441594912761 0  1.513904958502856 3.675936639001904 0  1.675936639001904 3.513904958502856 0  1.833441594912761 3.333766379651045 0  1.323007837614188 3.661503918807094 0  1.497472710738964 3.497472710738964 0  1.661503918807094 3.323007837614188 0  1.308517672698841 3.481388254524131 0  1.481388254524131 3.308517672698841 0  1.292893218813257 3.292893218813257 0  -6 5.662178417854767 0  -5.833441594912761 5.666233620348955 0  -6 5.46701346155259 0  -5.661503918807094 5.676992162385812 0  -5.842489777594234 5.472530667217299 0  -6 5.282365819289591 0  -5.481388254524131 5.691482327301159 0  -5.675936639001904 5.486095041497144 0  -5.854783967522197 5.290432064955606 0  -6 5.11604724832274 0  -5.292893218813257 5.707106781186743 0  -5.497472710738964 5.502527289261036 0  -5.692797973444407 5.307202026555593 0  -5.871431999438944 5.128568000561056 0  -6 5 0  -5.308517672698841 5.518611745475869 0  -5.513904958502856 5.324063360998096 0  -5.709567935044394 5.145216032477803 0  -5.88395275167726 5 0  -6 4.88395275167726 0  -6.128568000561056 4.871431999438944 0  -6.11604724832274 5 0  -5.323007837614188 5.338496081192906 0  -5.527469332782701 5.157510222405767 0  -5.717634180710409 5 0  -5.871431999438944 4.871431999438944 0  -6 4.717634180710409 0  -6.145216032477803 4.709567935044394 0  -6.307202026555593 4.692797973444407 0  -6.290432064955606 4.854783967522197 0  -6.282365819289591 5 0  -5.333766379651045 5.166558405087239 0  -5.53298653844741 5 0  -5.709567935044394 4.854783967522197 0  -5.854783967522197 4.709567935044394 0  -6 4.53298653844741 0  -6.157510222405766 4.527469332782701 0  -6.324063360998096 4.513904958502856 0  -6.502527289261036 4.497472710738964 0  -6.486095041497144 4.675936639001904 0  -6.472530667217299 4.842489777594234 0  -6.46701346155259 5 0  -5.337821582145233 5 0  -5.527469332782701 4.842489777594234 0  -5.692797973444407 4.692797973444407 0  -5.842489777594234 4.527469332782701 0  -6 4.337821582145233 0  -6.166558405087239 4.333766379651045 0  -6.338496081192906 4.323007837614188 0  -6.518611745475869 4.308517672698841 0  -6.707106781186743 4.292893218813257 0  -6.691482327301159 4.481388254524131 0  -6.676992162385812 4.661503918807094 0  -6.666233620348955 4.833441594912761 0  -6.662178417854767 5 0  -5.333766379651045 4.833441594912761 0  -5.513904958502856 4.675936639001904 0  -5.675936639001904 4.513904958502856 0  -5.833441594912761 4.333766379651045 0  -5.323007837614188 4.661503918807094 0  -5.497472710738964 4.497472710738964 0  -5.661503918807094 4.323007837614188 0  -5.308517672698841 4.481388254524131 0  -5.481388254524131 4.308517672698841 0  -5.292893218813257 4.292893218813257 0  -5 2.337821582145233 0  -4.833441594912761 2.333766379651045 0  -5 2.53298653844741 0  -4.661503918807094 2.323007837614189 0  -4.842489777594234 2.5274693327827 0  -5 2.717634180710409 0  -4.481388254524131 2.308517672698841 0  -4.675936639001904 2.513904958502856 0  -4.854783967522197 2.709567935044394 0  -5 2.883952751677259 0  -4.292893218813257 2.292893218813257 0  -4.497472710738964 2.497472710738964 0  -4.692797973444407 2.692797973444407 0  -4.871431999438944 2.871431999438945 0  -5 3 0  -4.308517672698841 2.481388254524131 0  -4.513904958502856 2.675936639001904 0  -4.709567935044394 2.854783967522197 0  -4.88395275167726 3 0  -5 3.116047248322741 0  -5.128568000561056 3.128568000561055 0  -5.11604724832274 3 0  -4.323007837614188 2.661503918807094 0  -4.527469332782701 2.842489777594233 0  -4.717634180710409 3 0  -4.871431999438944 3.128568000561055 0  -5 3.282365819289591 0  -5.145216032477803 3.290432064955606 0  -5.307202026555593 3.307202026555593 0  -5.290432064955606 3.145216032477803 0  -5.282365819289591 3 0  -4.333766379651045 2.833441594912761 0  -4.53298653844741 3 0  -4.709567935044394 3.145216032477803 0  -4.854783967522197 3.290432064955606 0  -5 3.46701346155259 0  -5.157510222405766 3.4725306672173 0  -5.324063360998096 3.486095041497144 0  -5.502527289261036 3.502527289261036 0  -5.486095041497144 3.324063360998096 0  -5.472530667217299 3.157510222405767 0  -5.46701346155259 3 0  -4.337821582145233 3 0  -4.527469332782701 3.157510222405767 0  -4.692797973444407 3.307202026555593 0  -4.842489777594234 3.4725306672173 0  -5 3.662178417854767 0  -5.166558405087239 3.666233620348955 0  -5.338496081192906 3.676992162385812 0  -5.518611745475869 3.691482327301159 0  -5.707106781186743 3.707106781186743 0  -5.691482327301159 3.518611745475869 0  -5.676992162385812 3.338496081192906 0  -5.666233620348955 3.166558405087239 0  -5.662178417854767 3 0  -4.333766379651045 3.166558405087239 0  -4.513904958502856 3.324063360998096 0  -4.675936639001904 3.486095041497144 0  -4.833441594912761 3.666233620348955 0  -4.323007837614188 3.338496081192906 0  -4.497472710738964 3.502527289261036 0  -4.661503918807094 3.676992162385812 0  -4.308517672698841 3.518611745475869 0  -4.481388254524131 3.691482327301159 0  -4.292893218813257 3.707106781186743 0  5 4 0  5 3.8125 0  4.853886151115923 4 0  5 3.625 0  4.80632430795117 3.775436298854279 0  4.707772302231846 4 0  4.79366141355045 3.578587735402333 0  4.673383251713283 3.680732660129706 0  4.561658453347769 3.792168701394072 0  4.56165845334777 4 0  5 3.4375 0  4.600014989010139 3.541027542505437 0  4.789717798409911 3.381371727615638 0  5 3.25 0  4.458472067662114 3.674611746363634 0  4.342487680021653 3.850039194045292 0  4.415544604463692 4 0  4.407847296295088 3.526611069368785 0  4.609194292726674 3.359404168011995 0  4.643840673849824 3.180879833384543 0  4.832283973092349 3.162038632311764 0  5 3.0625 0  4.302631777076505 3.688060601225307 0  4.165321303746107 3.8166374852
[...]
<CellData  Scalars="f_6711"> 
<DataArray  type="Float64"  Name="f_6711"  format="ascii">0.0000000000000000e+00   2.0702337038514831e-02   2.0702337038514831e-02   2.0702337038514831e-02   2.9811906473707794e-02   7.0335473272383334e-02   7.5487774345267089e-04   7.0335473272383334e-02   2.9811906473707118e-02   7.5487774345267089e-04   7.0335473272384832e-02   7.0335473272384832e-02   4.4041160700134037e-02   2.7069434350721098e-02   4.4041160700134037e-02   4.4041160700134037e-02   1.0237098705373547e-01   1.9937050032204637e-01   1.9937050032204556e-01   1.9937050032204637e-01   7.5360923085803611e-02   8.2451516261445562e-02   1.3128145464150789e-01   7.5360923085803611e-02   7.5360923085805734e-02   1.3128145464150728e-01   8.2451516261447047e-02   7.5360923085805734e-02   1.3128145464150789e-01   8.2451516261447047e-02   1.3128145464150728e-01   2.4189054567361468e-02   5.1940758524906566e-02   5.0246301071928880e-02   7.6971755094034700e-02   5.0328641401969541e-02   2.2432029615782900e-02   4.1181216103281348e-02   3.5411232072326354e-02   2.3856328818210287e-02   2.2071266775645468e-01   1.2388213140842368e-01   1.0716322503778593e-01   2.2071266775645468e-01   3.5411232072326354e-02   4.8130685260111133e-02   8.4389220943699425e-02   7.0936811741511840e-02   0.0000000000000000e+00   5.0328641401968931e-02   5.0246301071929358e-02   5.0328641401968931e-02   2.2071266775645468e-01   1.0716322503778593e-01   8.4389220943698759e-02   2.2071266775645468e-01   2.2432029615783292e-02   3.5411232072326763e-02   4.1181216103280939e-02   2.3856328818209895e-02   8.4389220943698759e-02   4.8130685260111564e-02   3.5411232072326763e-02   7.0936811741512937e-02   5.1940758524906608e-02   7.6971755094032576e-02   5.0246301071929525e-02   5.0328641401969576e-02   2.2071266775645462e-01   1.0716322503778686e-01   1.2388213140842236e-01   2.2071266775645462e-01   2.2432029615784426e-02   3.5411232072326736e-02   4.1181216103280731e-02   2.3856328818210884e-02   8.4389220943699259e-02   4.8130685260111113e-02   3.5411232072326736e-02   7.0936811741512937e-02   0.0000000000000000e+00   5.0246301071928880e-02   5.0328641401969541e-02   5.0328641401969541e-02   2.2432029615784818e-02   4.1181216103281362e-02   3.5411232072326354e-02   2.3856328818210485e-02   2.2071266775645548e-01   8.4389220943699064e-02   1.0716322503778601e-01   2.2071266775645548e-01   3.5411232072326354e-02   4.8130685260110488e-02   8.4389220943699064e-02   7.0936811741511632e-02   0.0000000000000000e+00   2.0702337038514831e-02   2.0702337038514831e-02   2.0702337038514831e-02   2.9811906473707118e-02   7.0335473272384832e-02   7.5487774345267089e-04   7.0335473272384832e-02   2.9811906473707794e-02   7.5487774345267089e-04   7.0335473272383334e-02   7.0335473272383334e-02   4.4041160700134037e-02   2.7069434350721098e-02   4.4041160700134037e-02   4.4041160700134037e-02   1.0237098705373683e-01   1.9937050032204556e-01   1.9937050032204637e-01   1.9937050032204637e-01   7.5360923085805734e-02   8.2451516261447047e-02   1.3128145464150728e-01   7.5360923085805734e-02   7.5360923085803611e-02   1.3128145464150789e-01   8.2451516261445562e-02   7.5360923085803611e-02   1.3128145464150728e-01   8.2451516261447047e-02   1.3128145464150789e-01   2.4189054567361468e-02   5.1940758524906608e-02   5.0246301071928505e-02   7.6971755094033700e-02   5.0328641401968445e-02   2.2432029615782313e-02   4.1181216103281938e-02   3.5411232072327756e-02   2.3856328818209673e-02   2.2071266775645282e-01   1.2388213140842236e-01   1.0716322503778554e-01   2.2071266775645282e-01   3.5411232072327756e-02   4.8130685260112438e-02   8.4389220943700369e-02   7.0936811741511813e-02   0.0000000000000000e+00   5.0328641401970887e-02   5.0246301071929692e-02   5.0328641401970887e-02   2.2071266775645512e-01   1.0716322503778324e-01   8.4389220943696261e-02   2.2071266775645512e-01   2.2432029615782119e-02   3.5411232072326125e-02   4.1181216103282563e-02   2.3856328818209871e-02   8.4389220943696261e-02   4.8130685260111807e-02   3.5411232072326125e-02   7.0936811741512978e-02   5.1940758524906566e-02   7.6971755094034700e-02   5.0246301071928880e-02   5.0328641401969541e-02   2.2071266775645548e-01   1.0716322503778535e-01   1.2388213140842405e-01   2.2071266775645548e-01   2.2432029615784426e-02   3.5411232072326736e-02   4.1181216103281959e-02   2.3856328818210277e-02   8.4389220943699064e-02   4.8130685260111154e-02   3.5411232072326736e-02   7.0936811741511632e-02   0.0000000000000000e+00   5.0246301071928880e-02   5.0328641401969541e-02   5.0328641401969541e-02   2.2432029615784426e-02   4.1181216103281959e-02   3.5411232072326736e-02   2.3856328818210277e-02   2.2071266775645548e-01   8.4389220943699064e-02   1.0716322503778535e-01   2.2071266775645548e-01   3.5411232072326736e-02   4.8130685260111154e-02   8.4389220943699064e-02   7.0936811741511632e-02   0.0000000000000000e+00   2.0702337038516875e-02   2.0702337038516875e-02   2.0702337038516875e-02   2.9811906473708131e-02   7.0335473272384208e-02   7.5487774345267089e-04   7.0335473272384208e-02   2.9811906473708131e-02   7.5487774345267089e-04   7.0335473272384208e-02   7.0335473272384208e-02   4.4041160700134037e-02   2.7069434350720473e-02   4.4041160700134037e-02   4.4041160700134037e-02   1.0237098705374222e-01   1.9937050032204909e-01   1.9937050032204909e-01   1.9937050032204909e-01   7.5360923085806081e-02   8.2451516261445520e-02   1.3128145464150742e-01   7.5360923085806081e-02   7.5360923085806081e-02   1.3128145464150742e-01   8.2451516261445520e-02   7.5360923085806081e-02   1.3128145464150742e-01   8.2451516261445520e-02   1.3128145464150742e-01   2.4189054567362280e-02   5.1940758524906240e-02   5.0246301071929088e-02   7.6971755094034477e-02   5.0328641401969763e-02   2.2432029615780943e-02   4.1181216103284166e-02   3.5411232072327908e-02   2.3856328818209441e-02   2.2071266775645348e-01   1.2388213140842565e-01   1.0716322503778149e-01   2.2071266775645348e-01   3.5411232072327908e-02   4.8130685260113562e-02   8.4389220943697385e-02   7.0936811741511854e-02   0.0000000000000000e+00   5.0328641401972005e-02   5.0246301071931315e-02   5.0328641401972005e-02   2.2071266775645348e-01   1.0716322503778149e-01   8.4389220943695137e-02   2.2071266775645348e-01   2.2432029615780943e-02   3.5411232072325674e-02   4.1181216103284166e-02   2.3856328818209441e-02   8.4389220943695137e-02   4.8130685260113562e-02   3.5411232072325674e-02   7.0936811741514103e-02   5.1940758524906240e-02   7.6971755094032229e-02   5.0246301071931315e-02   5.0328641401972005e-02   2.2071266775645348e-01   1.0716322503778149e-01   1.2388213140842565e-01   2.2071266775645348e-01   2.2432029615780943e-02   3.5411232072325674e-02   4.1181216103284166e-02   2.3856328818209441e-02   8.4389220943695137e-02   4.8130685260113562e-02   3.5411232072325674e-02   7.0936811741514103e-02   0.0000000000000000e+00   5.0246301071931315e-02   5.0328641401972005e-02   5.0328641401972005e-02   2.2432029615780943e-02   4.1181216103284166e-02   3.5411232072325674e-02   2.3856328818209441e-02   2.2071266775645348e-01   8.4389220943695137e-02   1.0716322503778149e-01   2.2071266775645348e-01   3.5411232072325674e-02   4.8130685260113562e-02   8.4389220943695137e-02   7.0936811741514103e-02   0.0000000000000000e+00   2.0702337038516788e-02   2.0702337038514124e-02   2.0702337038516788e-02   2.9811906473709258e-02   7.0335473272385568e-02   7.5487774345139598e-04   7.0335473272385568e-02   2.9811906473706667e-02   7.5487774345406170e-04   7.0335473272382723e-02   7.0335473272382723e-02   4.4041160700132760e-02   2.7069434350721840e-02   4.4041160700135425e-02   4.4041160700135425e-02   1.0237098705373869e-01   1.9937050032204892e-01   1.9937050032204576e-01   1.9937050032204892e-01   7.5360923085804624e-02   8.2451516261447005e-02   1.3128145464150576e-01   7.5360923085804624e-02   7.5360923085807205e-02   1.3128145464150895e-01   8.2451516261444147e-02   7.5360923085807205e-02   1.3128145464150576e-01   8.2451516261447005e-02   1.3128145464150895e-01   2.4189054567363803e-02   5.1940758524905109e-02   5.0246301071930302e-02   7.6971755094033353e-02   5.0328641401970887e-02   2.2432029615781900e-02   4.1181216103283166e-02   3.5411232072326694e-02   2.3856328818210447e-02   2.2071266775645512e-01   1.2388213140842716e-01   1.0716322503778257e-01   2.2071266775645512e-01   3.5411232072326694e-02   4.8130685260112459e-02   8.4389220943696261e-02   7.0936811741512978e-02   0.0000000000000000e+00   5.0328641401970658e-02   5.0246301071928880e-02   5.0328641401970658e-02   2.2071266775645368e-01   1.0716322503778403e-01   8.4389220943697940e-02   2.2071266775645368e-01   2.2432029615783274e-02   3.5411232072326736e-02   4.1181216103283166e-02   2.3856328818209073e-02   8.4389220943697940e-02   4.8130685260112459e-02   3.5411232072326736e-02   7.0936811741512756e-02   5.1940758524907697e-02   7.6971755094033575e-02   5.0246301071930108e-02   5.0328641401970658e-02   2.2071266775645368e-01   1.0716322503778403e-01   1.2388213140842252e-01   2.2071266775645368e-01   2.2432029615783274e-02   3.5411232072325521e-02   4.1181216103283166e-02   2.3856328818209073e-02   8.4389220943697940e-02   4.8130685260112459e-02   3.5411232072325521e-02   7.0936811741512756e-02   0.0000000000000000e+00   5.0246301071930302e-02   5.0328641401970887e-02   5.0328641401970887e-02   2.2432029615781900e-02   4.1181216103283166e-02   3.5411232072326694e-02   2.3856328818210447e-02   2.2071266775645512e-01   8.4389220943696261e-02   1.0716322503778257e-01   2.2071266775645512e-01   3.5411232072326694e-02   4.8130685260112459e-02   8.4389220943696261e-02   7.0936811741512978e-02   1.8148622907759052e-01   1.5316907318274142e-01   1.9807691387899781e-02   2.8506637610837893e-01   1.1762837065177775e-01   2.8366590193046531e-01   1.2280809597890661e-01   7.6111945025493552e-02   3.1731654859772651e-01   2.0361995128756324e-01   1.3410859694055152e-01   1.5755937622069049e-01   2.2207841353217847e-01   1.2761379316213686e-01   1.1376744872244383e-01   9.2602550735594785e-02   1.9668444444005853e-01   1.6386085843980178e-01   1.7012669796296473e-01   0.0000000000000000e+00   5.2438876380495221e-04   1.3594154667629646e-01   3.3732591037471733e-02   2.1786226570037021e-01   4.2485461420977713e-02   9.5215383924179600e-16   9.6717445935950538e-02   3.4301146063647647e-01   6.8242892668275421e-02   8.0507271753468557e-02   1.1951406057433486e-01   4.5573267244965208e-02   2.1810430612369397e-01   2.1410655924407324e-01   3.3046313472797711e-02   1.3797757216674958e-01   8.1824019568542572e-02   1.2140128380752273e-01   1.5983933269232170e-01   3.2354785777620887e-01   5.2631186370433333e-02   2.8293900971416885e-02   1.9025118129137952e-01   5.6841779907684714e-02   3.2869000852099606e-01   2.0828085077453071e-01   6.2190144893308784e-02   1.3768091461390961e-01   2.5440701074325567e-01   1.8856238997976385e-01   1.2213810533542332e-02   2.5471137086700502e-01   1.6997506729203407e-01   2.0955999942346107e-01   4.1636412579073290e-01   2.2846615403530404e-01   9.7493554174502547e-02   3.2289490608501642e-01   0.0000000000000000e+00   1.7288327100048495e-01   3.1871766869645057e-01   3.1544590295291962e-02   1.1899168039168580e-01   2.5662236008489658e-01   1.3424687458987541e-01   1.8376784116134021e-01   2.1566786446481559e-01   3.1554319068743530e-01   2.1566786446481559e-01   1.5306824415605452e-01   4.7390968177049908e-01   3.0297062023419818e-01   7.5629942881538806e-02   1.8148622907759052e-01   3.4063930114756391e-01   1.8148622907759052e-01   7.8048279473457285e-02   8.2785245149490511e-02   2.6102002069830399e-01   1.0538381864675656e-01   1.8641988493791095e-01   2.3784310825396554e-01   2.1810430612369397e-01   1.0868040052784900e-02   3.8571961144731833e-02   2.6709962034692708e-01   3.5796973920890773e-01   1.8789569143292378e-01   7.9681964640374400e-02   1.2353906126175290e-01   1.4926194250536695e-01   4.1727267766485127e-01   2.5101131053489478e-01   4.8271311620661789e-01   1.7068623277069989e-01   2.1568144309176604e-01   2.2028019930406154e-01   1.2457348178035843e-02   4.4689746095007771e-01   3.3862504050700298e-01   2.0780803536178907e-01   2.3336654313285882e-01   2.3110972677446212e-01   1.2332128467090749e-01   2.0162014462099900e-01   1.6290653086838067e-01   1.8392132190432070e-01   1.8490525591090576e-01   7.7270298494928016e-02   2.4800650281034770e-01   2.5752370181618645e-01   2.2654307968360668e-01   9.3222779561187269e-02   2.1465354303355391e-01   1.9877283987449376e-16   5.5696741917026817e-02   2.1018633793353900e-01   2.7523099341108431e-01   3.2621935857048973e-01   9.3084794245707689e-02   1.3234338929736916e-01   3.6412718299430386e-01   2.5259155839687869e-01   3.1618921803123162e-01   4.4559734015312318e-02   1.1627571325374152e-01   2.3345768638894976e-01   1.0882533652602620e-01   0.0000000000000000e+00   2.2355775128070091e-01   4.0491845924854906e-02   9.1524035846973370e-02   4.0139472022915995e-01   6.4270771341685656e-02   6.8762990054812678e-02   8.5616547327667353e-02   1.8672473607053439e-01   2.2207841353218080e-01   1.8280485639346611e-01   1.0380326090588525e-01   2.0528350422102093e-01   3.9169590013417060e-01   9.9594247422257670e-02   1.2722370455299831e-01   7.8111583623869801e-02   2.3137733107193004e-01   9.9358335330069117e-02   1.5339885291384603e-01   2.1010377302307393e-01   3.5084769038045882e-01   2.5980991940332915e-01   2.7652285077169114e-01   1.8996882630091080e-01   1.8580133122687065e-01   2.1970669048532603e-02   7.3124796712778746e-03   2.7295244373580024e-01   2.7653942977980939e-01   1.3653097277535131e-01   2.3306064925931105e-01   1.1310092584928738e-01   1.7647458761379436e-01   1.5700610983326895e-04   2.0165389419064719e-02   3.5407351641993917e-01   9.0648189838112445e-02   3.5197554897987621e-02   2.4728686420134194e-01   2.6564426121131224e-01   1.6954468361021940e-01   3.5460314113741748e-01   2.2913871989148479e-01   1.3736415376563130e-01   2.0848484570781706e-01   7.4652552317536328e-02   1.7951696260892552e-01   2.2654307968360657e-01   8.6147912106666502e-02   2.8686492540118153e-02   1.0556897409098270e-01   5.0588451175676549e-02   1.1820321180692028e-01   2.9519357158553700e-01   1.5621715637367400e-01   2.5921220725559652e-01   1.5449399855715720e-01   1.4457087417248890e-02   2.9406066048812568e-01   2.6688456532914590e-01   2.1071251886703921e-01   9.8368493666415674e-02   1.1577970176208099e-01   1.4557253355157887e-01   8.2371751240942828e-02   2.9649717560928823e-01   2.9649717560928823e-01   1.6844959599409881e-01   1.9319688192793483e-01   1.4932416752032102e-01   3.6672942276284276e-01   1.0225438760383776e-01   1.1982738372504707e-01   6.8977887782270653e-02   1.2011602918565664e-01   6.1899335085310550e-02   3.7386335742050997e-02   2.9086814412868517e-01   6.6933097235549799e-02   1.0845819848940710e-01   1.9764598216593010e-01   1.2436701571277363e-01   6.1000845041229330e-02   1.6218651091881392e-01   1.7693538437442913e-01   2.5457195637370578e-01   1.5916365446821376e-01   6.7262335461852743e-02   2.6768806737869744e-01   1.6904625371209908e-01   2.6551042201118324e-01   2.3905944988008176e-01   1.2920988881422560e-01   1.4034910077137955e-01   2.1848050395411467e-01   2.0717592091207498e-01   2.8495809117891197e-01   2.1068197868955651e-01   2.3391735213011222e-01   7.0880486358433359e-02   2.3511436568208646e-01   1.9555558678786694e-01   2.2316272334485082e-01   5.4145334068431847e-02   3.4592994300581681e-01   3.4969577685833264e-01   1.5404857058988744e-01   1.7337075810801986e-01   2.3638110301592793e-01   3.2173212778479582e-01   1.3785632216904017e-01   2.3762317847526995e-01   7.2579807428971715e-02   7.5084668648159797e-02   1.1486133493386136e-01   2.5185688950694085e-01   1.9999529879847405e-01   2.3250806242908262e-01   2.5948711924695333e-01   7.2669387726278442e-02   1.6667944817106262e-01   2.3604376128765597e-01   1.6912176912462790e-01   1.9995951965724790e-01   5.2508486919287577e-02   1.5440095878543619e-01   2.5719047137428702e-01   2.3269117468319871e-02   2.3022729791028670e-01   7.1770455245178125e-02   7.3470007476606078e-02   2.3905944988008215e-01   5.7518893747891271e-02   1.7902748740723767e-01   1.8882664508008865e-01   6.7622698998068331e-02   5.3266555129457285e-02   8.4103642694092595e-02   2.7206068750593831e-01   1.1820321180692060e-01   1.0356898063744650e-01   1.7233152582282238e-01   3.1258523304674296e-01   3.3122155762728631e-02   1.8358619516017702e-01   2.6552974090826814e-01   1.6707112336974336e-01   1.4410069322126076e-01   1.2068801895438982e-03   2.4994272452500502e-01   2.1688042507516336e-01   4.9702610793112306e-02   3.2445264273609925e-01   1.1911071326111307e-01   2.6937288205471349e-01   1.5030013349376153e-01   2.4131245138059734e-01   2.4646768048465900e-01   2.0430119413238018e-01   1.0193304612986423e-01   1.7083302399874178e-01   2.5787874177921283e-01   8.0351685955384736e-02   1.1556107344159452e-02   7.2787801941474495e-02   3.7131105067232578e-02   1.2470125990372277e-01   3.7757220366762745e-01   8.2785245149490233e-02   4.3877662703258058e-01   1.3653097277535131e-01   6.6484085172092741e-02   6.6933097235549799e-02   1.4467638382011122e-01   8.4653112820982368e-02   3.9446896204264126e-01   1.2736001415280424e-01   3.1258523304674296e-01   8.3252756024825653e-02   4.2112388426463154e-01   4.4888041645305965e-01   2.4295699212556834e-02   6.4945879565992834e-02   6.6026745005630175e-02   2.7967215251643895e-01   2.1626125721965550e-01   1.5216419656822763e-01   1.7079390553275270e-01   1.6367321549303335e-01   1.2631653934623410e-01   1.2631653934623371e-01   7.2001838925644684e-02   1.6741409656214898e-01   7.8256479547390498e-02   1.3767570266183407e-01   1.5476975458617853e-01   2.7652285077169114e-01   1.8996882630091080e-01   2.1491281510500726e-01   2.2728551826625181e-02   3.9620775144947107e-01   1.5434930730603971e-01   1.5700610983649719e-04   2.3411184362946397e-01   1.8383295239830427e-01   8.9233216361251519e-02   1.0523096547335262e-01   1.4428688561967898e-01   2.4632490828692483e-01   7.2579807428971715e-02   1.5200316093187646e-01   3.8545605717931079e-02   2.4888111065574903e-01   3.4141656108497770e-01   1.2963446109958480e-02   2.0604740265139909e-01   3.0864481726324244e-01   3.5581369897317383e-01   1.7502694830528626e-01   2.0475855627147344e-01   2.3498060032144164e-01   2.9102389889353448e-02   1.8707884337067018e-01   2.5662236008489658e-01   2.6850049409683652e-01   1.2104459479605643e-01   3.5423659142607927e-01   1.0330331638572371e-01   2.4102178308839839e-01   2.4366292017419370e-03   1.9194071831895029e-01   1.4068171729347181e-01   1.8480451748299012e-01   1.8229071706753844e-01   3.4907943431805977e-01   1.9979246251314328e-01   9.2602550735594785e-02   2.3223465173830041e-01   1.9279181550600483e-01   2.3427387461504623e-01   1.3173392278225099e-01   1.5789568961004491e-01   1.2612404645181804e-01   5.4888171657800591e-02   1.3767570266183549e-01   2.2749016653340545e-01   1.3277994012378672e-01   4.4458490745734776e-02   1.7960058928110656e-01   1.4897125744558598e-02   1.8173635867845794e-01   2.3868922417100527e-01   1.4285009900687207e-01   2.4595407888539042e-01   2.3882129040259290e-01   8.0820091245372760e-02   2.8366590193046531e-01   1.3723782848494218e-01   5.6055080592554117e-02   3.5122770580854762e-01   9.8830673889345397e-02   5.5011161275458964e-02   1.0604114397970468e-01   1.9900771192148706e-01   1.6009357966609600e-01   2.1626125721965658e-01   1.7288327100048495e-01   2.5700923969481076e-01   1.3942184863092952e-01   1.3942184863092952e-01   1.9173636780792147e-01   2.0512378268886231e-01   3.2805308155316948e-01   3.0864481726324244e-01   2.6813900366608834e-01   6.5553109205556362e-02   2.7993653850803951e-01   2.8232363737580374e-01   1.5513698138526377e-01   1.5372262375673557e-01   2.6102002069830399e-01   9.5254354160995286e-02   1.8429139060340249e-01   5.0747788161