<?xml version="1.0"?>
<VTKFile type="UnstructuredGrid"  version="0.1"  >
<UnstructuredGrid>
<Piece  NumberOfPoints="5138" NumberOfCells="9604">
<Points>
<DataArray  type="Float64"  NumberOfComponents="3"  format="ascii">3 0.4118207621415985 0  2.850097571428131 0.4003902857125256 0  3 0.6451325180728931 0  2.685321360221745 0.3706427204434891 0  2.876293965053353 0.62888189516006 0  3 0.8443666535747749 0  2.499093303904763 0.3321244052063501 0  2.726084095315085 0.5891261429726272 0  2.911582771125035 0.8231655422500692 0  3 0.9693365453905908 0  2.292893218813691 0.292893218813691 0  2.542331217136824 0.5423312171368238 0  2.775577275295324 0.7755772752953246 0  2.950052991924517 0.9500529919245165 0  3 1 0  2.33212440520635 0.4990933039047626 0  2.589126142972627 0.7260840953150849 0  2.823165542250069 0.9115827711250346 0  2.969336545390591 1 0  3 1.030663454609409 0  3.049947008075483 1.049947008075483 0  3.030663454609409 1 0  2.370642720443489 0.6853213602217444 0  2.62888189516006 0.8762939650533533 0  2.844366653574775 1 0  2.950052991924517 1.049947008075483 0  3 1.155633346425225 0  3.088417228874965 1.176834457749931 0  3.224422724704676 1.224422724704675 0  3.176834457749931 1.088417228874965 0  3.155633346425225 1 0  2.400390285712525 0.8500975714281314 0  2.645132518072893 1 0  2.823165542250069 1.088417228874965 0  2.911582771125035 1.176834457749931 0  3 1.354867481927107 0  3.123706034946647 1.37111810483994 0  3.273915904684915 1.410873857027373 0  3.457668782863176 1.457668782863176 0  3.410873857027373 1.273915904684915 0  3.37111810483994 1.123706034946647 0  3.354867481927107 1 0  2.411820762141598 1 0  2.62888189516006 1.123706034946647 0  2.775577275295324 1.224422724704675 0  2.876293965053353 1.37111810483994 0  3 1.588179237858402 0  3.149902428571869 1.599609714287475 0  3.314678639778255 1.629357279556511 0  3.500906696095238 1.66787559479365 0  3.707106781186309 1.707106781186309 0  3.66787559479365 1.500906696095238 0  3.629357279556511 1.314678639778255 0  3.599609714287475 1.149902428571869 0  3.588179237858402 1 0  2.400390285712525 1.149902428571869 0  2.589126142972627 1.273915904684915 0  2.726084095315085 1.410873857027373 0  2.850097571428131 1.599609714287475 0  2.370642720443489 1.314678639778255 0  2.542331217136824 1.457668782863176 0  2.685321360221745 1.629357279556511 0  2.33212440520635 1.500906696095238 0  2.499093303904762 1.66787559479365 0  2.292893218813691 1.707106781186309 0  2 4.588179237858402 0  1.850097571428131 4.599609714287475 0  2 4.354867481927107 0  1.685321360221745 4.629357279556511 0  1.876293965053353 4.37111810483994 0  2 4.155633346425225 0  1.499093303904763 4.667875594793649 0  1.726084095315085 4.410873857027373 0  1.911582771125035 4.176834457749931 0  2 4.030663454609409 0  1.292893218813691 4.707106781186309 0  1.542331217136824 4.457668782863176 0  1.775577275295325 4.224422724704676 0  1.950052991924517 4.049947008075484 0  2 4 0  1.33212440520635 4.500906696095237 0  1.589126142972627 4.273915904684915 0  1.823165542250069 4.088417228874965 0  1.969336545390591 4 0  2 3.969336545390591 0  2.049947008075483 3.950052991924517 0  2.030663454609409 4 0  1.370642720443489 4.314678639778256 0  1.62888189516006 4.123706034946647 0  1.844366653574775 4 0  1.950052991924517 3.950052991924517 0  2 3.844366653574775 0  2.088417228874965 3.823165542250069 0  2.224422724704676 3.775577275295324 0  2.176834457749931 3.911582771125035 0  2.155633346425225 4 0  1.400390285712525 4.149902428571869 0  1.645132518072893 4 0  1.823165542250069 3.911582771125035 0  1.911582771125035 3.823165542250069 0  2 3.645132518072893 0  2.123706034946647 3.62888189516006 0  2.273915904684915 3.589126142972627 0  2.457668782863176 3.542331217136824 0  2.410873857027373 3.726084095315085 0  2.37111810483994 3.876293965053353 0  2.354867481927107 4 0  1.411820762141598 4 0  1.62888189516006 3.876293965053353 0  1.775577275295325 3.775577275295324 0  1.876293965053353 3.62888189516006 0  2 3.411820762141598 0  2.149902428571869 3.400390285712525 0  2.314678639778255 3.370642720443489 0  2.500906696095238 3.33212440520635 0  2.707106781186309 3.292893218813691 0  2.66787559479365 3.499093303904762 0  2.629357279556511 3.685321360221745 0  2.599609714287475 3.850097571428131 0  2.588179237858402 4 0  1.400390285712525 3.850097571428131 0  1.589126142972627 3.726084095315085 0  1.726084095315085 3.589126142972627 0  1.850097571428131 3.400390285712525 0  1.370642720443489 3.685321360221745 0  1.542331217136824 3.542331217136824 0  1.685321360221745 3.370642720443489 0  1.33212440520635 3.499093303904762 0  1.499093303904762 3.33212440520635 0  1.292893218813691 3.292893218813691 0  -6 5.588179237858402 0  -5.850097571428131 5.599609714287475 0  -6 5.354867481927107 0  -5.685321360221745 5.629357279556511 0  -5.876293965053353 5.37111810483994 0  -6 5.155633346425225 0  -5.499093303904763 5.667875594793649 0  -5.726084095315085 5.410873857027373 0  -5.911582771125035 5.176834457749931 0  -6 5.030663454609409 0  -5.292893218813691 5.707106781186309 0  -5.542331217136824 5.457668782863176 0  -5.775577275295324 5.224422724704676 0  -5.950052991924516 5.049947008075484 0  -6 5 0  -5.332124405206351 5.500906696095237 0  -5.589126142972627 5.273915904684915 0  -5.823165542250069 5.088417228874965 0  -5.969336545390591 5 0  -6 4.969336545390591 0  -6.049947008075484 4.950052991924516 0  -6.030663454609409 5 0  -5.370642720443489 5.314678639778256 0  -5.62888189516006 5.123706034946647 0  -5.844366653574775 5 0  -5.950052991924516 4.950052991924516 0  -6 4.844366653574775 0  -6.088417228874965 4.823165542250069 0  -6.224422724704676 4.775577275295324 0  -6.176834457749931 4.911582771125035 0  -6.155633346425225 5 0  -5.400390285712525 5.149902428571869 0  -5.645132518072893 5 0  -5.823165542250069 4.911582771125035 0  -5.911582771125035 4.823165542250069 0  -6 4.645132518072893 0  -6.123706034946647 4.62888189516006 0  -6.273915904684915 4.589126142972627 0  -6.457668782863176 4.542331217136824 0  -6.410873857027373 4.726084095315085 0  -6.37111810483994 4.876293965053353 0  -6.354867481927107 5 0  -5.411820762141598 5 0  -5.62888189516006 4.876293965053353 0  -5.775577275295324 4.775577275295324 0  -5.876293965053353 4.62888189516006 0  -6 4.411820762141598 0  -6.149902428571869 4.400390285712525 0  -6.314678639778256 4.370642720443489 0  -6.500906696095237 4.332124405206351 0  -6.707106781186309 4.292893218813691 0  -6.667875594793649 4.499093303904763 0  -6.629357279556511 4.685321360221744 0  -6.599609714287475 4.850097571428131 0  -6.588179237858402 5 0  -5.400390285712525 4.850097571428131 0  -5.589126142972627 4.726084095315085 0  -5.726084095315085 4.589126142972627 0  -5.850097571428131 4.400390285712525 0  -5.370642720443489 4.685321360221744 0  -5.542331217136824 4.542331217136824 0  -5.685321360221744 4.370642720443489 0  -5.332124405206351 4.499093303904763 0  -5.499093303904763 4.332124405206351 0  -5.292893218813691 4.292893218813691 0  -5 2.411820762141598 0  -4.850097571428131 2.400390285712525 0  -5 2.645132518072893 0  -4.685321360221745 2.370642720443489 0  -4.876293965053353 2.62888189516006 0  -5 2.844366653574775 0  -4.499093303904763 2.33212440520635 0  -4.726084095315085 2.589126142972627 0  -4.911582771125035 2.823165542250069 0  -5 2.969336545390591 0  -4.292893218813691 2.292893218813691 0  -4.542331217136824 2.542331217136824 0  -4.775577275295324 2.775577275295324 0  -4.950052991924516 2.950052991924517 0  -5 3 0  -4.332124405206351 2.499093303904762 0  -4.589126142972627 2.726084095315085 0  -4.823165542250069 2.911582771125035 0  -4.969336545390591 3 0  -5 3.030663454609409 0  -5.049947008075484 3.049947008075483 0  -5.030663454609409 3 0  -4.370642720443489 2.685321360221745 0  -4.62888189516006 2.876293965053353 0  -4.844366653574775 3 0  -4.950052991924516 3.049947008075483 0  -5 3.155633346425225 0  -5.088417228874965 3.176834457749931 0  -5.224422724704676 3.224422724704676 0  -5.176834457749931 3.088417228874965 0  -5.155633346425225 3 0  -4.400390285712525 2.850097571428131 0  -4.645132518072893 3 0  -4.823165542250069 3.088417228874965 0  -4.911582771125035 3.176834457749931 0  -5 3.354867481927107 0  -5.123706034946647 3.37111810483994 0  -5.273915904684915 3.410873857027373 0  -5.457668782863176 3.457668782863176 0  -5.410873857027373 3.273915904684915 0  -5.37111810483994 3.123706034946647 0  -5.354867481927107 3 0  -4.411820762141598 3 0  -4.62888189516006 3.123706034946647 0  -4.775577275295324 3.224422724704676 0  -4.876293965053353 3.37111810483994 0  -5 3.588179237858402 0  -5.149902428571869 3.599609714287475 0  -5.314678639778256 3.629357279556511 0  -5.500906696095237 3.66787559479365 0  -5.707106781186309 3.707106781186309 0  -5.667875594793649 3.500906696095238 0  -5.629357279556511 3.314678639778255 0  -5.599609714287475 3.149902428571869 0  -5.588179237858402 3 0  -4.400390285712525 3.149902428571869 0  -4.589126142972627 3.273915904684915 0  -4.726084095315085 3.410873857027373 0  -4.850097571428131 3.599609714287475 0  -4.370642720443489 3.314678639778255 0  -4.542331217136824 3.457668782863176 0  -4.685321360221744 3.629357279556511 0  -4.332124405206351 3.500906696095238 0  -4.499093303904763 3.66787559479365 0  -4.292893218813691 3.707106781186309 0  5 1 0  5 1.1875 0  4.828669659944564 1.039334829972282 0  5 1.375 0  4.799955282837507 1.28125 0  4.657339319889128 1.078669659944564 0  4.820634918236892 1.506417692786598 0  4.6452355475728 1.438948303365132 0  4.608183587928194 1.257360882676231 0  4.486008979833692 1.118004489916846 0  5 1.5625 0  4.747895110462368 1.679697749640207 0  5 1.75 0  4.573762165742714 1.611688335159911 0  4.356652757945501 1.442880316242406 0  4.314678639778256 1.157339319889128 0  4.702758856255141 1.9375 0  4.42396586971011 1.723530333486135 0  4.232041642026576 1.621165377692019 0  4.149300793242634 1.407019981108342 0  4.143348299722819 1.19667414986141 0  5 1.9375 0  4.761477544891046 
[...]
<CellData  Scalars="f_7408"> 
<DataArray  type="Float64"  Name="f_7408"  format="ascii">0.0000000000000000e+00   0.0000000000000000e+00   0.0000000000000000e+00   0.0000000000000000e+00   5.5247331384674067e-02   0.0000000000000000e+00   5.5247331384675434e-02   1.3664446985720690e-15   5.5247331384674067e-02   5.5247331384674067e-02   2.7328893971441399e-15   2.7328893971441399e-15   5.5247331384675434e-02   5.5247331384674067e-02   5.5247331384674067e-02   0.0000000000000000e+00   2.5634675838099874e-01   1.7453808065260348e-01   1.7453808065260643e-01   1.7453808065260643e-01   1.7536263803698640e-01   2.3332811600664128e-02   4.7197622965825414e-01   4.4602694116689247e-15   1.0676144431880261e-02   1.8232385774479800e-02   3.2067040477052683e-01   3.3183829583539782e-15   3.2067040477052683e-01   3.0288072358543655e-01   4.7197622965825414e-01   3.0288072358543294e-01   1.7453808065260631e-01   1.7453808065260631e-01   2.5634675838099813e-01   1.7453808065260631e-01   1.0676144431880781e-02   3.2067040477052450e-01   1.8232385774483328e-02   3.9328983210121306e-15   1.7536263803698018e-01   4.7197622965825342e-01   2.3332811600658050e-02   2.3020745350549267e-15   4.7197622965825342e-01   3.0288072358543394e-01   3.2067040477052450e-01   3.0288072358543394e-01   1.4262967179960026e-01   1.0676144431880261e-02   1.4262967179959543e-01   1.3664446985720690e-15   4.0327691559410659e-03   4.0327691559387579e-03   4.0327691559420538e-03   4.8722201487948384e-15   1.4262967179959837e-01   1.4262967179959679e-01   1.0676144431880781e-02   2.7328893971441399e-15   1.4262967179959679e-01   1.4262967179960026e-01   1.4262967179959837e-01   4.8722201487948305e-15   4.7843797997918724e-01   2.1001166814324601e-01   4.7843797997918724e-01   2.1001166814325425e-01   8.4622059765325108e-01   8.0028655177801222e-01   5.5295904700934248e-02   2.5879575543231259e-01   5.5295904700936351e-02   2.5879575543231259e-01   8.4622059765325286e-01   8.0028655177799912e-01   8.0028655177799912e-01   8.0028655177801222e-01   8.4622059765325286e-01   1.5552171865469133e-14   1.0864458500921867e-01   1.0864458500921867e-01   3.3420101184868500e-01   1.0864458500921867e-01   3.1252384366077923e-01   2.8773019761069440e-01   3.1252384366078445e-01   2.2489800850374666e-15   5.6251320099663760e-01   2.1994440881373617e-01   1.7273313051479613e-01   1.7046636033469129e-01   2.8121624603042766e-01   3.3420101184868500e-01   2.8773019761069440e-01   2.8121624603042766e-01   3.3420101184868883e-01   1.0864458500921989e-01   1.0864458500922289e-01   1.0864458500922289e-01   1.7273313051479725e-01   1.7046636033469351e-01   5.6251320099664037e-01   2.1994440881373681e-01   3.1252384366078362e-01   3.1252384366078334e-01   2.8773019761069157e-01   4.9196439360194541e-15   2.8773019761069157e-01   2.8121624603042772e-01   2.8121624603042772e-01   3.3420101184868883e-01   2.5879575543231259e-01   2.0038364380938106e-01   2.0542597990894851e-01   5.6251320099663760e-01   3.1252384366078334e-01   3.1252384366078445e-01   3.1252384366078362e-01   3.8525137459200951e-15   2.0542597990894629e-01   5.6251320099664037e-01   2.5879575543231259e-01   2.0038364380937798e-01   8.3125772749252799e-02   8.3125772749250440e-02   3.1399832706448879e-15   3.1399832706448879e-15   6.9320221401999851e-02   6.9320221401999851e-02   6.9320221401999851e-02   6.9320221401999851e-02   2.8002900518070406e-01   3.1586584326231010e-01   2.8002900518070628e-01   2.8002900518070628e-01   1.1758164388238471e-01   2.1994440881373681e-01   2.6039783206699185e-01   1.1758164388238738e-01   2.0528322563241500e-01   2.6039783206699185e-01   3.1586584326231010e-01   2.0528322563241500e-01   3.9582206560787520e-01   4.8300743852335248e-01   3.9582206560787520e-01   3.9582206560787520e-01   5.2000851381721858e-01   5.2394741017753654e-01   5.5595068025613381e-01   5.2000851381721891e-01   3.8826075121224068e-01   4.2692825142631030e-01   3.8826075121224018e-01   3.8826075121224018e-01   4.5620268755436555e-01   5.5595068025613381e-01   4.8300743852335248e-01   4.5620268755436505e-01   2.7534275373211470e-01   4.7843797997918724e-01   1.0455101747997233e+00   6.0971592433865618e-01   2.2465816344192269e-01   3.1008658359136987e-01   5.8285215251442524e-01   2.2465816344192269e-01   5.2530997474306440e-01   6.0186536423419579e-01   6.9815561838379003e-01   5.2530997474306507e-01   6.0971592433865618e-01   1.0455101747997233e+00   6.0186536423419579e-01   2.5206362221294770e-01   3.6408625080109147e-01   4.7708850766708072e-01   4.2692825142631030e-01   3.6408625080108975e-01   4.3018995590500936e-01   6.9815561838379003e-01   5.2394741017753654e-01   4.3018995590501102e-01   2.2876404137604320e-01   5.8285215251442524e-01   4.0788067407137280e-01   2.2876404137604583e-01   4.0788067407136869e-01   4.0788067407137280e-01   4.7708850766708072e-01   4.0788067407137057e-01   6.9320221401999116e-02   6.9320221401999116e-02   6.9320221401999699e-02   6.9320221401999699e-02   1.1758164388238783e-01   1.1758164388238783e-01   2.6039783206699074e-01   1.1758164388238705e-01   2.8002900518070634e-01   3.1586584326231160e-01   2.8002900518070484e-01   2.8002900518070484e-01   2.0528322563241430e-01   2.6039783206699074e-01   3.1586584326231160e-01   2.0528322563241491e-01   2.7534275373211953e-01   2.7534275373211953e-01   1.0455101747997300e+00   6.0971592433865895e-01   5.2530997474306507e-01   6.0186536423419978e-01   6.9815561838379225e-01   5.2530997474306751e-01   2.2465816344192679e-01   2.2465816344192679e-01   5.8285215251443223e-01   2.2465816344192840e-01   6.0971592433865895e-01   1.0455101747997300e+00   6.0186536423419978e-01   2.5206362221295336e-01   3.9582206560787458e-01   4.8300743852335359e-01   3.9582206560787458e-01   3.9582206560787458e-01   3.8826075121224118e-01   4.2692825142631241e-01   3.8826075121224118e-01   3.8826075121224118e-01   5.2000851381721780e-01   5.2394741017753377e-01   5.5595068025613192e-01   5.2000851381721813e-01   4.5620268755436549e-01   5.5595068025613192e-01   4.8300743852335359e-01   4.5620268755436549e-01   2.2876404137604253e-01   5.8285215251443223e-01   4.0788067407137074e-01   2.2876404137604356e-01   4.3018995590501014e-01   6.9815561838379225e-01   5.2394741017753377e-01   4.3018995590500908e-01   3.6408625080109108e-01   4.7708850766707883e-01   4.2692825142631241e-01   3.6408625080109031e-01   4.0788067407136902e-01   4.0788067407137074e-01   4.7708850766707883e-01   4.0788067407136847e-01   6.9320221401998713e-02   6.9320221401998713e-02   6.9320221401999851e-02   6.9320221401999851e-02   1.1758164388238464e-01   2.1994440881373617e-01   2.6039783206698913e-01   1.1758164388238621e-01   2.8002900518070883e-01   3.1586584326231232e-01   2.8002900518070611e-01   2.8002900518070611e-01   2.0528322563241336e-01   2.6039783206698913e-01   3.1586584326231232e-01   2.0528322563241452e-01   2.7534275373211953e-01   4.7843797997918724e-01   1.0455101747997320e+00   6.0971592433866395e-01   5.2530997474306540e-01   6.0186536423419756e-01   6.9815561838379225e-01   5.2530997474306806e-01   2.2465816344192793e-01   3.1008658359137070e-01   5.8285215251443079e-01   2.2465816344192840e-01   6.0971592433866395e-01   1.0455101747997320e+00   6.0186536423419756e-01   2.5206362221295170e-01   3.9582206560787608e-01   4.8300743852335620e-01   3.9582206560787686e-01   3.9582206560787686e-01   3.8826075121223819e-01   4.2692825142631152e-01   3.8826075121223652e-01   3.8826075121223652e-01   5.2000851381721891e-01   5.2394741017753521e-01   5.5595068025613459e-01   5.2000851381721891e-01   4.5620268755437027e-01   5.5595068025613459e-01   4.8300743852335620e-01   4.5620268755436860e-01   2.2876404137604434e-01   5.8285215251443079e-01   4.0788067407137074e-01   2.2876404137604434e-01   4.3018995590501014e-01   6.9815561838379225e-01   5.2394741017753521e-01   4.3018995590500958e-01   3.6408625080108997e-01   4.7708850766708150e-01   4.2692825142631152e-01   3.6408625080108808e-01   4.0788067407137013e-01   4.0788067407137074e-01   4.7708850766708150e-01   4.0788067407136896e-01   6.9320221401999851e-02   6.9320221401999851e-02   6.9320221401999851e-02   6.9320221401999851e-02   2.8002900518070595e-01   2.8002900518070595e-01   2.8002900518070378e-01   3.1586584326230932e-01   2.6039783206699185e-01   1.1758164388238783e-01   1.1758164388238471e-01   1.1758164388238471e-01   3.1586584326230932e-01   2.0528322563241452e-01   2.0528322563241452e-01   2.6039783206699185e-01   3.9582206560787686e-01   3.9582206560787686e-01   3.9582206560787608e-01   4.8300743852335221e-01   5.5595068025613381e-01   5.2000851381721891e-01   5.2000851381721891e-01   5.2394741017753654e-01   3.8826075121223996e-01   3.8826075121223996e-01   3.8826075121223996e-01   4.2692825142631030e-01   4.8300743852335221e-01   4.5620268755436555e-01   4.5620268755436555e-01   5.5595068025613381e-01   1.0455101747997233e+00   6.0971592433865829e-01   2.7534275373211470e-01   2.7534275373211470e-01   5.8285215251442524e-01   2.2465816344192269e-01   2.2465816344192269e-01   2.2465816344192269e-01   6.9815561838379236e-01   5.2530997474306806e-01   5.2530997474306651e-01   6.0186536423419479e-01   6.0186536423419479e-01   2.5206362221294731e-01   6.0971592433865829e-01   1.0455101747997233e+00   4.2692825142631030e-01   3.6408625080108936e-01   3.6408625080109114e-01   4.7708850766708039e-01   5.2394741017753654e-01   4.3018995590501075e-01   4.3018995590500880e-01   6.9815561838379236e-01   4.0788067407137280e-01   2.2876404137604628e-01   2.2876404137604320e-01   5.8285215251442524e-01   4.7708850766708039e-01   4.0788067407137057e-01   4.0788067407136852e-01   4.0788067407137280e-01   0.0000000000000000e+00   0.0000000000000000e+00   0.0000000000000000e+00   0.0000000000000000e+00   5.5247331384674067e-02   2.7328893971441399e-15   5.5247331384674067e-02   2.7328893971441399e-15   5.5247331384674067e-02   5.5247331384675434e-02   0.0000000000000000e+00   1.3664446985720690e-15   5.5247331384675434e-02   5.5247331384674067e-02   5.5247331384674067e-02   0.0000000000000000e+00   2.5634675838099813e-01   1.7453808065260631e-01   1.7453808065260631e-01   1.7453808065260631e-01   1.7536263803698018e-01   2.3332811600658050e-02   4.7197622965825342e-01   2.3020745350549267e-15   1.0676144431880781e-02   1.8232385774483328e-02   3.2067040477052450e-01   3.9328983210121306e-15   3.2067040477052450e-01   3.0288072358543394e-01   4.7197622965825342e-01   3.0288072358543394e-01   1.7453808065260643e-01   1.7453808065260643e-01   2.5634675838099874e-01   1.7453808065260348e-01   1.0676144431880261e-02   3.2067040477052683e-01   1.8232385774479800e-02   3.3183829583539782e-15   1.7536263803698640e-01   4.7197622965825414e-01   2.3332811600664128e-02   4.4602694116689247e-15   4.7197622965825414e-01   3.0288072358543294e-01   3.2067040477052683e-01   3.0288072358543655e-01   1.4262967179959837e-01   1.0676144431880781e-02   1.4262967179959679e-01   2.7328893971441399e-15   4.0327691559410659e-03   4.0327691559420538e-03   4.0327691559387579e-03   4.8722201487948384e-15   1.4262967179960026e-01   1.4262967179959543e-01   1.0676144431880261e-02   1.3664446985720690e-15   1.4262967179959679e-01   1.4262967179959837e-01   1.4262967179960026e-01   4.8722201487948305e-15   4.7843797997918297e-01   2.1001166814325425e-01   4.7843797997920406e-01   2.1001166814327663e-01   8.4622059765325286e-01   8.0028655177799912e-01   5.5295904700936351e-02   2.5879575543231259e-01   5.5295904700934248e-02   2.5879575543231259e-01   8.4622059765325108e-01   8.0028655177801222e-01   8.0028655177799912e-01   8.4622059765325286e-01   8.0028655177801222e-01   1.5552171865469133e-14   1.0864458500922289e-01   1.0864458500922289e-01   3.3420101184868883e-01   1.0864458500921989e-01   3.1252384366078362e-01   2.8773019761069157e-01   3.1252384366078334e-01   4.9196439360194541e-15   5.6251320099664037e-01   2.1994440881373681e-01   1.7273313051479725e-01   1.7046636033469351e-01   2.8121624603042772e-01   3.3420101184868883e-01   2.8773019761069157e-01   2.8121624603042772e-01   3.3420101184868500e-01   1.0864458500921867e-01   1.0864458500921867e-01   1.0864458500921867e-01   1.7273313051479613e-01   1.7046636033469129e-01   5.6251320099663760e-01   2.1994440881373617e-01   3.1252384366077923e-01   3.1252384366078445e-01   2.8773019761069440e-01   2.2489800850374666e-15   2.8773019761069440e-01   2.8121624603042766e-01   2.8121624603042766e-01   3.3420101184868500e-01   2.5879575543231259e-01   2.0038364380937798e-01   2.0542597990894629e-01   5.6251320099664037e-01   3.1252384366078334e-01   3.1252384366078362e-01   3.1252384366078445e-01   3.8525137459200951e-15   2.0542597990894851e-01   5.6251320099663760e-01   2.5879575543231259e-01   2.0038364380938106e-01   8.3125772749250440e-02   8.3125772749252799e-02   3.1399832706448879e-15   3.1399832706448879e-15   6.9320221401998713e-02   6.9320221401998713e-02   6.9320221401999851e-02   6.9320221401999851e-02   2.8002900518070883e-01   3.1586584326231232e-01   2.8002900518070761e-01   2.8002900518070761e-01   1.1758164388238464e-01   2.1994440881373617e-01   2.6039783206698913e-01   1.1758164388238621e-01   2.0528322563241336e-01   2.6039783206698913e-01   3.1586584326231232e-01   2.0528322563241452e-01   3.9582206560787364e-01   4.8300743852335115e-01   3.9582206560787436e-01   3.9582206560787436e-01   5.2000851381722013e-01   5.2394741017753443e-01   5.5595068025613437e-01   5.2000851381722379e-01   3.8826075121224191e-01   4.2692825142630830e-01   3.8826075121224513e-01   3.8826075121224513e-01   4.5620268755436194e-01   5.5595068025613437e-01   4.8300743852335115e-01   4.5620268755436516e-01   2.7534275373210665e-01   4.7843797997920406e-01   1.0455101747997095e+00   6.0971592433866861e-01   2.2465816344192793e-01   3.1008658359137070e-01   5.8285215251443079e-01   2.2465816344192566e-01   5.2530997474305785e-01   6.0186536423419901e-01   6.9815561838378559e-01   5.2530997474306274e-01   6.0971592433866861e-01   1.0455101747997095e+00   6.0186536423419901e-01   2.5206362221295292e-01   3.6408625080109075e-01   4.7708850766707916e-01   4.2692825142630830e-01   3.6408625080108953e-01   4.3018995590501069e-01   6.9815561838378559e-01   5.2394741017753443e-01   4.3018995590501408e-01   2.2876404137604434e-01   5.8285215251443079e-01   4.0788067407136830e-01   2.2876404137604364e-01   4.0788067407136830e-01   4.0788067407136830e-01   4.7708850766707916e-01   4.0788067407137008e-01   6.9320221401999851e-02   6.9320221401999851e-02   6.9320221401999851e-02   6.9320221401999851e-02   1.1758164388239760e-01   1.1758164388239760e-01   2.6039783206699857e-01   1.1758164388239147e-01   2.8002900518071189e-01   3.1586584326231498e-01   2.8002900518070750e-01   2.8002900518070750e-01   2.0528322563241808e-01   2.6039783206699857e-01   3.1586584326231498e-01   2.0528322563241808e-01   2.7534275373212636e-01   2.7534275373212636e-01   1.0455101747997233e+00   6.0971592433866628e-01   5.2530997474306418e-01   6.0186536423419823e-01   6.9815561838379070e-01   5.2530997474306629e-01   2.2465816344192269e-01   2.2465816344192269e-01   5.8285215251443090e-01   2.2465816344192269e-01   6.0971592433866628e-01   1.0455101747997233e+00   6.0186536423419823e-01   2.5206362221295348e-01   3.9582206560787747e-01   4.8300743852335393e-01   3.9582206560787825e-01   3.9582206560787825e-01   3.8826075121223369e-01   4.2692825142630958e-01   3.8826075121223819e-01   3.8826075121223819e-01   5.2000851381721092e-01   5.2394741017752655e-01   5.5595068025612326e-01   5.2000851381721447e-01   4.5620268755436277e-01   5.5595068025612326e-01   4.8300743852335393e-01   4.5620268755436721e-01   2.2876404137604037e-01   5.8285215251443090e-01   4.0788067407137280e-01   2.2876404137604320e-01   4.3018995590501308e-01   6.9815561838379070e-01   5.2394741017752655e-01   4.3018995590500453e-01   3.6408625080108564e-01   4.7708850766708255e-01   4.2692825142630958e-01   3.6408625080108892e-01   4.0788067407136419e-01   4.0788067407137280e-01   4.7708850766708255e-01   4.0788067407137280e-01   6.9320221401999851e-02   6.9320221401999851e-02   6.9320221401999851e-02   6.9320221401999851e-02   1.1758164388238471e-01   2.1994440881373681e-01   2.6039783206699185e-01   1.1758164388238783e-01   2.8002900518070362e-01   3.1586584326231015e-01   2.8002900518070406e-01   2.8002900518070406e-01   2.0528322563241452e-01   2.6039783206699185e-01   3.1586584326231015e-01   2.0528322563241452e-01   2.7534275373211803e-01   4.7843797997918297e-01   1.0455101747997282e+00   6.0971592433865418e-01   5.2530997474306651e-01   6.0186536423419479e-01   6.9815561838379325e-01   5.2530997474306917e-01   2.2465816344192324e-01   3.1008658359136848e-01   5.8285215251442712e-01   2.2465816344192599e-01   6.0971592433865418e-01   1.0455101747997282e+00   6.0186536423419479e-01   2.5206362221294859e-01   3.9582206560787686e-01   4.8300743852335554e-01   3.9582206560787686e-01   3.9582206560787686e-01   3.8826075121223974e-01   4.2692825142631152e-01   3.8826075121223802e-01   3.8826075121223802e-01   5.2000851381721791e-01   5.2394741017753610e-01   5.5595068025613459e-01   5.2000851381721791e-01   4.5620268755436882e-01   5.5595068025613459e-01   4.8300743852335554e-01   4.5620268755436716e-01   2.2876404137604278e-01   5.8285215251442712e-01   4.0788067407137396e-01   2.2876404137604656e-01   4.3018995590500914e-01   6.9815561838379325e-01   5.2394741017753610e-01   4.3018995590501041e-01   3.6408625080109158e-01   4.7708850766708144e-01   4.2692825142631152e-01   3.6408625080108908e-01   4.0788067407136902e-01   4.0788067407137396e-01   4.7708850766708144e-01   4.0788067407136991e-01   6.9320221401999851e-02   6.9320221401999851e-02   6.9320221401999851e-02   6.9320221401999851e-02   2.8002900518070406e-01   2.8002900518070406e-01   2.8002900518070362e-01   3.1586584326231015e-01   2.6039783206699185e-01   1.1758164388238783e-01   1.1758164388238471e-01   1.1758164388238471e-01   3.1586584326231015e-01   2.0528322563241452e-01   2.0528322563241452e-01   2.6039783206699185e-01   3.9582206560787686e-01   3.9582206560787686e-01   3.9582206560787686e-01   4.8300743852335554e-01   5.5595068025613459e-01   5.2000851381721791e-01   5.2000851381721791e-01   5.2394741017753610e-01   3.8826075121223802e-01   3.8826075121223802e-01   3.8826075121223974e-01   4.2692825142631152e-01   4.8300743852335554e-01   4.5620268755436716e-01   4.5620268755436882e-01   5.5595068025613459e-01   1.0455101747997282e+00   6.0971592433865418e-01   2.7534275373211803e-01   2.7534275373211803e-01   5.8285215251442712e-01   2.2465816344192599e-01   2.2465816344192324e-01   2.2465816344192324e-01   6.9815561838379325e-01   5.2530997474306917e-01   5.2530997474306651e-01   6.0186536423419479e-01   6.0186536423419479e-01   2.5206362221294859e-01   6.0971592433865418e-01   1.0455101747997282e+00   4.2692825142631152e-01   3.6408625080108908e-01   3.6408625080109158e-01   4.7708850766708144e-01   5.2394741017753610e-01   4.3018995590501041e-01   4.3018995590500914e-01   6.9815561838379325e-01   4.0788067407137396e-01   2.2876404137604656e-01   2.2876404137604278e-01   5.8285215251442712e-01   4.7708850766708144e-01   4.0788067407136991e-01   4.0788067407136902e-01   4.0788067407137396e-01   0.0000000000000000e+00   1.0578940328340633e-14   1.0578940328340633e-14   1.0578940328340633e-14   5.5247331384679285e-02   0.0000000000000000e+00   5.5247331384684760e-02   5.2173343036388189e-15   5.5247331384679285e-02   5.5247331384684760e-02   0.0000000000000000e+00   5.2173343036388189e-15   5.5247331384684760e-02   5.5247331384679285e-02   5.5247331384679285e-02   1.0696484109766525e-14   2.5634675838099874e-01   1.7453808065260643e-01   1.7453808065260643e-01   1.7453808065260643e-01   1.7536263803698157e-01   2.3332811600652585e-02   4.7197622965825592e-01   6.4745846298419749e-15   1.0676144431886707e-02   1.8232385774481889e-02   3.2067040477052655e-01   2.3351583781009516e-15   3.2067040477