<?xml version="1.0"?>
<VTKFile type="UnstructuredGrid"  version="0.1"  >
<UnstructuredGrid>
<Piece  NumberOfPoints="2388" NumberOfCells="4365">
<Points>
<DataArray  type="Float64"  NumberOfComponents="3"  format="ascii">3 0.3059179772177343 0  2.826192235005252 0.3047689400210052 0  3 0.4876840732277087 0  2.650848904718999 0.3016978094379971 0  2.828721773526102 0.4861653205783054 0  3 0.6663313827030033 0  2.473127361874204 0.2975031491656049 0  2.654933606300413 0.4824004094506196 0  2.832075157123596 0.6641503142471923 0  3 0.8400450330852545 0  2.292893218813298 0.2928932188132978 0  2.477765466230188 0.4777654662301873 0  2.659590949023722 0.6595909490237226 0  2.836584264135747 0.8365842641357473 0  3 1 0  2.297503149165605 0.4731273618742037 0  2.482400409450619 0.654933606300413 0  2.664150314247192 0.8320751571235961 0  2.840045033085254 1 0  3 1.159954966914746 0  3.163415735864253 1.163415735864253 0  3.159954966914746 1 0  2.301697809437997 0.6508489047189985 0  2.486165320578305 0.8287217735261018 0  2.666331382703003 1 0  2.836584264135747 1.163415735864253 0  3 1.333668617296997 0  3.167924842876404 1.335849685752808 0  3.340409050976278 1.340409050976277 0  3.335849685752808 1.167924842876404 0  3.333668617296997 1 0  2.304768940021005 0.8261922350052512 0  2.487684073227709 1 0  2.664150314247192 1.167924842876404 0  2.832075157123596 1.335849685752808 0  3 1.512315926772291 0  3.171278226473898 1.513834679421695 0  3.345066393699587 1.51759959054938 0  3.522234533769812 1.522234533769813 0  3.517599590549381 1.345066393699587 0  3.513834679421695 1.171278226473898 0  3.512315926772291 1 0  2.305917977217734 1 0  2.486165320578305 1.171278226473898 0  2.659590949023722 1.340409050976277 0  2.828721773526102 1.513834679421695 0  3 1.694082022782266 0  3.173807764994749 1.695231059978995 0  3.349151095281001 1.698302190562003 0  3.526872638125796 1.702496850834395 0  3.707106781186702 1.707106781186702 0  3.702496850834395 1.526872638125796 0  3.698302190562003 1.349151095281002 0  3.695231059978995 1.173807764994749 0  3.694082022782266 1 0  2.304768940021005 1.173807764994749 0  2.482400409450619 1.345066393699587 0  2.654933606300413 1.51759959054938 0  2.826192235005251 1.695231059978995 0  2.301697809437997 1.349151095281002 0  2.477765466230188 1.522234533769813 0  2.650848904718999 1.698302190562003 0  2.297503149165605 1.526872638125796 0  2.473127361874204 1.702496850834395 0  2.292893218813298 1.707106781186702 0  2 4.694082022782266 0  1.826192235005251 4.695231059978995 0  2 4.512315926772291 0  1.650848904718999 4.698302190562003 0  1.828721773526102 4.513834679421695 0  2 4.333668617296997 0  1.473127361874204 4.702496850834395 0  1.654933606300413 4.517599590549381 0  1.832075157123596 4.335849685752808 0  2 4.159954966914746 0  1.292893218813298 4.707106781186702 0  1.477765466230187 4.522234533769812 0  1.659590949023723 4.340409050976278 0  1.836584264135747 4.163415735864253 0  2 4 0  1.297503149165605 4.526872638125797 0  1.48240040945062 4.345066393699587 0  1.664150314247192 4.167924842876404 0  1.840045033085254 4 0  2 3.840045033085254 0  2.163415735864253 3.836584264135747 0  2.159954966914746 4 0  1.301697809437997 4.349151095281002 0  1.486165320578305 4.171278226473898 0  1.666331382703003 4 0  1.836584264135747 3.836584264135747 0  2 3.666331382703003 0  2.167924842876404 3.664150314247192 0  2.340409050976278 3.659590949023722 0  2.335849685752808 3.832075157123596 0  2.333668617296997 4 0  1.304768940021005 4.173807764994748 0  1.487684073227709 4 0  1.664150314247192 3.832075157123596 0  1.832075157123596 3.664150314247192 0  2 3.487684073227709 0  2.171278226473898 3.486165320578305 0  2.345066393699587 3.482400409450619 0  2.522234533769812 3.477765466230188 0  2.517599590549381 3.654933606300413 0  2.513834679421695 3.828721773526102 0  2.512315926772291 4 0  1.305917977217734 4 0  1.486165320578305 3.828721773526102 0  1.659590949023723 3.659590949023722 0  1.828721773526102 3.486165320578305 0  2 3.305917977217734 0  2.173807764994749 3.304768940021005 0  2.349151095281001 3.301697809437997 0  2.526872638125796 3.297503149165605 0  2.707106781186702 3.292893218813298 0  2.702496850834395 3.473127361874204 0  2.698302190562003 3.650848904718999 0  2.695231059978995 3.826192235005251 0  2.694082022782266 4 0  1.304768940021005 3.826192235005251 0  1.48240040945062 3.654933606300413 0  1.654933606300413 3.482400409450619 0  1.826192235005251 3.304768940021005 0  1.301697809437997 3.650848904718999 0  1.477765466230187 3.477765466230188 0  1.650848904718998 3.301697809437997 0  1.297503149165605 3.473127361874204 0  1.473127361874204 3.297503149165605 0  1.292893218813298 3.292893218813298 0  -6 5.694082022782266 0  -5.826192235005252 5.695231059978995 0  -6 5.512315926772291 0  -5.650848904718998 5.698302190562003 0  -5.828721773526102 5.513834679421695 0  -6 5.333668617296997 0  -5.473127361874203 5.702496850834395 0  -5.654933606300413 5.517599590549381 0  -5.832075157123596 5.335849685752808 0  -6 5.159954966914746 0  -5.292893218813298 5.707106781186702 0  -5.477765466230188 5.522234533769812 0  -5.659590949023722 5.340409050976278 0  -5.836584264135747 5.163415735864253 0  -6 5 0  -5.297503149165605 5.526872638125797 0  -5.482400409450619 5.345066393699587 0  -5.664150314247192 5.167924842876404 0  -5.840045033085254 5 0  -6 4.840045033085254 0  -6.163415735864253 4.836584264135747 0  -6.159954966914746 5 0  -5.301697809437997 5.349151095281002 0  -5.486165320578305 5.171278226473898 0  -5.666331382703003 5 0  -5.836584264135747 4.836584264135747 0  -6 4.666331382703003 0  -6.167924842876404 4.664150314247192 0  -6.340409050976278 4.659590949023722 0  -6.335849685752808 4.832075157123596 0  -6.333668617296997 5 0  -5.304768940021005 5.173807764994748 0  -5.487684073227709 5 0  -5.664150314247192 4.832075157123596 0  -5.832075157123596 4.664150314247192 0  -6 4.487684073227709 0  -6.171278226473898 4.486165320578305 0  -6.345066393699587 4.482400409450619 0  -6.522234533769812 4.477765466230188 0  -6.517599590549381 4.654933606300413 0  -6.513834679421695 4.828721773526102 0  -6.512315926772291 5 0  -5.305917977217734 5 0  -5.486165320578305 4.828721773526102 0  -5.659590949023722 4.659590949023722 0  -5.828721773526102 4.486165320578305 0  -6 4.305917977217734 0  -6.173807764994748 4.304768940021005 0  -6.349151095281002 4.301697809437997 0  -6.526872638125797 4.297503149165605 0  -6.707106781186702 4.292893218813298 0  -6.702496850834395 4.473127361874203 0  -6.698302190562003 4.650848904718998 0  -6.695231059978995 4.826192235005252 0  -6.694082022782266 5 0  -5.304768940021005 4.826192235005252 0  -5.482400409450619 4.654933606300413 0  -5.654933606300413 4.482400409450619 0  -5.826192235005252 4.304768940021005 0  -5.301697809437997 4.650848904718998 0  -5.477765466230188 4.477765466230188 0  -5.650848904718998 4.301697809437997 0  -5.297503149165605 4.473127361874203 0  -5.473127361874203 4.297503149165605 0  -5.292893218813298 4.292893218813298 0  -5 2.305917977217734 0  -4.826192235005252 2.304768940021005 0  -5 2.487684073227709 0  -4.650848904718998 2.301697809437997 0  -4.828721773526102 2.486165320578305 0  -5 2.666331382703003 0  -4.473127361874203 2.297503149165605 0  -4.654933606300413 2.482400409450619 0  -4.832075157123596 2.664150314247192 0  -5 2.840045033085254 0  -4.292893218813298 2.292893218813298 0  -4.477765466230188 2.477765466230188 0  -4.659590949023722 2.659590949023722 0  -4.836584264135747 2.836584264135747 0  -5 3 0  -4.297503149165605 2.473127361874204 0  -4.482400409450619 2.654933606300413 0  -4.664150314247192 2.832075157123596 0  -4.840045033085254 3 0  -5 3.159954966914746 0  -5.163415735864253 3.163415735864253 0  -5.159954966914746 3 0  -4.301697809437997 2.650848904718999 0  -4.486165320578305 2.828721773526102 0  -4.666331382703003 3 0  -4.836584264135747 3.163415735864253 0  -5 3.333668617296997 0  -5.167924842876404 3.335849685752808 0  -5.340409050976278 3.340409050976278 0  -5.335849685752808 3.167924842876404 0  -5.333668617296997 3 0  -4.304768940021005 2.826192235005251 0  -4.487684073227709 3 0  -4.664150314247192 3.167924842876404 0  -4.832075157123596 3.335849685752808 0  -5 3.512315926772291 0  -5.171278226473898 3.513834679421695 0  -5.345066393699587 3.517599590549381 0  -5.522234533769812 3.522234533769812 0  -5.517599590549381 3.345066393699587 0  -5.513834679421695 3.171278226473898 0  -5.512315926772291 3 0  -4.305917977217734 3 0  -4.486165320578305 3.171278226473898 0  -4.659590949023722 3.340409050976278 0  -4.828721773526102 3.513834679421695 0  -5 3.694082022782266 0  -5.173807764994748 3.695231059978995 0  -5.349151095281002 3.698302190562003 0  -5.526872638125797 3.702496850834395 0  -5.707106781186702 3.707106781186702 0  -5.702496850834395 3.526872638125796 0  -5.698302190562003 3.349151095281001 0  -5.695231059978995 3.173807764994749 0  -5.694082022782266 3 0  -4.304768940021005 3.173807764994749 0  -4.482400409450619 3.345066393699587 0  -4.654933606300413 3.517599590549381 0  -4.826192235005252 3.695231059978995 0  -4.301697809437997 3.349151095281001 0  -4.477765466230188 3.522234533769812 0  -4.650848904718998 3.698302190562003 0  -4.297503149165605 3.526872638125796 0  -4.473127361874203 3.702496850834395 0  -4.292893218813298 3.707106781186702 0  5 1 0  5 1.1875 0  4.836760252847784 1 0  4.777715803246315 1.196559610919311 0  4.839460463216996 1.347314472439327 0  5 1.375 0  4.673520505695566 1 0  4.632635625466378 1.365213346993499 0  4.556044961094186 1.171744017769988 0  4.510280758543349 1 0  4.794773055276885 1.503974827597894 0  5 1.5625 0  4.509532852384659 1.302052263620541 0  4.410856208148409 1.131488582867765 0  4.347041011391132 1 0  4.456349169075412 1.451051581694457 0  4.607229733549753 1.536976478139674 0  4.689743592565922 1.689749170841861 0  4.856245648493844 1.661305922135441 0  5 1.75 0  4.374259326167071 1.272988741846429 0  4.255464305052109 1.375617786941471
[...]
<CellData  Scalars="f_6189"> 
<DataArray  type="Float64"  Name="f_6189"  format="ascii">0.0000000000000000e+00   5.9524291294606102e-03   5.9524291294612841e-03   5.9524291294612841e-03   7.6840493488325636e-03   1.8408185392669474e-02   6.1752726799256920e-04   1.8408185392669474e-02   7.6840493488336842e-03   6.1752726799245710e-04   1.8408185392668228e-02   1.8408185392668228e-02   1.1804310040657316e-02   7.2217540251894377e-03   1.1804310040656641e-02   1.1804310040657316e-02   2.1404344424314801e-02   4.2312415695132409e-02   4.2312415695133124e-02   4.2312415695133124e-02   2.0521785925182976e-02   1.9850710687281285e-02   3.1724454093485926e-02   2.0521785925182976e-02   2.0521785925183101e-02   3.1724454093484532e-02   1.9850710687280594e-02   2.0521785925183101e-02   3.1724454093485926e-02   1.9850710687281285e-02   3.1724454093484532e-02   6.3054455555445832e-03   1.4676971317181913e-02   1.5464247107532449e-02   2.0284838242259698e-02   1.5464247107532449e-02   8.2230093767277392e-03   1.3091911407074172e-02   1.1839377484437341e-02   8.3945857210108270e-03   5.0929909154256131e-02   3.0025097698379102e-02   2.8871555667022489e-02   5.0929909154256131e-02   1.1839377484437341e-02   1.3843057695286416e-02   2.1984409903462503e-02   2.0730802298945306e-02   0.0000000000000000e+00   1.4913930694081886e-02   1.5464247107533127e-02   1.5464247107533127e-02   5.0929909154255784e-02   2.8871555667022836e-02   2.1984409903463738e-02   5.0929909154255784e-02   8.2230093767266706e-03   1.1839377484439712e-02   1.3091911407075047e-02   8.3945857210118956e-03   2.1984409903463738e-02   1.3843057695285540e-02   1.1839377484439712e-02   2.0730802298943540e-02   1.4676971317181575e-02   2.0284838242259910e-02   1.5464247107531361e-02   1.5464247107531361e-02   5.0929909154255784e-02   2.8871555667022836e-02   3.0025097698379462e-02   5.0929909154255784e-02   8.2230093767285822e-03   1.1839377484439063e-02   1.3091911407075047e-02   8.3945857210116839e-03   2.1984409903463738e-02   1.3843057695285540e-02   1.1839377484439063e-02   2.0730802298943540e-02   0.0000000000000000e+00   1.5464247107532445e-02   1.4913930694085316e-02   1.5464247107532445e-02   8.2230093767298677e-03   1.3091911407074393e-02   1.1839377484436697e-02   8.3945857210103968e-03   5.0929909154256478e-02   2.1984409903461823e-02   2.8871555667022146e-02   5.0929909154256478e-02   1.1839377484436697e-02   1.3843057695286199e-02   2.1984409903461823e-02   2.0730802298945424e-02   0.0000000000000000e+00   5.9524291294612841e-03   5.9524291294606102e-03   5.9524291294612841e-03   7.6840493488336842e-03   1.8408185392668228e-02   6.1752726799245710e-04   1.8408185392668228e-02   7.6840493488325636e-03   6.1752726799256920e-04   1.8408185392669474e-02   1.8408185392669474e-02   1.1804310040656641e-02   7.2217540251894377e-03   1.1804310040657316e-02   1.1804310040657316e-02   2.1404344424314801e-02   4.2312415695133124e-02   4.2312415695132409e-02   4.2312415695133124e-02   2.0521785925183101e-02   1.9850710687280594e-02   3.1724454093484532e-02   2.0521785925183101e-02   2.0521785925182976e-02   3.1724454093485926e-02   1.9850710687281285e-02   2.0521785925182976e-02   3.1724454093484532e-02   1.9850710687281285e-02   3.1724454093485926e-02   6.3054455555445832e-03   1.4676971317180473e-02   1.5464247107533543e-02   2.0284838242259910e-02   1.5464247107533543e-02   8.2230093767262369e-03   1.3091911407073737e-02   1.1839377484439266e-02   8.3945857210129659e-03   5.0929909154254535e-02   3.0025097698378210e-02   2.8871555667024089e-02   5.0929909154254535e-02   1.1839377484439266e-02   1.3843057695286856e-02   2.1984409903464994e-02   2.0730802298944851e-02   0.0000000000000000e+00   1.4913930694083536e-02   1.5464247107529853e-02   1.5464247107529853e-02   5.0929909154256478e-02   2.8871555667022146e-02   2.1984409903463165e-02   5.0929909154256478e-02   8.2230093767288060e-03   1.1839377484439728e-02   1.3091911407074393e-02   8.3945857210103968e-03   2.1984409903463165e-02   1.3843057695286199e-02   1.1839377484439728e-02   2.0730802298944081e-02   1.4676971317182132e-02   2.0284838242260034e-02   1.5464247107531361e-02   1.5464247107531361e-02   5.0929909154256478e-02   2.8871555667022590e-02   3.0025097698379442e-02   5.0929909154256478e-02   8.2230093767298607e-03   1.1839377484438420e-02   1.3091911407073754e-02   8.3945857210123345e-03   2.1984409903462496e-02   1.3843057695285101e-02   1.1839377484438420e-02   2.0730802298944095e-02   0.0000000000000000e+00   1.5464247107531361e-02   1.4913930694084643e-02   1.5464247107531361e-02   8.2230093767298607e-03   1.3091911407073754e-02   1.1839377484438420e-02   8.3945857210123345e-03   5.0929909154256478e-02   2.1984409903462496e-02   2.8871555667022590e-02   5.0929909154256478e-02   1.1839377484438420e-02   1.3843057695285101e-02   2.1984409903462496e-02   2.0730802298944095e-02   0.0000000000000000e+00   5.9524291294605130e-03   5.9524291294605130e-03   5.9524291294605130e-03   7.6840493488331317e-03   1.8408185392666979e-02   6.1752726799133343e-04   1.8408185392666979e-02   7.6840493488331317e-03   6.1752726799133343e-04   1.8408185392666979e-02   1.8408185392666979e-02   1.1804310040653590e-02   7.2217540251894290e-03   1.1804310040653590e-02   1.1804310040653590e-02   2.1404344424314801e-02   4.2312415695133124e-02   4.2312415695133124e-02   4.2312415695133124e-02   2.0521785925184936e-02   1.9850710687278464e-02   3.1724454093482027e-02   2.0521785925184936e-02   2.0521785925184936e-02   3.1724454093482027e-02   1.9850710687278464e-02   2.0521785925184936e-02   3.1724454093482027e-02   1.9850710687278464e-02   3.1724454093482027e-02   6.3054455555472668e-03   1.4676971317181702e-02   1.5464247107531163e-02   2.0284838242263768e-02   1.5464247107531163e-02   8.2230093767285788e-03   1.3091911407072439e-02   1.1839377484441005e-02   8.3945857210136199e-03   5.0929909154255222e-02   3.0025097698378189e-02   2.8871555667023846e-02   5.0929909154255222e-02   1.1839377484441005e-02   1.3843057695286409e-02   2.1984409903464980e-02   2.0730802298944178e-02   0.0000000000000000e+00   1.4913930694082317e-02   1.5464247107531163e-02   1.5464247107531163e-02   5.0929909154255222e-02   2.8871555667023846e-02   2.1984409903464980e-02   5.0929909154255222e-02   8.2230093767285788e-03   1.1839377484441005e-02   1.3091911407072439e-02   8.3945857210136199e-03   2.1984409903464980e-02   1.3843057695286409e-02   1.1839377484441005e-02   2.0730802298944178e-02   1.4676971317181702e-02   2.0284838242263768e-02   1.5464247107531163e-02   1.5464247107531163e-02   5.0929909154255222e-02   2.8871555667023846e-02   3.0025097698378189e-02   5.0929909154255222e-02   8.2230093767285788e-03   1.1839377484441005e-02   1.3091911407072439e-02   8.3945857210136199e-03   2.1984409903464980e-02   1.3843057695286409e-02   1.1839377484441005e-02   2.0730802298944178e-02   0.0000000000000000e+00   1.5464247107531163e-02   1.4913930694082317e-02   1.5464247107531163e-02   8.2230093767285788e-03   1.3091911407072439e-02   1.1839377484441005e-02   8.3945857210136199e-03   5.0929909154255222e-02   2.1984409903464980e-02   2.8871555667023846e-02   5.0929909154255222e-02   1.1839377484441005e-02   1.3843057695286409e-02   2.1984409903464980e-02   2.0730802298944178e-02   0.0000000000000000e+00   5.9524291294605061e-03   5.9524291294605061e-03   5.9524291294605061e-03   7.6840493488344822e-03   1.8408185392665630e-02   6.1752726799391979e-04   1.8408185392665630e-02   7.6840493488331222e-03   6.1752726799133256e-04   1.8408185392669474e-02   1.8408185392669474e-02   1.1804310040654829e-02   7.2217540251906893e-03   1.1804310040654829e-02   1.1804310040654829e-02   2.1404344424314801e-02   4.2312415695133124e-02   4.2312415695133124e-02   4.2312415695133124e-02   2.0521785925184912e-02   1.9850710687278610e-02   3.1724454093483283e-02   2.0521785925184912e-02   2.0521785925183684e-02   3.1724454093483283e-02   1.9850710687279869e-02   2.0521785925183684e-02   3.1724454093483283e-02   1.9850710687279869e-02   3.1724454093483283e-02   6.3054455555458643e-03   1.4676971317182803e-02   1.5464247107528761e-02   2.0284838242262515e-02   1.5464247107528761e-02   8.2230093767298607e-03   1.3091911407073754e-02   1.1839377484441018e-02   8.3945857210123345e-03   5.0929909154256478e-02   3.0025097698379442e-02   2.8871555667022590e-02   5.0929909154256478e-02   1.1839377484441018e-02   1.3843057695285101e-02   2.1984409903463724e-02   2.0730802298942867e-02   0.0000000000000000e+00   1.4913930694082225e-02   1.5464247107534867e-02   1.5464247107534867e-02   5.0929909154255222e-02   2.8871555667023846e-02   2.1984409903463752e-02   5.0929909154255222e-02   8.2230093767285788e-03   1.1839377484438623e-02   1.3091911407072439e-02   8.3945857210136199e-03   2.1984409903463752e-02   1.3843057695286409e-02   1.1839377484438623e-02   2.0730802298945410e-02   1.4676971317180473e-02   2.0284838242261287e-02   1.5464247107533543e-02   1.5464247107533543e-02   5.0929909154255222e-02   2.8871555667023846e-02   3.0025097698378189e-02   5.0929909154255222e-02   8.2230093767285788e-03   1.1839377484438623e-02   1.3091911407072439e-02   8.3945857210136199e-03   2.1984409903463752e-02   1.3843057695286409e-02   1.1839377484438623e-02   2.0730802298945410e-02   0.0000000000000000e+00   1.5464247107528761e-02   1.4913930694083418e-02   1.5464247107528761e-02   8.2230093767298607e-03   1.3091911407073754e-02   1.1839377484441018e-02   8.3945857210123345e-03   5.0929909154256478e-02   2.1984409903463724e-02   2.8871555667022590e-02   5.0929909154256478e-02   1.1839377484441018e-02   1.3843057695285101e-02   2.1984409903463724e-02   2.0730802298942867e-02   1.0852180965196033e-01   3.0703677934908558e-01   1.2908006135222408e-01   2.6911707051638406e-01   1.5860419982260107e-01   3.4385787342499669e-01   1.1348398206288361e-01   1.0704222498536987e-02   4.2567211996476911e-01   1.9313956506141666e-01   5.9039493828521868e-02   2.1828063427325953e-01   9.3134048071150680e-02   6.0611884580483243e-02   1.1417911819460001e-01   2.2973491749186670e-01   3.0645302704159977e-01   2.4367816451929750e-01   1.7921843575258060e-02   1.5718318035018125e-01   1.3311272017736081e-01   2.5886943249446576e-01   3.0792088878143697e-01   5.3054209512115619e-02   3.5747426797595727e-01   3.6054329177378192e-01   3.4543311445023012e-01   1.6690949467196045e-01   4.6013144917888893e-01   3.3482552790263209e-01   1.6752749139471748e-01   1.8086046134756259e-01   2.3317606029644139e-01   2.9409656275776086e-01   1.9443322469304980e-01   1.2881176434034738e-01   1.1740827045377047e-01   4.6815484744094976e-01   1.8276341165623389e-01   1.1067480720132479e-01   2.0776257528893977e-01   1.8302474272727243e-01   1.1280345365295524e-01   3.0796378018354154e-01   2.1171649353008204e-01   1.5578838932401159e-01   2.3329584817170543e-02   2.0530699454124193e-01   1.2837594769984775e-01   5.4587826854218938e-02   1.4014033933479811e-02   3.7052131729287979e-01   3.3691964290226417e-01   2.6590906569927922e-02   6.1553283221619605e-02   9.6597637983349777e-02   2.3447363933543894e-01   1.0029643741130728e-01   3.1871766869640739e-01   9.9521826193972374e-02   2.4335570824855204e-01   1.6311145841269953e-01   8.4121423555822181e-02   1.1946524136888333e-01   3.6719763285424062e-01   3.5895713175567855e-02   1.1469616649864510e-01   4.2987652263618781e-01   2.6256686813097635e-01   4.1897679386699976e-01   2.0317882080690813e-01   1.8620472782290923e-01   1.5728147369178411e-01   1.6944338230782466e-01   4.8728405834914542e-16   6.0657092428855447e-02   1.6356894236759767e-01   9.2934745616487430e-02   4.3416377415519580e-01   2.7372508898553988e-01   3.1045030426318077e-01   1.6752749139471748e-01   0.0000000000000000e+00   0.0000000000000000e+00   1.6211047704409530e-02   1.9443322469304980e-01   7.2494093183485431e-02   1.5290424238551467e-01   1.9825640384998544e-01   1.5201920449264825e-01   2.4509812338481840e-01   2.2785228810710390e-01   1.5696590962468870e-01   4.5186478217173853e-01   1.5057049106401238e-01   1.9619094290784203e-01   2.4118816386008021e-01   1.0993747172082008e-01   2.6231139603485021e-01   2.7672947927643993e-01   2.2348407935658957e-01   3.4689630200483462e-01   9.6421835775111375e-02   4.0572591324122137e-01   1.5775168727539663e-02   2.5215440413648293e-01   3.6615566708422526e-01   2.5928254569447449e-02   1.7455979191239743e-01   3.3691964290226417e-01   6.4305024659833815e-02   1.3408679589505540e-01   1.8620472782291003e-01   8.8149015431917152e-02   2.7713363926246365e-01   5.8031700051766666e-02   1.8987627065860141e-01   2.4150841994734221e-01   1.1574885494071539e-01   4.9627309000575598e-01   1.6353217567930334e-02   3.7948153692056141e-01   5.8292011177539926e-01   1.0735030785977660e-01   2.4103776478154319e-02   2.5740886957081782e-01   2.4921115339838235e-01   4.1046974977560491e-01   9.1948779542014150e-02   1.1302803872622960e-01   8.5706291181319255e-02   1.1761268551748523e-01   2.8300250402428589e-01   1.3477512782531023e-01   8.3730703867243905e-02   1.3311272017736081e-01   8.7585480769281354e-02   2.8502598461466722e-01   3.3774392532837894e-01   2.3746831156421461e-01   3.3642441944284834e-01   2.9376816596257453e-02   1.4334110564001432e-01   1.4863937390787385e-01   1.3513819981271308e-01   2.7850765085008039e-01   3.3721513333997377e-01   3.2045917440893767e-01   3.7420094790740327e-01   2.0182161577655444e-01   1.1240704466072390e-01   5.5453079985003047e-02   2.6782947445698374e-01   1.9823622762164376e-02   4.1897679386699976e-01   1.6403787582485566e-01   2.7380413378543478e-01   3.4586882659846563e-01   4.0883103826841037e-02   2.3597331328599705e-01   1.7391213848702688e-01   1.5991954092274156e-02   2.1277569923926459e-01   9.5568820033324842e-02   1.3731704396433572e-01   1.8967664890451963e-01   1.1876290012307497e-01   3.0112051056158873e-01   3.3477070672661791e-01   2.5637828817503844e-01   6.0097382810020052e-03   3.9769493534443279e-01   2.9142107269222767e-01   3.2699082418052583e-01   2.3505764138094470e-01   2.1137065170864730e-01   1.3341529558988427e-01   7.2134727512100108e-02   1.2481407376764599e-01   3.0096017068711606e-01   2.5576286055469960e-01   4.9743280502452025e-02   2.9731206835471227e-02   1.0113949483024724e-01   2.8788309414958346e-01   1.3612271666645762e-02   1.0464102178964574e-01   9.5568820033324842e-02   2.4706746739290326e-16   2.8792850848140866e-01   2.4162791857831700e-01   2.7001453704976880e-01   3.0513468510618502e-01   1.0855757632860280e-01   1.1140267496850816e-01   2.2279994917559079e-01   2.3472934826320127e-01   2.7154025188664016e-01   4.6815484744094976e-01   1.7725982581163277e-01   1.9562033817408642e-01   1.1506498777453147e-01   2.2976579043508064e-01   3.1940765487228912e-01   1.2302602305297235e-02   2.2537947469563571e-01   1.2629947745223319e-01   1.7641780392434350e-01   2.9142341888485157e-01   2.4714490126683131e-01   3.3012191908161084e-02   3.3012191908161084e-02   3.4975138868644520e-02   2.8996970867290595e-01   2.1588648469145941e-01   1.2579406699431894e-01   1.6668610057553837e-01   1.5070698107188449e-01   2.0964817343662900e-01   1.3027166045500285e-01   3.6004499488367751e-02   1.0531113555329573e-01   3.6941703112377139e-01   3.9347306790636899e-01   2.7188135528931590e-01   4.0203891524231711e-01   3.6901068376662893e-01   2.1398633662953585e-02   1.6132832858576515e-01   1.7114844357319733e-01   1.2206225833131504e-01   2.6371014845490920e-01   1.5129529858582497e-01   1.1294585303160938e-01   2.1986932193823575e-01   2.7393531665917657e-02   1.4629817706019274e-01   3.9076798412515552e-02   1.2825250495493309e-01   1.4015265200314750e-01   2.7764163538466247e-01   1.0566129565926017e-04   2.7675174983012085e-01   5.0670499406813518e-01   3.6508621083328624e-01   2.9693156048405883e-01   2.8033112849380226e-01   2.6631843008654266e-01   1.3772415537731950e-01   1.8447996183399970e-01   2.1030808181917951e-01   2.0480279860542780e-01   3.4143712596296621e-01   3.8132824747532795e-02   1.4156505287852189e-01   2.7620457014143163e-01   2.3273931644752818e-01   2.5886351515226580e-01   1.0275123999938415e-01   2.0810741748793082e-01   2.7444772223809261e-01   2.0458251102758759e-01   3.3526491374555746e-02   3.2829017774080271e-01   1.6219809020123618e-01   1.4010534623112256e-01   1.0518405900502793e-01   1.5611283133238407e-01   5.9258796176844375e-01   3.1215223312017017e-02   3.0841524036773475e-02   1.8666436403229106e-01   1.2023137271957066e-03   2.2399230149609869e-01   2.3497937308815042e-01   1.9039404504807050e-01   5.9547520458086284e-02   1.4103884031577993e-01   1.9745153941682855e-01   1.4261389280953699e-01   2.2848057737089686e-01   2.8142143766749239e-01   1.9541027830221752e-01   3.4113950356990275e-01   1.9652894666309864e-01   2.3668686986031173e-01   3.5995950977006114e-01   2.4963939277575706e-01   2.1126072274900201e-01   7.2183747556545802e-02   9.4310077353517222e-02   6.5447851812455845e-03   1.3807449435551844e-01   1.3660494834620053e-16   1.1572761020249456e-01   4.7028652650489206e-01   1.1665747348669185e-01   2.9011817393236639e-01   3.5398647244963583e-01   1.2481407376764599e-01   1.7117316836446628e-02   3.3560199098581922e-01   1.0314367566257689e-01   2.2981452593994803e-01   2.0473844539428654e-01   1.2187942596772237e-01   9.8052568725418815e-02   1.8975693738199764e-01   1.0130866672973242e-01   1.1751529575773489e-01   2.2362929818656543e-01   5.0315763423908498e-02   3.0796378018354154e-01   1.0518405900502818e-01   1.5348263098283696e-01   2.8499151694517253e-02   5.1744830327095342e-02   2.7852355149896457e-01   3.3157080714313053e-01   6.9032595325776880e-02   5.6680670896644761e-02   2.7125132574031552e-01   9.1578958681624842e-02   1.2137429771634174e-01   3.2723704652973452e-02   1.7779552723128234e-01   1.8830529705635121e-01   1.0779370565003010e-01   4.6501328790957708e-01   8.5905557524148149e-02   3.0856725686223646e-01   1.5137331739135074e-01   1.7746273728655704e-01   2.3032387350990999e-01   9.2176458783866017e-02   2.3666655675966844e-01   2.9142573336314224e-03   2.2328560739445322e-01   1.7262798591852049e-01   3.9581783666915965e-01   3.4919578167492227e-01   1.2438061927571889e-01   3.9492200494230377e-02   1.3917729397906783e-01   1.4948790254634556e-01   2.6016768456294842e-01   1.3795488617106610e-01   2.7764163538466247e-01   1.7794225949983167e-01   1.3612271666645762e-02   2.9365215763557873e-01   4.8024420723045913e-01   2.1584252797660279e-03   1.3152693112181806e-03   2.2537947469563435e-01   2.2374508115801328e-02   1.9613844691715862e-01   9.1969606465841153e-02   1.6686154281995721e-01   8.1435871002223534e-02   1.7794225949983167e-01   2.3456549206330560e-01   2.6371014845490848e-01   1.4221770607851130e-02   2.4076498737204191e-01   4.1504106925422452e-01   1.4151022037841857e-01   1.0076404371173181e-01   1.0547364774106770e-01   1.3064586941855227e-01   8.3499631206234354e-02   3.0829947658545648e-02   3.7134376072128536e-02   2.0803378307463277e-01   1.4675345873224499e-01   1.7796441234803284e-01   1.2924750914336550e-01   1.5518771557562469e-01   1.2287491581159418e-01   4.2195775988694961e-01   2.6459985622633353e-01   1.1228093321136066e-01   1.7441561667869684e-01   9.2104844556953530e-02   1.1368665859239452e-01   1.0801703372860483e-01   3.9487328237489966e-01   1.4523970607144418e-01   2.6394020556989256e-01   7.9531229823378694e-02   2.2962751185665523e-01   8.3652182061713945e-02   3.1033207254247197e-01   6.0149742975682020e-02   1.3586902804949988e-01   1.6198301591011377e-01   2.7414510511954554e-01   1.9737628874319246e-01   1.2954665346849284e-01   1.0647460856390327e-01   8.6378270558464573e-02   4.0569795548100274e-01   1.3339436935297963e-01   2.0854554717933882e-01   2.2460675112724215e-01   2.7188135528931562e-01   4.0083673918981749e-01   6.9535703669690932e-02   1.0569346077801633e-01   1.8967087221103066e-01   3.5395727072087096e-01   3.3487038596124796e-01   2.3392857716