<?xml version="1.0"?>
<VTKFile type="UnstructuredGrid"  version="0.1"  >
<UnstructuredGrid>
<Piece  NumberOfPoints="19875" NumberOfCells="38416">
<Points>
<DataArray  type="Float64"  NumberOfComponents="3"  format="ascii">3 0.4118207621415985 0  2.850097571428131 0.4003902857125256 0  3 0.6451325180728931 0  2.685321360221745 0.3706427204434891 0  2.876293965053353 0.62888189516006 0  3 0.8443666535747749 0  2.499093303904763 0.3321244052063501 0  2.726084095315085 0.5891261429726272 0  2.911582771125035 0.8231655422500692 0  3 0.9693365453905908 0  2.292893218813691 0.292893218813691 0  2.542331217136824 0.5423312171368238 0  2.775577275295324 0.7755772752953246 0  2.950052991924517 0.9500529919245165 0  3 1 0  2.33212440520635 0.4990933039047626 0  2.589126142972627 0.7260840953150849 0  2.823165542250069 0.9115827711250346 0  2.969336545390591 1 0  3 1.030663454609409 0  3.049947008075483 1.049947008075483 0  3.030663454609409 1 0  2.370642720443489 0.6853213602217444 0  2.62888189516006 0.8762939650533533 0  2.844366653574775 1 0  2.950052991924517 1.049947008075483 0  3 1.155633346425225 0  3.088417228874965 1.176834457749931 0  3.224422724704676 1.224422724704675 0  3.176834457749931 1.088417228874965 0  3.155633346425225 1 0  2.400390285712525 0.8500975714281314 0  2.645132518072893 1 0  2.823165542250069 1.088417228874965 0  2.911582771125035 1.176834457749931 0  3 1.354867481927107 0  3.123706034946647 1.37111810483994 0  3.273915904684915 1.410873857027373 0  3.457668782863176 1.457668782863176 0  3.410873857027373 1.273915904684915 0  3.37111810483994 1.123706034946647 0  3.354867481927107 1 0  2.411820762141598 1 0  2.62888189516006 1.123706034946647 0  2.775577275295324 1.224422724704675 0  2.876293965053353 1.37111810483994 0  3 1.588179237858402 0  3.149902428571869 1.599609714287475 0  3.314678639778255 1.629357279556511 0  3.500906696095238 1.66787559479365 0  3.707106781186309 1.707106781186309 0  3.66787559479365 1.500906696095238 0  3.629357279556511 1.314678639778255 0  3.599609714287475 1.149902428571869 0  3.588179237858402 1 0  2.400390285712525 1.149902428571869 0  2.589126142972627 1.273915904684915 0  2.726084095315085 1.410873857027373 0  2.850097571428131 1.599609714287475 0  2.370642720443489 1.314678639778255 0  2.542331217136824 1.457668782863176 0  2.685321360221745 1.629357279556511 0  2.33212440520635 1.500906696095238 0  2.499093303904762 1.66787559479365 0  2.292893218813691 1.707106781186309 0  2 4.588179237858402 0  1.850097571428131 4.599609714287475 0  2 4.354867481927107 0  1.685321360221745 4.629357279556511 0  1.876293965053353 4.37111810483994 0  2 4.155633346425225 0  1.499093303904763 4.667875594793649 0  1.726084095315085 4.410873857027373 0  1.911582771125035 4.176834457749931 0  2 4.030663454609409 0  1.292893218813691 4.707106781186309 0  1.542331217136824 4.457668782863176 0  1.775577275295325 4.224422724704676 0  1.950052991924517 4.049947008075484 0  2 4 0  1.33212440520635 4.500906696095237 0  1.589126142972627 4.273915904684915 0  1.823165542250069 4.088417228874965 0  1.969336545390591 4 0  2 3.969336545390591 0  2.049947008075483 3.950052991924517 0  2.030663454609409 4 0  1.370642720443489 4.314678639778256 0  1.62888189516006 4.123706034946647 0  1.844366653574775 4 0  1.950052991924517 3.950052991924517 0  2 3.844366653574775 0  2.088417228874965 3.823165542250069 0  2.224422724704676 3.775577275295324 0  2.176834457749931 3.911582771125035 0  2.155633346425225 4 0  1.400390285712525 4.149902428571869 0  1.645132518072893 4 0  1.823165542250069 3.911582771125035 0  1.911582771125035 3.823165542250069 0  2 3.645132518072893 0  2.123706034946647 3.62888189516006 0  2.273915904684915 3.589126142972627 0  2.457668782863176 3.542331217136824 0  2.410873857027373 3.726084095315085 0  2.37111810483994 3.876293965053353 0  2.354867481927107 4 0  1.411820762141598 4 0  1.62888189516006 3.876293965053353 0  1.775577275295325 3.775577275295324 0  1.876293965053353 3.62888189516006 0  2 3.411820762141598 0  2.149902428571869 3.400390285712525 0  2.314678639778255 3.370642720443489 0  2.500906696095238 3.33212440520635 0  2.707106781186309 3.292893218813691 0  2.66787559479365 3.499093303904762 0  2.629357279556511 3.685321360221745 0  2.599609714287475 3.850097571428131 0  2.588179237858402 4 0  1.400390285712525 3.850097571428131 0  1.589126142972627 3.726084095315085 0  1.726084095315085 3.589126142972627 0  1.850097571428131 3.400390285712525 0  1.370642720443489 3.685321360221745 0  1.542331217136824 3.542331217136824 0  1.685321360221745 3.370642720443489 0  1.33212440520635 3.499093303904762 0  1.499093303904762 3.33212440520635 0  1.292893218813691 3.292893218813691 0  -6 5.588179237858402 0  -5.850097571428131 5.599609714287475 0  -6 5.354867481927107 0  -5.685321360221745 5.629357279556511 0  -5.876293965053353 5.37111810483994 0  -6 5.155633346425225 0  -5.499093303904763 5.667875594793649 0  -5.726084095315085 5.410873857027373 0  -5.911582771125035 5.176834457749931 0  -6 5.030663454609409 0  -5.292893218813691 5.707106781186309 0  -5.542331217136824 5.457668782863176 0  -5.775577275295324 5.224422724704676 0  -5.950052991924516 5.049947008075484 0  -6 5 0  -5.332124405206351 5.500906696095237 0  -5.589126142972627 5.273915904684915 0  -5.823165542250069 5.088417228874965 0  -5.969336545390591 5 0  -6 4.969336545390591 0  -6.049947008075484 4.950052991924516 0  -6.030663454609409 5 0  -5.370642720443489 5.314678639778256 0  -5.62888189516006 5.123706034946647 0  -5.844366653574775 5 0  -5.950052991924516 4.950052991924516 0  -6 4.844366653574775 0  -6.088417228874965 4.823165542250069 0  -6.224422724704676 4.775577275295324 0  -6.176834457749931 4.911582771125035 0  -6.155633346425225 5 0  -5.400390285712525 5.149902428571869 0  -5.645132518072893 5 0  -5.823165542250069 4.911582771125035 0  -5.911582771125035 4.823165542250069 0  -6 4.645132518072893 0  -6.123706034946647 4.62888189516006 0  -6.273915904684915 4.589126142972627 0  -6.457668782863176 4.542331217136824 0  -6.410873857027373 4.726084095315085 0  -6.37111810483994 4.876293965053353 0  -6.354867481927107 5 0  -5.411820762141598 5 0  -5.62888189516006 4.876293965053353 0  -5.775577275295324 4.775577275295324 0  -5.876293965053353 4.62888189516006 0  -6 4.411820762141598 0  -6.149902428571869 4.400390285712525 0  -6.314678639778256 4.370642720443489 0  -6.500906696095237 4.332124405206351 0  -6.707106781186309 4.292893218813691 0  -6.667875594793649 4.499093303904763 0  -6.629357279556511 4.685321360221744 0  -6.599609714287475 4.850097571428131 0  -6.588179237858402 5 0  -5.400390285712525 4.850097571428131 0  -5.589126142972627 4.726084095315085 0  -5.726084095315085 4.589126142972627 0  -5.850097571428131 4.400390285712525 0  -5.370642720443489 4.685321360221744 0  -5.542331217136824 4.542331217136824 0  -5.685321360221744 4.370642720443489 0  -5.332124405206351 4.499093303904763 0  -5.499093303904763 4.332124405206351 0  -5.292893218813691 4.292893218813691 0  -5 2.411820762141598 0  -4.850097571428131 2.400390285712525 0  -5 2.645132518072893 0  -4.685321360221745 2.370642720443489 0  -4.876293965053353 2.62888189516006 0  -5 2.844366653574775 0  -4.499093303904763 2.33212440520635 0  -4.726084095315085 2.589126142972627 0  -4.911582771125035 2.823165542250069 0  -5 2.969336545390591 0  -4.292893218813691 2.292893218813691 0  -4.542331217136824 2.542331217136824 0  -4.775577275295324 2.775577275295324 0  -4.950052991924516 2.950052991924517 0  -5 3 0  -4.332124405206351 2.499093303904762 0  -4.589126142972627 2.726084095315085 0  -4.823165542250069 2.911582771125035 0  -4.969336545390591 3 0  -5 3.030663454609409 0  -5.049947008075484 3.049947008075483 0  -5.030663454609409 3 0  -4.370642720443489 2.685321360221745 0  -4.62888189516006 2.876293965053353 0  -4.844366653574775 3 0  -4.950052991924516 3.049947008075483 0  -5 3.155633346425225 0  -5.088417228874965 3.176834457749931 0  -5.224422724704676 3.224422724704676 0  -5.176834457749931 3.088417228874965 0  -5.155633346425225 3 0  -4.400390285712525 2.850097571428131 0  -4.645132518072893 3 0  -4.823165542250069 3.088417228874965 0  -4.911582771125035 3.176834457749931 0  -5 3.354867481927107 0  -5.123706034946647 3.37111810483994 0  -5.273915904684915 3.410873857027373 0  -5.457668782863176 3.457668782863176 0  -5.410873857027373 3.273915904684915 0  -5.37111810483994 3.123706034946647 0  -5.354867481927107 3 0  -4.411820762141598 3 0  -4.62888189516006 3.123706034946647 0  -4.775577275295324 3.224422724704676 0  -4.876293965053353 3.37111810483994 0  -5 3.588179237858402 0  -5.149902428571869 3.599609714287475 0  -5.314678639778256 3.629357279556511 0  -5.500906696095237 3.66787559479365 0  -5.707106781186309 3.707106781186309 0  -5.667875594793649 3.500906696095238 0  -5.629357279556511 3.314678639778255 0  -5.599609714287475 3.149902428571869 0  -5.588179237858402 3 0  -4.400390285712525 3.149902428571869 0  -4.589126142972627 3.273915904684915 0  -4.726084095315085 3.410873857027373 0  -4.850097571428131 3.599609714287475 0  -4.370642720443489 3.314678639778255 0  -4.542331217136824 3.457668782863176 0  -4.685321360221744 3.629357279556511 0  -4.332124405206351 3.500906696095238 0  -4.499093303904763 3.66787559479365 0  -4.292893218813691 3.707106781186309 0  5 1 0  5 1.1875 0  4.828669659944564 1.039334829972282 0  5 1.375 0  4.799955282837507 1.28125 0  4.657339319889128 1.078669659944564 0  4.820634918236892 1.506417692786598 0  4.6452355475728 1.438948303365132 0  4.608183587928194 1.257360882676231 0  4.486008979833692 1.118004489916846 0  5 1.5625 0  4.747895110462368 1.679697749640207 0  5 1.75 0  4.573762165742714 1.611688335159911 0  4.356652757945501 1.442880316242406 0  4.314678639778256 1.157339319889128 0  4.702758856255141 1.9375 0  4.42396586971011 1.723530333486135 0  4.232041642026576 1.621165377692019 0  4.149300793242634 1.407019981108342 0  4.143348299722819 1.19667414986141 0  5 1.9375 0  4.76147754489104
[...]
<CellData  Scalars="f_7424"> 
<DataArray  type="Float64"  Name="f_7424"  format="ascii">0.0000000000000000e+00   0.0000000000000000e+00   0.0000000000000000e+00   0.0000000000000000e+00   5.4070139455962806e-15   5.4070139455962806e-15   5.4070139455962806e-15   5.4070139455962806e-15   5.4070139455962806e-15   5.4070139455962806e-15   5.4070139455962806e-15   5.4070139455962806e-15   5.2894701641703024e-15   5.4070139455962806e-15   5.4070139455962806e-15   5.2894701641703024e-15   5.5247331384674067e-02   0.0000000000000000e+00   5.5247331384668787e-02   0.0000000000000000e+00   0.0000000000000000e+00   0.0000000000000000e+00   0.0000000000000000e+00   0.0000000000000000e+00   5.5247331384676801e-02   5.5247331384676801e-02   2.7328893971441399e-15   2.7328893971441399e-15   0.0000000000000000e+00   0.0000000000000000e+00   2.7328893971441399e-15   0.0000000000000000e+00   5.5247331384669099e-02   5.5247331384668787e-02   4.9688898129893263e-15   4.9688898129893263e-15   5.5247331384674067e-02   5.5247331384674067e-02   0.0000000000000000e+00   0.0000000000000000e+00   5.2173343036388189e-15   5.2173343036388189e-15   5.2173343036388189e-15   5.2173343036388189e-15   5.2173343036388189e-15   0.0000000000000000e+00   5.2173343036388189e-15   0.0000000000000000e+00   5.5247331384676801e-02   5.5247331384676801e-02   5.5247331384674067e-02   0.0000000000000000e+00   5.5247331384668787e-02   5.4070139455962806e-15   5.5247331384674067e-02   5.2894701641703024e-15   5.5247331384668787e-02   5.4070139455962806e-15   5.5247331384669099e-02   5.2894701641703024e-15   5.4070139455962806e-15   5.4070139455962806e-15   5.4070139455962806e-15   5.4070139455962806e-15   1.7453808065260643e-01   1.7453808065260643e-01   1.7453808065260643e-01   2.5634675838099874e-01   1.7453808065260643e-01   1.7453808065260643e-01   2.5634675838099874e-01   1.7453808065260040e-01   1.7453808065260643e-01   1.7453808065260643e-01   1.7453808065260643e-01   1.7453808065260643e-01   1.7453808065260643e-01   1.7453808065260643e-01   1.7453808065260643e-01   1.7453808065260643e-01   1.7536263803698166e-01   2.3332811600660208e-02   4.7197622965825947e-01   8.7766591648968985e-15   2.3332811600669204e-02   4.0327691559373380e-03   2.3332811600660208e-02   1.1510372675274665e-15   1.7536263803698271e-01   4.0327691559361610e-03   4.7197622965825703e-01   8.7766591648968985e-15   8.7766591648968985e-15   0.0000000000000000e+00   0.0000000000000000e+00   0.0000000000000000e+00   1.0676144431879156e-02   2.0893522330376982e-15   1.0676144431883580e-02   4.4245106111386407e-15   4.4245106111386494e-15   1.8232385774479800e-02   3.2067040477052483e-01   2.0893522330376891e-15   1.0676144431884223e-02   3.2067040477052861e-01   1.8232385774479800e-02   4.4245106111386494e-15   2.2122553055693129e-15   8.7261181497456517e-15   2.2122553055693129e-15   8.7261181497456517e-15   3.0288072358543777e-01   3.0288072358543777e-01   3.0288072358543516e-01   3.2067040477052861e-01   3.0288072358543777e-01   3.0288072358543777e-01   3.2067040477052483e-01   3.0288072358543777e-01   3.0288072358543777e-01   3.0288072358543777e-01   3.0288072358543516e-01   4.7197622965825703e-01   3.0288072358543777e-01   3.0288072358543777e-01   4.7197622965825947e-01   3.0288072358543022e-01   1.7453808065260887e-01   1.7453808065260887e-01   1.7453808065260643e-01   1.7453808065260643e-01   1.7453808065260643e-01   1.7453808065260587e-01   1.7453808065260643e-01   1.7453808065260643e-01   1.7453808065260587e-01   1.7453808065260587e-01   1.7453808065260348e-01   2.5634675838099874e-01   1.7453808065260587e-01   1.7453808065260587e-01   2.5634675838099741e-01   1.7453808065260887e-01   1.0676144431881491e-02   1.0676144431883266e-02   3.4412860308856150e-15   3.4412860308856150e-15   1.0676144431882474e-02   3.2067040477052428e-01   1.8232385774484647e-02   9.8322458025303068e-16   0.0000000000000000e+00   1.8232385774481889e-02   3.2067040477052472e-01   4.4245106111386455e-15   9.8322458025303068e-16   4.4245106111386455e-15   3.4412860308856150e-15   3.4412860308856150e-15   1.7536263803697713e-01   2.3332811600656898e-02   4.7197622965825170e-01   2.3020745350549240e-15   1.7536263803697941e-01   4.7197622965825387e-01   4.0327691559328780e-03   2.3020745350549240e-15   2.3332811600654594e-02   4.0327691559437859e-03   2.3332811600656898e-02   4.4602694116689200e-15   2.3020745350549240e-15   2.3020745350549240e-15   2.3020745350549240e-15   2.3020745350549240e-15   3.0288072358543516e-01   4.7197622965825387e-01   3.0288072358543655e-01   3.0288072358543655e-01   4.7197622965825170e-01   3.0288072358543516e-01   3.0288072358543516e-01   3.0288072358543294e-01   3.0288072358543294e-01   3.0288072358543294e-01   3.0288072358543155e-01   3.2067040477052428e-01   3.0288072358543294e-01   3.0288072358543294e-01   3.2067040477052472e-01   3.0288072358543655e-01   1.4262967179959679e-01   1.0676144431884223e-02   1.4262967179960320e-01   2.7328893971441399e-15   1.0676144431883580e-02   2.7328893971441399e-15   1.0676144431879156e-02   0.0000000000000000e+00   1.4262967179959407e-01   2.7328893971441399e-15   1.4262967179959407e-01   2.7328893971441399e-15   2.7328893971441399e-15   2.7328893971441399e-15   2.7328893971441399e-15   2.7328893971441399e-15   4.0327691559480907e-03   4.0327691559373380e-03   4.0327691559437859e-03   9.6011397049780717e-15   4.0327691559361610e-03   9.6011397049780717e-15   4.0327691559480907e-03   6.4485266675225962e-15   4.0327691559328780e-03   6.4485266675225962e-15   4.0327691559447808e-03   9.6011397049780717e-15   9.6011397049780717e-15   9.6011397049780717e-15   6.4485266675225962e-15   9.6011397049780717e-15   1.4262967179959679e-01   1.4262967179959993e-01   1.0676144431882474e-02   0.0000000000000000e+00   1.4262967179959679e-01   0.0000000000000000e+00   1.4262967179959679e-01   0.0000000000000000e+00   1.0676144431883266e-02   5.2173343036388189e-15   1.0676144431881491e-02   5.2173343036388189e-15   5.2173343036388189e-15   0.0000000000000000e+00   5.2173343036388189e-15   0.0000000000000000e+00   1.4262967179959679e-01   1.4262967179959407e-01   1.4262967179959679e-01   0.0000000000000000e+00   1.4262967179960320e-01   1.4262967179959679e-01   9.6011397049780717e-15   6.4485266675225757e-15   1.4262967179959993e-01   1.4262967179959679e-01   3.1526130374554759e-15   3.1526130374554759e-15   9.6011397049780717e-15   6.4485266675225757e-15   3.1526130374554759e-15   0.0000000000000000e+00   2.1001166814322153e-01   2.8962279634027096e-14   4.7843797997916926e-01   2.8962279634027096e-14   2.1001166814324185e-01   4.0352901895094168e-01   2.8962279634027512e-14   2.1001166814325870e-01   2.1001166814325195e-01   0.0000000000000000e+00   4.7843797997917348e-01   2.8962279634027096e-14   2.1001166814325195e-01   2.1001166814327143e-01   4.0352901895097187e-01   2.8962279634027096e-14   8.0028655177798369e-01   8.4622059765326629e-01   5.5295904700931313e-02   5.5295904700931313e-02   8.4622059765326152e-01   8.0028655177801467e-01   5.5295904700931313e-02   8.6942601241808470e-02   5.5295904700931313e-02   5.5295904700931313e-02   2.5879575543231709e-01   5.5295904700937190e-02   5.5295904700931313e-02   3.1008658359137292e-01   5.5295904700931313e-02   2.5879575543230787e-01   5.5295904700931944e-02   5.5295904700931944e-02   2.5879575543231814e-01   5.5295904700940757e-02   5.5295904700931944e-02   3.1008658359136987e-01   5.5295904700931944e-02   2.5879575543231259e-01   5.5295904700931944e-02   5.5295904700931944e-02   8.0028655177798369e-01   8.4622059765326918e-01   5.5295904700931944e-02   8.6942601241815562e-02   8.4622059765324142e-01   8.0028655177798869e-01   8.0028655177798869e-01   2.1001166814327143e-01   8.4622059765324142e-01   9.4609045514935751e-15   2.1001166814325870e-01   8.4622059765326152e-01   8.0028655177801467e-01   1.1923331763526463e-14   8.0028655177798369e-01   8.0028655177798369e-01   8.4622059765326918e-01   3.0974742298725694e-14   3.0974742298725694e-14   3.0974742298725694e-14   5.9616658817630288e-15   3.0974742298725694e-14   1.0864458500922010e-01   1.0864458500922010e-01   1.0864458500922289e-01   1.0864458500922010e-01   1.0864458500922289e-01   1.0864458500922289e-01   1.0864458500922289e-01   1.0864458500921989e-01   1.0864458500922010e-01   3.3420101184868706e-01   1.0864458500922010e-01   1.0864458500922010e-01   3.3420101184868023e-01   1.0864458500921713e-01   1.0864458500921713e-01   1.0864458500921710e-01   3.1252384366077812e-01   3.1252384366078012e-01   2.3332811600654594e-02   0.0000000000000000e+00   2.3332811600656898e-02   2.8773019761069657e-01   6.6484402283067184e-03   4.4979601700749278e-15   3.1252384366078251e-01   2.8773019761068974e-01   3.1252384366078584e-01   4.4979601700749278e-15   4.4979601700749278e-15   0.0000000000000000e+00   4.4979601700749278e-15   0.0000000000000000e+00   2.0542597990894171e-01   5.6251320099664304e-01   1.7046636033469070e-01   1.7046636033469070e-01   5.6251320099662983e-01   2.1994440881373989e-01   1.7046636033468826e-01   1.7046636033468629e-01   1.7046636033469317e-01   1.7046636033469070e-01   1.7046636033469631e-01   1.7273313051480099e-01   1.7046636033469317e-01   2.1994440881373239e-01   1.7273313051479386e-01   1.7046636033469317e-01   2.8121624603042578e-01   2.8121624603042578e-01   3.3420101184868023e-01   2.8121624603042578e-01   2.8121624603042578e-01   2.8121624603042578e-01   2.8121624603042972e-01   3.3420101184868706e-01   2.8121624603042972e-01   2.8121624603042972e-01   2.8121624603042972e-01   2.8773019761069657e-01   2.8121624603042583e-01   2.8121624603042589e-01   2.8773019761068974e-01   2.8121624603042583e-01   1.0864458500922289e-01   3.3420101184869355e-01   1.0864458500922289e-01   1.0864458500922289e-01   3.3420101184868584e-01   1.0864458500921678e-01   1.0864458500922289e-01   1.0864458500922289e-01   1.0864458500922289e-01   1.0864458500922289e-01   1.0864458500922289e-01   1.0864458500922289e-01   1.0864458500922289e-01   1.0864458500922289e-01   1.0864458500922289e-01   1.0864458500922289e-01   1.7046636033469537e-01   1.7046636033469537e-01   1.7046636033470039e-01   1.7273313051480454e-01   1.7046636033469537e-01   2.1994440881374122e-01   1.7273313051478956e-01   1.7046636033468651e-01   1.7046636033469154e-01   1.7046636033469537e-01   2.0542597990895070e-01   5.6251320099664270e-01   1.7046636033470039e-01   1.7046636033470039e-01   5.6251320099664270e-01   2.1994440881373239e-01   3.1252384366077812e-01   3.1252384366077623e-01   2.3332811600669204e-02   8.9959203401498366e-15   3.1252384366078984e-01   3.1252384366078584e-01   2.8773019761069518e-01   8.8553590848350016e-15   2.3332811600660208e-02   2.8773019761069657e-01   6.6484402283092086e-03   8.1525528082607919e-15   8.1525528082607919e-15   8.1525528082607919e-15   8.9959203401498366e-15   8.9959203401498366e-15   2.8121624603042161e-01   2.8121624603042161e-01   2.8121624603042367e-01   2.8773019761069657e-01   2.8121624603042161e-01   2.8121624603042161e-01   2.8773019761069518e-01   2.8121624603043149e-01   2.8121624603042578e-01   2.8121624603042367e-01   3.3420101184868584e-01   2.8121624603042578e-01   2.8121624603042578e-01   2.8121624603042367e-01   2.8121624603043355e-01   3.3420101184869355e-01   2.0038364380937324e-01   2.5879575543230787e-01   2.0038364380938259e-01   2.0038364380938259e-01   2.5879575543231709e-01   2.0038364380938875e-01   2.0038364380938259e-01   2.0038364380938259e-01   2.0038364380938259e-01   2.0038364380938259e-01   5.6251320099662983e-01   2.0542597990895103e-01   2.0038364380938259e-01   2.0038364380938259e-01   2.0542597990894171e-01   5.6251320099664304e-01   8.3125772749257365e-02   3.1252384366078984e-01   3.1252384366078584e-01   9.8239100520962424e-15   3.1252384366078584e-01   8.3125772749246832e-02   3.1252384366078251e-01   5.7787706188801533e-15   3.1252384366077623e-01   3.1252384366078012e-01   3.1252384366077812e-01   2.1188825602560482e-15   9.8239100520962424e-15   2.1188825602560482e-15   2.1188825602560482e-15   7.8976531791362015e-15   5.6251320099664270e-01   2.0542597990895070e-01   2.0038364380938420e-01   2.0038364380938420e-01   2.0542597990895070e-01   5.6251320099664270e-01   2.0038364380938420e-01   2.0038364380938420e-01   2.0038364380938420e-01   2.5879575543231259e-01   2.0038364380938981e-01   2.0038364380938420e-01   2.5879575543231814e-01   2.0038364380938981e-01   2.0038364380938981e-01   2.0038364380937715e-01   8.3125772749253826e-02   1.2769265300622523e-14   8.3125772749257365e-02   6.2799665412897868e-15   8.3125772749253826e-02   0.0000000000000000e+00   8.3125772749246832e-02   6.4892987593327382e-15   6.2799665412897868e-15   0.0000000000000000e+00   1.2769265300622523e-14   1.2769265300622523e-14   1.2769265300622523e-14   6.4892987593327382e-15   6.4892987593327382e-15   6.4892987593327382e-15   6.9320221401999851e-02   6.9320221401999851e-02   6.9320221401999851e-02   6.9320221401999851e-02   6.9320221401999851e-02   6.9320221401999851e-02   6.9320221401999851e-02   6.9320221401999851e-02   6.9320221401999851e-02   6.9320221401999851e-02   6.9320221401999851e-02   6.9320221401999851e-02   6.9320221401999851e-02   6.9320221401999851e-02   6.9320221401999851e-02   6.9320221401999851e-02   2.8002900518070156e-01   2.8002900518070678e-01   3.1586584326231060e-01   2.8002900518070156e-01   2.8002900518070195e-01   2.8002900518070678e-01   2.8002900518069668e-01   3.1586584326231143e-01   2.8002900518070595e-01   2.8002900518070678e-01   2.8002900518070595e-01   2.8002900518070595e-01   2.8002900518070578e-01   2.8002900518070678e-01   2.8002900518070495e-01   2.8002900518070495e-01   1.1758164388238471e-01   1.1758164388238471e-01   2.1994440881374122e-01   1.1758164388238471e-01   1.1758164388238471e-01   1.1758164388238471e-01   1.1758164388238471e-01   2.1994440881373239e-01   1.1758164388239083e-01   1.1758164388239083e-01   1.1758164388239083e-01   2.6039783206699185e-01   1.1758164388238419e-01   1.1758164388238471e-01   2.6039783206698025e-01   1.1758164388238330e-01   2.6039783206698025e-01   2.0528322563241372e-01   2.0528322563241289e-01   2.0528322563241111e-01   2.0528322563241808e-01   2.6039783206699185e-01   2.0528322563241808e-01   2.0528322563241808e-01   2.0528322563242404e-01   3.1586584326231143e-01   2.0528322563242321e-01   2.0528322563241627e-01   3.1586584326231060e-01   2.0528322563241808e-01   2.0528322563242321e-01   2.0528322563241808e-01   9.1561677804486152e-02   3.6848901929867250e-01   3.9582206560787775e-01   4.8179080453431590e-15   3.9582206560787186e-01   3.9582206560787775e-01   3.9582206560787186e-01   4.8300743852334960e-01   0.0000000000000000e+00   0.0000000000000000e+00   3.9582206560787775e-01   5.4054578069703746e-15   3.9582206560787259e-01   3.9582206560787775e-01   3.9582206560787259e-01   3.9582206560787259e-01   4.2268019238018290e-03   4.2615687719832673e-01   5.2000851381721980e-01   0.0000000000000000e+00   5.2000851381721980e-01   5.2000851381721980e-01   5.2000851381721724e-01   5.2394741017753488e-01   1.0650084362089883e-01   5.5595068025613381e-01   5.2000851381722080e-01   0.0000000000000000e+00   5.2000851381722080e-01   5.2000851381722080e-01   5.2000851381721724e-01   5.2000851381721724e-01   4.0339149355718418e-02   3.2494019489103826e-01   3.8826075121223819e-01   4.7977788594696479e-15   3.8826075121223708e-01   3.8826075121223819e-01   3.8826075121223708e-01   4.2692825142631408e-01   1.1994447148674082e-15   5.9972235743370557e-15   3.8826075121223735e-01   5.9972235743370557e-15   3.8826075121223735e-01   3.8826075121223735e-01   3.8826075121223819e-01   3.8826075121223819e-01   1.0650084362089883e-01   4.5620268755436855e-01   4.1931320252244564e-01   6.3104928250063188e-15   4.5620268755436855e-01   5.5595068025613381e-01   4.5620268755436855e-01   4.5620268755436855e-01   9.1561677804491662e-02   4.5620268755436766e-01   4.8300743852334960e-01   6.3104928250063188e-15   4.5620268755436855e-01   4.5620268755436855e-01   4.5620268755436766e-01   4.5620268755436766e-01   4.0352901895097187e-01   2.1001166814325195e-01   1.9770604005947504e-01   2.7534275373210881e-01   2.7534275373212069e-01   2.7534275373212069e-01   2.7534275373212069e-01   4.7843797997917348e-01   1.9770604005947504e-01   1.0455101747997233e+00   1.9770604005947504e-01   8.4940880745870928e-01   2.7534275373212308e-01   2.7534275373212308e-01   8.4940880745870317e-01   4.2022347933542231e-01   2.2465816344192269e-01   2.2465816344192269e-01   3.1008658359136987e-01   2.2465816344192269e-01   2.2465816344192269e-01   2.2465816344192269e-01   2.2465816344192269e-01   3.1008658359136987e-01   2.2465816344192269e-01   2.2465816344192269e-01   2.2465816344192269e-01   5.8285215251442524e-01   2.2465816344192269e-01   2.2465816344192269e-01   3.6629826205178323e-01   2.2465816344192269e-01   1.6982744738425759e-01   5.2530997474306607e-01   8.3125772749256699e-02   0.0000000000000000e+00   5.2530997474306607e-01   5.2530997474306607e-01   5.2530997474305996e-01   6.0186536423420034e-01   5.2530997474306229e-01   2.8971919449493377e-01   6.9815561838379170e-01   4.0451394332160993e-15   5.2530997474306873e-01   5.2530997474306873e-01   5.2530997474306629e-01   5.2530997474306629e-01   2.0246092503471330e-01   2.5206362221295348e-01   4.2022347933542231e-01   8.4940880745870317e-01   8.4940880745870928e-01   1.0455101747997233e+00   2.5206362221295348e-01   2.5206362221295348e-01   4.4879865794162116e-01   2.0246092503470983e-01   2.0246092503469679e-01   6.0186536423420034e-01   2.5206362221295348e-01   2.5206362221295348e-01   2.5206362221295348e-01   4.4879865794162116e-01   2.7964358160249536e-01   3.6408625080109414e-01   2.7964358160249536e-01   2.7964358160249536e-01   3.6408625080109691e-01   4.7708850766706939e-01   3.6408625080109414e-01   3.6408625080109414e-01   2.7964358160248765e-01   2.7964358160248765e-01   2.7964358160249536e-01   4.2692825142631408e-01   3.6408625080109297e-01   3.6408625080109297e-01   3.6408625080109375e-01   3.6408625080109375e-01   2.4490910532171256e-01   2.8971919449492800e-01   4.3018995590500519e-01   8.7766591648968985e-15   4.3018995590500519e-01   6.9815561838379170e-01   4.3018995590501363e-01   4.3018995590501363e-01   4.3018995590501308e-01   5.2394741017753488e-01   4.2268019238106058e-03   5.7551863376373336e-16   4.3018995590500059e-01   4.3018995590500059e-01   4.3018995590500519e-01   4.3018995590501308e-01   5.0116406411395739e-02   2.2876404137604320e-01   1.9437947501505973e-01   3.6629826205178323e-01   2.2876404137604320e-01   5.8285215251442524e-01   2.2876404137604320e-01   2.2876404137604320e-01   1.7916114806573805e-01   5.0116406411395739e-02   5.0116406411395739e-02   4.0788067407137280e-01   2.2876404137603992e-01   2.2876404137604836e-01   2.2876404137604320e-01   2.2876404137604320e-01   4.0788067407137313e-01   8.8553590848350016e-15   2.2876404137604836e-01   8.8553590848350016e-15   4.0788067407137280e-01   4.0788067407137313e-01   4.0788067407137280e-01   4.0788067407137280e-01   4.7708850766706939e-01   4.0788067407137280e-01   1.1813218744980873e-01   9.4176041060943622e-15   4.0788067407137280e-01   4.0788067407137280e-01   4.0788067407137657e-01   4.0788067407137657e-01   6.9320221401999699e-02   6.9320221401999699e-02   6.9320221402000531e-02   6.9320221401999699e-02   6.9320221401999935e-02   6.9320221401999935e-02   6.9320221402000531e-02   6.9320221401999935e-02   6.9320221401999699e-02   6.9320221401999699e-02   6.9320221401999699e-02   6.9320221401999699e-02   6.9320221401999699e-02   6.9320221401999699e-02   6.9320221401999699e-02   6.9320221401999699e-02   1.1758164388238783e-01   1.1758164388238783e-01   1.1758164388238783e-01   1.1758164388238783e-01   1.1758164388238783e-01   1.1758164388238783e-01   1.1758164388238783e-01   1.1758164388238783e-01   1.1758164388238783e-01   2.6039783206699074e-01   1.1758164388238783e-01   1.1758164388238783e-01   2.6039783206