<?xml version="1.0"?>
<VTKFile type="UnstructuredGrid"  version="0.1"  >
<UnstructuredGrid>
<Piece  NumberOfPoints="24975" NumberOfCells="48464">
<Points>
<DataArray  type="Float64"  NumberOfComponents="3"  format="ascii">3 0.3819660112504897 0  2.843408347405157 0.3736333896206288 0  3 0.5986121811345446 0  2.675884240244967 0.3517684804899346 0  2.862309893853584 0.5869296815607524 0  3 0.7928932188140729 0  2.492225278930009 0.3229670385733456 0  2.705578223215987 0.5583673348239806 0  2.88819660112527 0.77639320225054 0  3 0.9409830056258242 0  2.292893218813648 0.2928932188136479 0  2.524397193004713 0.5243971930047131 0  2.741180954897836 0.7411809548978358 0  2.920540688701558 0.9205406887015585 0  3 1 0  2.322967038573346 0.4922252789300092 0  2.558367334823981 0.7055782232159871 0  2.77639320225054 0.88819660112527 0  2.940983005625824 1 0  3 1.059016994374176 0  3.079459311298442 1.079459311298441 0  3.059016994374176 1 0  2.351768480489935 0.6758842402449674 0  2.586929681560752 0.8623098938535841 0  2.792893218814073 1 0  2.920540688701558 1.079459311298441 0  3 1.207106781185927 0  3.11180339887473 1.22360679774946 0  3.258819045102164 1.258819045102164 0  3.22360679774946 1.11180339887473 0  3.207106781185927 1 0  2.373633389620628 0.843408347405157 0  2.598612181134545 1 0  2.77639320225054 1.11180339887473 0  2.88819660112527 1.22360679774946 0  3 1.401387818865455 0  3.137690106146416 1.413070318439248 0  3.294421776784013 1.441632665176019 0  3.475602806995287 1.475602806995287 0  3.441632665176019 1.294421776784013 0  3.413070318439248 1.137690106146416 0  3.401387818865455 1 0  2.38196601125049 1 0  2.586929681560752 1.137690106146416 0  2.741180954897836 1.258819045102164 0  2.862309893853584 1.413070318439248 0  3 1.61803398874951 0  3.156591652594843 1.626366610379372 0  3.324115759755033 1.648231519510065 0  3.507774721069991 1.677032961426654 0  3.707106781186353 1.707106781186352 0  3.677032961426654 1.507774721069991 0  3.648231519510065 1.324115759755033 0  3.626366610379372 1.156591652594843 0  3.61803398874951 1 0  2.373633389620628 1.156591652594843 0  2.558367334823981 1.294421776784013 0  2.705578223215987 1.441632665176019 0  2.843408347405157 1.626366610379372 0  2.351768480489935 1.324115759755033 0  2.524397193004713 1.475602806995287 0  2.675884240244967 1.648231519510065 0  2.322967038573346 1.507774721069991 0  2.492225278930009 1.677032961426654 0  2.292893218813647 1.707106781186352 0  2 4.61803398874951 0  1.843408347405157 4.626366610379371 0  2 4.401387818865455 0  1.675884240244967 4.648231519510065 0  1.862309893853584 4.413070318439248 0  2 4.207106781185927 0  1.492225278930009 4.677032961426654 0  1.705578223215987 4.441632665176019 0  1.88819660112527 4.22360679774946 0  2 4.059016994374176 0  1.292893218813648 4.707106781186353 0  1.524397193004713 4.475602806995287 0  1.741180954897836 4.258819045102165 0  1.920540688701559 4.079459311298441 0  2 4 0  1.322967038573346 4.507774721069991 0  1.558367334823981 4.294421776784013 0  1.77639320225054 4.11180339887473 0  1.940983005625824 4 0  2 3.940983005625824 0  2.079459311298442 3.920540688701558 0  2.059016994374176 4 0  1.351768480489935 4.324115759755033 0  1.586929681560752 4.137690106146416 0  1.792893218814073 4 0  1.920540688701559 3.920540688701558 0  2 3.792893218814073 0  2.11180339887473 3.77639320225054 0  2.258819045102164 3.741180954897836 0  2.22360679774946 3.88819660112527 0  2.207106781185927 4 0  1.373633389620628 4.156591652594843 0  1.598612181134545 4 0  1.77639320225054 3.88819660112527 0  1.88819660112527 3.77639320225054 0  2 3.598612181134545 0  2.137690106146416 3.586929681560752 0  2.294421776784013 3.558367334823981 0  2.475602806995287 3.524397193004713 0  2.441632665176019 3.705578223215987 0  2.413070318439248 3.862309893853584 0  2.401387818865455 4 0  1.38196601125049 4 0  1.586929681560752 3.862309893853584 0  1.741180954897836 3.741180954897836 0  1.862309893853584 3.586929681560752 0  2 3.38196601125049 0  2.156591652594843 3.373633389620628 0  2.324115759755033 3.351768480489935 0  2.507774721069991 3.322967038573346 0  2.707106781186353 3.292893218813647 0  2.677032961426654 3.492225278930009 0  2.648231519510065 3.675884240244967 0  2.626366610379372 3.843408347405157 0  2.61803398874951 4 0  1.373633389620628 3.843408347405157 0  1.558367334823981 3.705578223215987 0  1.705578223215987 3.558367334823981 0  1.843408347405157 3.373633389620628 0  1.351768480489935 3.675884240244967 0  1.524397193004713 3.524397193004713 0  1.675884240244967 3.351768480489935 0  1.322967038573346 3.492225278930009 0  1.492225278930009 3.322967038573346 0  1.292893218813648 3.292893218813647 0  -6 5.61803398874951 0  -5.843408347405157 5.626366610379371 0  -6 5.401387818865455 0  -5.675884240244967 5.648231519510065 0  -5.862309893853584 5.413070318439248 0  -6 5.207106781185927 0  -5.492225278930009 5.677032961426654 0  -5.705578223215987 5.441632665176019 0  -5.88819660112527 5.22360679774946 0  -6 5.059016994374176 0  -5.292893218813647 5.707106781186353 0  -5.524397193004713 5.475602806995287 0  -5.741180954897835 5.258819045102165 0  -5.920540688701559 5.079459311298441 0  -6 5 0  -5.322967038573346 5.507774721069991 0  -5.558367334823981 5.294421776784013 0  -5.77639320225054 5.11180339887473 0  -5.940983005625824 5 0  -6 4.940983005625824 0  -6.079459311298441 4.920540688701559 0  -6.059016994374176 5 0  -5.351768480489935 5.324115759755033 0  -5.586929681560752 5.137690106146416 0  -5.792893218814073 5 0  -5.920540688701559 4.920540688701559 0  -6 4.792893218814073 0  -6.11180339887473 4.77639320225054 0  -6.258819045102165 4.741180954897835 0  -6.22360679774946 4.88819660112527 0  -6.207106781185927 5 0  -5.373633389620628 5.156591652594843 0  -5.598612181134545 5 0  -5.77639320225054 4.88819660112527 0  -5.88819660112527 4.77639320225054 0  -6 4.598612181134545 0  -6.137690106146416 4.586929681560752 0  -6.294421776784013 4.558367334823981 0  -6.475602806995287 4.524397193004713 0  -6.441632665176019 4.705578223215987 0  -6.413070318439248 4.862309893853584 0  -6.401387818865455 5 0  -5.38196601125049 5 0  -5.586929681560752 4.862309893853584 0  -5.741180954897835 4.741180954897835 0  -5.862309893853584 4.586929681560752 0  -6 4.38196601125049 0  -6.156591652594843 4.373633389620628 0  -6.324115759755033 4.351768480489935 0  -6.507774721069991 4.322967038573346 0  -6.707106781186353 4.292893218813647 0  -6.677032961426654 4.492225278930009 0  -6.648231519510065 4.675884240244967 0  -6.626366610379372 4.843408347405157 0  -6.61803398874951 5 0  -5.373633389620628 4.843408347405157 0  -5.558367334823981 4.705578223215987 0  -5.705578223215987 4.558367334823981 0  -5.843408347405157 4.373633389620628 0  -5.351768480489935 4.675884240244967 0  -5.524397193004713 4.524397193004713 0  -5.675884240244967 4.351768480489935 0  -5.322967038573346 4.492225278930009 0  -5.492225278930009 4.322967038573346 0  -5.292893218813647 4.292893218813647 0  -5 2.38196601125049 0  -4.843408347405157 2.373633389620629 0  -5 2.598612181134545 0  -4.675884240244967 2.351768480489935 0  -4.862309893853584 2.586929681560752 0  -5 2.792893218814073 0  -4.492225278930009 2.322967038573346 0  -4.705578223215987 2.558367334823981 0  -4.88819660112527 2.77639320225054 0  -5 2.940983005625824 0  -4.292893218813647 2.292893218813648 0  -4.524397193004713 2.524397193004713 0  -4.741180954897835 2.741180954897836 0  -4.920540688701559 2.920540688701558 0  -5 3 0  -4.322967038573346 2.492225278930009 0  -4.558367334823981 2.705578223215987 0  -4.77639320225054 2.88819660112527 0  -4.940983005625824 3 0  -5 3.059016994374176 0  -5.079459311298441 3.079459311298442 0  -5.059016994374176 3 0  -4.351768480489935 2.675884240244967 0  -4.586929681560752 2.862309893853584 0  -4.792893218814073 3 0  -4.920540688701559 3.079459311298442 0  -5 3.207106781185927 0  -5.11180339887473 3.22360679774946 0  -5.258819045102165 3.258819045102164 0  -5.22360679774946 3.11180339887473 0  -5.207106781185927 3 0  -4.373633389620628 2.843408347405157 0  -4.598612181134545 3 0  -4.77639320225054 3.11180339887473 0  -4.88819660112527 3.22360679774946 0  -5 3.401387818865455 0  -5.137690106146416 3.413070318439248 0  -5.294421776784013 3.441632665176019 0  -5.475602806995287 3.475602806995287 0  -5.441632665176019 3.294421776784013 0  -5.413070318439248 3.137690106146416 0  -5.401387818865455 3 0  -4.38196601125049 3 0  -4.586929681560752 3.137690106146416 0  -4.741180954897835 3.258819045102164 0  -4.862309893853584 3.413070318439248 0  -5 3.61803398874951 0  -5.156591652594843 3.626366610379372 0  -5.324115759755033 3.648231519510065 0  -5.507774721069991 3.677032961426654 0  -5.707106781186353 3.707106781186353 0  -5.677032961426654 3.507774721069991 0  -5.648231519510065 3.324115759755033 0  -5.626366610379372 3.156591652594843 0  -5.61803398874951 3 0  -4.373633389620628 3.156591652594843 0  -4.558367334823981 3.294421776784013 0  -4.705578223215987 3.441632665176019 0  -4.843408347405157 3.626366610379372 0  -4.351768480489935 3.324115759755033 0  -4.524397193004713 3.475602806995287 0  -4.675884240244967 3.648231519510065 0  -4.322967038573346 3.507774721069991 0  -4.492225278930009 3.677032961426654 0  -4.292893218813647 3.707106781186353 0  5 1 0  5 1.1875 0  4.827254248593689 1 0  5 1.375 0  4.774625127436217 1.190725542188815 0  4.654508497187377 1 0  4.795685564948176 1.503494320171386 0  5 1.5625 0  4.633229176833026 1.366257369669115 0  4.535571696635581 1.176836689821396 0  4.481762745781066 1 0  4.856267205581102 1.661206773798245 0  5 1.75 0  4.689409473820198 1.687699236167515 0  4.60784560155642 1.536324222026939 0  4.458027710481697 1.451934295621926 0  4.353363905980899 1.28736948322329 0  4.309016994374755 1 0  4.813772758633532 1.87305606464568 0  5 1.9375 0  4.658258320854826 1.842998343199929 0  4.530548399033449 1.675635120559427 0  4.377973042682878 1.629775066020617 0  4.241466707589882 1.467498817908458 0  4.06836
[...]
<CellData  Scalars="f_7217"> 
<DataArray  type="Float64"  Name="f_7217"  format="ascii">0.0000000000000000e+00   0.0000000000000000e+00   0.0000000000000000e+00   0.0000000000000000e+00   0.0000000000000000e+00   0.0000000000000000e+00   0.0000000000000000e+00   0.0000000000000000e+00   0.0000000000000000e+00   0.0000000000000000e+00   0.0000000000000000e+00   0.0000000000000000e+00   0.0000000000000000e+00   0.0000000000000000e+00   0.0000000000000000e+00   0.0000000000000000e+00   4.1343271293996287e-02   3.2629235318702586e-15   4.1343271293996287e-02   3.2629235318702586e-15   0.0000000000000000e+00   3.2629235318702586e-15   0.0000000000000000e+00   3.2629235318702586e-15   4.1343271293996287e-02   4.1343271293996287e-02   3.2629235318702586e-15   3.2629235318702586e-15   0.0000000000000000e+00   0.0000000000000000e+00   3.2629235318702586e-15   3.2629235318702586e-15   4.1343271293999187e-02   4.1343271293999187e-02   0.0000000000000000e+00   0.0000000000000000e+00   4.1343271293999187e-02   4.1343271293999187e-02   0.0000000000000000e+00   0.0000000000000000e+00   0.0000000000000000e+00   0.0000000000000000e+00   5.0756588273537294e-15   5.0756588273537294e-15   5.0756588273537294e-15   0.0000000000000000e+00   0.0000000000000000e+00   0.0000000000000000e+00   4.1343271293999187e-02   4.1343271293996287e-02   4.1343271293999187e-02   0.0000000000000000e+00   4.1343271293996287e-02   0.0000000000000000e+00   4.1343271293996287e-02   0.0000000000000000e+00   4.1343271293999187e-02   0.0000000000000000e+00   4.1343271293999187e-02   0.0000000000000000e+00   0.0000000000000000e+00   0.0000000000000000e+00   0.0000000000000000e+00   0.0000000000000000e+00   1.3510961791489287e-01   1.3510961791489287e-01   1.9048020784896394e-01   2.0347707930483958e-01   1.3510961791489287e-01   1.3510961791489287e-01   2.0347707930482850e-01   1.9048020784895692e-01   1.3510961791489193e-01   1.3510961791489287e-01   1.3510961791489193e-01   1.3510961791489193e-01   1.3510961791489773e-01   1.3510961791489773e-01   1.3510961791489381e-01   1.3510961791489381e-01   1.6107947586471463e-01   4.1523094414801698e-01   5.9661273172970888e-02   2.8303722277541318e-15   1.6107947586472013e-01   4.1523094414801698e-01   2.8303722277541318e-15   2.6888536163664326e-15   5.9661273172973581e-02   5.9661273172970888e-02   9.9063027971394534e-15   9.9063027971394534e-15   4.3870769530188887e-15   2.8303722277541318e-15   2.8303722277541318e-15   2.8303722277541318e-15   3.5398804340817584e-03   3.9739254867000997e-15   3.5398804340850219e-03   3.9739254867000997e-15   6.2619431911637871e-15   8.5499608956274872e-15   6.2619431911637871e-15   8.5499608956274872e-15   3.5398804340810476e-03   3.5398804340777850e-03   6.2619431911637871e-15   6.2619431911637871e-15   6.2619431911637871e-15   6.2619431911637871e-15   3.9739254867000997e-15   3.9739254867000997e-15   2.5847347977216156e-01   4.1523094414801698e-01   2.5847347977216628e-01   2.5847347977216628e-01   4.1523094414801698e-01   2.5847347977216156e-01   2.5847347977216156e-01   2.5847347977216018e-01   2.5847347977215768e-01   2.5847347977215768e-01   2.5847347977216234e-01   2.5847347977216234e-01   2.5847347977216689e-01   2.5847347977216689e-01   2.5847347977216073e-01   2.5847347977216018e-01   1.3510961791489146e-01   1.3510961791489196e-01   1.3510961791489146e-01   1.3510961791489146e-01   1.3510961791489448e-01   1.3510961791489448e-01   1.3510961791489448e-01   1.3510961791489448e-01   1.3510961791489751e-01   1.3510961791489495e-01   1.9048020784896458e-01   2.0347707930483189e-01   1.3510961791489751e-01   1.3510961791489448e-01   2.0347707930482734e-01   1.9048020784896025e-01   3.5398804340792400e-03   3.5398804340787404e-03   4.5760354089273931e-15   4.5760354089273931e-15   3.5398804340838162e-03   3.5398804340838162e-03   0.0000000000000000e+00   0.0000000000000000e+00   0.0000000000000000e+00   0.0000000000000000e+00   3.1309715955818983e-15   3.1309715955818983e-15   3.1309715955818983e-15   0.0000000000000000e+00   0.0000000000000000e+00   0.0000000000000000e+00   1.6107947586471777e-01   5.9661273172964532e-02   4.1523094414801842e-01   3.5379652846926533e-15   5.9661273172964532e-02   5.9661273172973581e-02   0.0000000000000000e+00   9.0571911288132177e-15   1.6107947586471322e-01   4.1523094414802370e-01   3.5379652846926533e-15   5.5192258441205640e-15   0.0000000000000000e+00   0.0000000000000000e+00   3.5379652846926533e-15   3.5379652846926533e-15   2.5847347977215818e-01   2.5847347977215818e-01   2.5847347977215562e-01   2.5847347977216228e-01   2.5847347977216012e-01   2.5847347977216012e-01   2.5847347977216317e-01   2.5847347977216317e-01   2.5847347977216717e-01   4.1523094414802370e-01   2.5847347977216717e-01   2.5847347977216373e-01   4.1523094414801842e-01   2.5847347977216267e-01   2.5847347977216717e-01   2.5847347977216267e-01   9.8131400258236592e-02   3.5398804340810476e-03   9.8131400258236592e-02   3.2629235318702586e-15   3.5398804340850219e-03   0.0000000000000000e+00   3.5398804340817584e-03   3.2629235318702586e-15   9.8131400258236592e-02   3.2629235318702586e-15   9.8131400258236592e-02   3.2629235318702586e-15   0.0000000000000000e+00   0.0000000000000000e+00   3.2629235318702586e-15   3.2629235318702586e-15   5.9661273172973581e-02   5.9661273172973581e-02   5.9661273172964532e-02   0.0000000000000000e+00   5.9661273172970888e-02   0.0000000000000000e+00   5.9661273172968064e-02   0.0000000000000000e+00   5.9661273172964532e-02   0.0000000000000000e+00   5.9661273172968064e-02   0.0000000000000000e+00   0.0000000000000000e+00   0.0000000000000000e+00   0.0000000000000000e+00   0.0000000000000000e+00   9.8131400258233706e-02   9.8131400258233706e-02   3.5398804340838162e-03   0.0000000000000000e+00   9.8131400258233706e-02   0.0000000000000000e+00   9.8131400258233706e-02   0.0000000000000000e+00   3.5398804340787404e-03   5.0756588273537294e-15   3.5398804340792400e-03   5.0756588273537294e-15   5.0756588273537294e-15   0.0000000000000000e+00   5.0756588273537294e-15   0.0000000000000000e+00   9.8131400258236592e-02   9.8131400258236592e-02   9.8131400258233706e-02   0.0000000000000000e+00   9.8131400258236592e-02   9.8131400258236592e-02   0.0000000000000000e+00   0.0000000000000000e+00   9.8131400258233706e-02   9.8131400258233706e-02   0.0000000000000000e+00   0.0000000000000000e+00   0.0000000000000000e+00   0.0000000000000000e+00   0.0000000000000000e+00   0.0000000000000000e+00   5.6639919332807959e-02   2.9524642248320693e-01   0.0000000000000000e+00   0.0000000000000000e+00   2.9524642248320693e-01   5.6639919332804718e-02   0.0000000000000000e+00   0.0000000000000000e+00   5.6639919332812351e-02   2.9524642248320970e-01   0.0000000000000000e+00   0.0000000000000000e+00   2.9524642248320970e-01   5.6639919332812351e-02   0.0000000000000000e+00   0.0000000000000000e+00   2.1364994132323081e-01   2.1364994132323081e-01   2.1364994132323081e-01   2.1364994132322654e-01   2.1364994132322590e-01   2.1364994132322590e-01   2.1364994132323081e-01   2.1364994132322590e-01   5.7219651649041114e-01   7.6254133549214032e-01   2.1364994132322984e-01   2.1364994132322160e-01   7.6254133549214365e-01   5.7219651649041114e-01   2.1364994132322984e-01   2.1364994132322856e-01   5.7219651649042269e-01   7.6254133549215031e-01   2.1364994132323362e-01   2.1364994132323506e-01   7.6254133549215763e-01   5.7219651649041858e-01   2.1364994132324347e-01   2.1364994132324347e-01   2.1364994132323506e-01   2.1364994132323506e-01   2.1364994132323506e-01   2.1364994132323506e-01   2.1364994132323506e-01   2.1364994132323506e-01   2.1364994132323506e-01   2.1364994132323506e-01   5.7219651649041858e-01   7.6254133549215763e-01   7.6254133549214365e-01   7.4823956842851061e-15   5.7219651649042269e-01   7.6254133549215031e-01   0.0000000000000000e+00   0.0000000000000000e+00   5.7219651649041114e-01   7.6254133549214032e-01   7.4823956842851061e-15   7.4823956842851061e-15   0.0000000000000000e+00   0.0000000000000000e+00   7.4823956842851061e-15   7.4823956842851061e-15   7.6773433032693905e-02   7.6773433032693905e-02   7.6773433032693905e-02   7.6773433032691005e-02   7.6773433032690880e-02   7.6773433032690880e-02   7.6773433032693905e-02   7.6773433032690880e-02   7.6773433032687854e-02   2.3756544835800089e-01   7.6773433032687854e-02   7.6773433032687965e-02   2.3756544835800089e-01   7.6773433032686952e-02   7.6773433032690880e-02   7.6773433032690880e-02   2.1461572874810400e-01   2.1461572874810053e-01   2.7728328463834634e-01   3.5379652846926734e-15   2.1461572874810400e-01   9.0571911288132177e-15   2.1461572874810053e-01   5.5192258441205450e-15   6.8389132021933752e-02   9.0571911288132177e-15   2.7728328463834540e-01   5.5192258441205640e-15   9.0571911288132177e-15   3.5379652846926734e-15   3.5379652846926734e-15   3.5379652846926734e-15   1.2742758903853041e-01   1.2742758903853041e-01   1.2742758903853377e-01   1.2742758903852797e-01   1.2742758903853377e-01   1.2742758903853377e-01   1.2742758903853468e-01   1.2742758903853468e-01   3.3107962721370165e-01   4.5372173611891575e-01   1.2742758903852797e-01   1.2742758903852797e-01   4.5372173611891248e-01   3.3107962721370354e-01   1.2742758903852797e-01   1.2742758903852797e-01   2.0988919337129677e-01   2.0988919337129772e-01   2.3756544835800089e-01   2.0988919337129677e-01   2.0988919337129092e-01   2.0988919337129772e-01   2.0988919337129000e-01   2.3756544835800089e-01   2.0988919337129772e-01   2.0988919337129772e-01   2.0988919337129328e-01   2.7728328463834540e-01   2.0988919337130216e-01   2.0988919337130216e-01   2.7728328463834634e-01   2.0988919337129772e-01   7.6773433032688840e-02   2.3756544835800231e-01   7.6773433032690505e-02   7.6773433032690741e-02   2.3756544835800397e-01   7.6773433032692406e-02   7.6773433032696348e-02   7.6773433032696348e-02   7.6773433032696820e-02   7.6773433032696820e-02   7.6773433032692878e-02   7.6773433032692878e-02   7.6773433032684926e-02   7.6773433032684926e-02   7.6773433032691005e-02   7.6773433032690741e-02   3.3107962721370054e-01   4.5372173611891564e-01   1.2742758903853296e-01   1.2742758903853121e-01   4.5372173611891736e-01   3.3107962721369788e-01   1.2742758903853296e-01   1.2742758903853071e-01   1.2742758903852397e-01   1.2742758903852397e-01   1.2742758903852397e-01   1.2742758903852397e-01   1.2742758903852397e-01   1.2742758903852397e-01   1.2742758903852397e-01   1.2742758903852397e-01   2.1461572874810664e-01   2.7728328463834023e-01   2.1461572874810317e-01   4.3870769530189202e-15   6.8389132021936569e-02   0.0000000000000000e+00   2.7728328463834551e-01   0.0000000000000000e+00   2.1461572874811027e-01   7.2174491807730205e-15   2.1461572874810317e-01   7.2174491807730205e-15   7.2174491807730205e-15   0.0000000000000000e+00   7.2174491807730205e-15   0.0000000000000000e+00   2.0988919337129602e-01   2.0988919337130307e-01   2.0988919337129602e-01   2.7728328463834551e-01   2.0988919337129777e-01   2.0988919337130307e-01   2.7728328463834023e-01   2.0988919337129280e-01   2.0988919337129811e-01   2.0988919337129811e-01   2.3756544835800397e-01   2.0988919337129811e-01   2.0988919337129811e-01   2.0988919337129811e-01   2.0988919337129811e-01   2.3756544835800231e-01   3.3107962721370354e-01   5.0282948740783533e-02   4.5372173611891248e-01   1.2921724704364994e-15   5.0282948740787571e-02   5.0282948740780785e-02   0.0000000000000000e+00   1.2921724704364994e-15   3.3107962721370165e-01   4.5372173611891575e-01   1.2921724704365012e-15   1.2921724704365012e-15   1.2921724704364994e-15   0.0000000000000000e+00   1.2921724704365012e-15   1.2921724704364994e-15   2.1461572874810317e-01   2.1461572874811027e-01   2.1461572874810400e-01   0.0000000000000000e+00   2.1461572874810317e-01   2.1461572874810664e-01   4.0374584888725610e-15   7.8993753043159261e-15   2.1461572874810053e-01   2.1461572874810400e-01   0.0000000000000000e+00   0.0000000000000000e+00   4.0374584888725610e-15   0.0000000000000000e+00   0.0000000000000000e+00   0.0000000000000000e+00   3.3107962721369788e-01   4.5372173611891736e-01   5.0282948740772666e-02   9.9681876290815738e-15   3.3107962721370054e-01   4.5372173611891564e-01   3.1381331424886540e-15   0.0000000000000000e+00   5.0282948740771952e-02   5.0282948740772666e-02   9.9681876290815738e-15   9.9681876290815738e-15   3.1381331424886540e-15   3.1381331424886540e-15   9.9681876290815423e-15   9.9681876290815423e-15   5.0282948740780785e-02   5.0282948740771952e-02   5.0282948740787571e-02   8.0749169777451378e-15   5.0282948740772666e-02   8.0749169777451378e-15   5.0282948740771952e-02   8.0749169777451378e-15   5.0282948740783533e-02   0.0000000000000000e+00   5.0282948740783533e-02   0.0000000000000000e+00   4.0374584888725610e-15   7.8993753043159261e-15   4.0374584888725610e-15   7.8993753043159261e-15   5.0509840976671744e-02   5.0509840976671695e-02   5.0509840976677073e-02   5.3938837682909524e-02   5.0509840976672750e-02   5.0509840976672750e-02   5.3938837682920897e-02   5.0509840976666484e-02   5.0509840976671549e-02   5.0509840976671695e-02   5.0509840976672611e-02   5.0509840976672611e-02   5.0509840976677010e-02   5.0509840976677010e-02   5.0509840976670738e-02   5.0509840976670738e-02   2.1288767338738548e-01   2.1288767338738532e-01   2.4746795856501544e-01   2.1288767338739001e-01   2.1288767338738643e-01   2.1288767338738643e-01   2.1288767338738093e-01   2.4746795856501741e-01   2.1288767338738634e-01   2.1288767338738532e-01   2.1288767338738634e-01   2.1288767338738634e-01   2.1288767338739095e-01   2.1288767338739095e-01   2.1288767338738634e-01   2.1288767338738634e-01   7.9989866738061327e-02   7.9989866738061327e-02   7.9989866738055151e-02   8.5155287053128623e-02   7.9989866738061327e-02   7.9989866738061327e-02   8.5155287053122433e-02   7.9989866738067267e-02   7.9989866738067267e-02   7.9989866738067267e-02   7.9989866738061077e-02   1.8065309901813448e-01   7.9989866738059870e-02   7.9989866738062229e-02   1.8065309901813412e-01   7.9989866738059870e-02   1.8065309901813412e-01   1.5785412819744013e-01   1.5785412819744013e-01   1.5785412819743899e-01   1.5785412819743933e-01   1.8065309901813448e-01   1.5785412819744560e-01   1.5785412819744560e-01   1.5785412819744560e-01   2.4746795856501741e-01   1.5785412819743899e-01   1.5785412819743899e-01   2.4746795856501544e-01   1.5785412819743275e-01   1.5785412819743899e-01   1.5785412819743899e-01   6.5703551208852087e-02   2.8115466264659944e-01   3.1056177011615399e-01   0.0000000000000000e+00   3.1056177011615399e-01   3.1056177011615399e-01   3.1056177011615399e-01   3.7435563857866122e-01   5.3334703771960974e-15   0.0000000000000000e+00   3.1056177011615016e-01   0.0000000000000000e+00   3.1056177011614500e-01   3.1056177011615016e-01   3.1056177011614877e-01   3.1056177011614877e-01   1.1130619073766772e-01   3.0938514886776641e-01   3.8221490830937804e-01   0.0000000000000000e+00   3.8221490830937649e-01   3.8221490830937804e-01   3.8221490830938137e-01   4.8832738504153672e-01   7.3814009622450008e-02   4.1642454543714363e-01   3.8221490830937904e-01   0.0000000000000000e+00   3.8221490830937904e-01   3.8221490830937904e-01   3.8221490830937904e-01   3.8221490830937904e-01   7.2624632113351129e-02   2.4247213803078588e-01   2.9844084056146908e-01   5.6645007505512405e-15   2.9844084056146908e-01   2.9844084056146908e-01   2.9844084056146908e-01   3.6906567589306594e-01   5.6645007505512405e-15   5.6645007505512405e-15   2.9844084056146908e-01   5.6645007505512405e-15   2.9844084056146908e-01   2.9844084056146908e-01   2.9844084056146908e-01   2.9844084056146908e-01   7.3814009622450008e-02   3.4526371182199711e-01   3.1059156426650397e-01   0.0000000000000000e+00   3.4526371182199711e-01   4.1642454543714363e-01   3.4526371182199711e-01   3.4526371182199711e-01   6.5703551208852087e-02   3.4526371182199711e-01   3.7435563857866122e-01   0.0000000000000000e+00   3.4526371182199711e-01   3.4526371182199711e-01   3.4526371182199711e-01   3.4526371182199711e-01   2.3960822929428102e-01   2.3960822929428102e-01   2.9524642248320970e-01   2.3960822929428102e-01   2.3960822929428102e-01   2.3960822929428102e-01   2.3960822929428102e-01   2.9524642248320970e-01   2.3960822929429404e-01   2.3960822929428929e-01   2.7188505495910126e-01   7.7023523435012964e-01   2.3960822929430231e-01   2.3960822929430231e-01   5.0329636108009224e-01   3.6979454663209049e-01   1.4152848527038930e-01   1.4152848527038880e-01   1.4152848527038930e-01   1.4152848527038930e-01   1.4152848527039041e-01   1.4152848527039041e-01   1.4152848527038930e-01   1.4152848527038930e-01   1.4152848527039616e-01   1.4152848527039616e-01   1.4152848527039777e-01   3.5714731353693496e-01   1.4152848527039616e-01   1.4152848527039616e-01   3.5714731353692769e-01   1.4152848527038769e-01   6.8220626651935318e-02   2.2851665114414099e-01   4.6373331838752119e-01   7.7212933292436290e-15   4.6373331838752668e-01   4.6373331838752668e-01   4.6373331838753246e-01   5.2777971186755845e-01   1.6307261218644437e-01   5.7047253137717469e-01   4.6373331838752119e-01   7.7212933292436290e-15   4.6373331838752307e-01   4.6373331838752307e-01   4.6373331838752885e-01   4.6373331838752885e-01   1.0043393917474179e-01   2.9558526753265535e-01   3.6979454663209049e-01   5.0329636108009224e-01   2.9558526753265424e-01   7.7023523435012964e-01   2.9558526753265485e-01   2.9558526753265535e-01   1.9661051224175946e-01   1.0043393917474124e-01   1.0043393917474179e-01   5.2777971186755845e-01   2.9558526753265374e-01   2.9558526753265374e-01   2.9558526753266201e-01   2.9558526753266201e-01   5.3160667002461311e-02   3.1371568001273981e-01   2.6112869263279931e-01   6.4720956688413633e-15   3.1371568001274075e-01   3.6535306815586233e-01   3.1371568001274613e-01   3.1371568001274613e-01   7.2624632113363244e-02   3.1371568001273981e-01   3.6906567589306594e-01   6.4720956688413633e-15   3.1371568001273531e-01   3.1371568001273531e-01   3.1371568001273981e-01   3.1371568001273981e-01   3.0645439537031510e-01   1.6307261218644584e-01   4.1710047134620176e-01   4.4707410986665996e-16   4.1710047134620737e-01   5.7047253137717469e-01   4.1710047134620215e-01   4.1710047134620215e-01   4.1710047134619743e-01   4.8832738504153672e-01   1.1130619073766974e-01   9.8356304170664724e-15   4.1710047134620737e-01   4.1710047134620737e-01   4.1710047134620687e-01   4.1710047134620687e-01   3.5714731353692769e-01   2.4778813084578025e-01   2.4778813084578025e-01   2.4778813084578025e-01   2.4778813084578610e-01   3.5714731353693496e-01   2.4778813084578025e-01   2.4778813084578025e-01   2.4778813084578113e-01   3.8228178127000095e-01   2.4778813084578113e-01   2.4778813084578113e-01   2.4778813084578610e-01   2.4778813084578610e-01   2.4778813084578113e-01   2.4778813084578113e-01   7.1210921964657406e-02   1.7735959621008771e-01   3.1320240825792289e-01   0.0000000000000000e+00   3.1320240825792944e-01   3.1320240825792944e-01   3.1320240825793516e-01   3.8228178127000095e-01   5.3160667002454851e-02   3.6535306815586233e-01   3.1320240825792767e-01   0.0000000000000000e+00   3.1320240825792767e-01   3.1320240825792767e-01   3.1320240825792861e-01   3.1320240825792861e-01   5.0509840976667761e-02   5.0509840976667761e-02   5.0509840976667761e-02   5.0509840976667761e-02   5.0509840976667761e-02   5.0509840976667761e-02   5.0509840976667761e-02   5.0509840976667761e-02   5.0509840976667761e-02   5.0509840976667761e-02   5.0509840976667761e-02   5.0509840976667761e-02   5.0509840976667761e-02   5.0509840976667761e-02   5.0509840976667761e-02   5.0509840976667761e-02   7.9989866738059731e-02   7.9989866738059731e-02   7.9989866738059731e-02   7.9989866738059731e-02   7.9989866738059731e-02   7.9989866738059731e-02   7.9989866738059731e-02   7.9989866738059731e-02   7.9989866738058260e-02   1.8065309901813717e-01   7.9989866738059842e-02   7.9989866738059731e-02   1.8065309901