<?xml version="1.0"?>
<VTKFile type="UnstructuredGrid"  version="0.1"  >
<UnstructuredGrid>
<Piece  NumberOfPoints="4638" NumberOfCells="8620">
<Points>
<DataArray  type="Float64"  NumberOfComponents="3"  format="ascii">3 0.4505813909508334 0  2.858706694155233 0.4348267766209324 0  3 0.7083486900555757 0  2.697160447111943 0.3943208942238857 0  2.895262666184017 0.6857879985520519 0  3 0.9065018226950635 0  2.507383127572992 0.3431775034306555 0  2.753392185228413 0.6300882778426198 0  2.941422924974046 0.8828458499480929 0  3 0.990182154601809 0  2.292893218813706 0.292893218813706 0  2.565213330712254 0.565213330712254 0  2.822205042701531 0.8222050427015308 0  2.978182683361986 0.9781826833619861 0  3 1 0  2.343177503430655 0.5073831275729916 0  2.63008827784262 0.7533921852284131 0  2.882845849948093 0.9414229249740464 0  2.990182154601809 1 0  3 1.009817845398191 0  3.021817316638014 1.021817316638014 0  3.009817845398191 1 0  2.394320894223886 0.6971604471119428 0  2.685787998552052 0.8952626661840173 0  2.906501822695064 1 0  2.978182683361986 1.021817316638014 0  3 1.093498177304937 0  3.058577075025954 1.117154150051907 0  3.177794957298469 1.177794957298469 0  3.117154150051907 1.058577075025954 0  3.093498177304936 1 0  2.434826776620932 0.858706694155233 0  2.708348690055576 1 0  2.882845849948093 1.058577075025954 0  2.941422924974046 1.117154150051907 0  3 1.291651309944424 0  3.104737333815983 1.314212001447948 0  3.246607814771587 1.36991172215738 0  3.434786669287746 1.434786669287746 0  3.36991172215738 1.246607814771587 0  3.314212001447948 1.104737333815983 0  3.291651309944424 1 0  2.450581390950833 1 0  2.685787998552052 1.104737333815983 0  2.822205042701531 1.177794957298469 0  2.895262666184017 1.314212001447948 0  3 1.549418609049167 0  3.141293305844767 1.565173223379068 0  3.302839552888057 1.605679105776114 0  3.492616872427008 1.656822496569345 0  3.707106781186294 1.707106781186294 0  3.656822496569345 1.492616872427008 0  3.605679105776114 1.302839552888057 0  3.565173223379068 1.141293305844767 0  3.549418609049167 1 0  2.434826776620932 1.141293305844767 0  2.63008827784262 1.246607814771587 0  2.753392185228413 1.36991172215738 0  2.858706694155233 1.565173223379068 0  2.394320894223886 1.302839552888057 0  2.565213330712254 1.434786669287746 0  2.697160447111943 1.605679105776114 0  2.343177503430655 1.492616872427008 0  2.507383127572992 1.656822496569345 0  2.292893218813706 1.707106781186294 0  2 4.549418609049167 0  1.858706694155233 4.565173223379068 0  2 4.291651309944425 0  1.697160447111943 4.605679105776114 0  1.895262666184017 4.314212001447948 0  2 4.093498177304936 0  1.507383127572992 4.656822496569345 0  1.753392185228413 4.36991172215738 0  1.941422924974046 4.117154150051907 0  2 4.009817845398191 0  1.292893218813706 4.707106781186294 0  1.565213330712254 4.434786669287746 0  1.822205042701531 4.177794957298469 0  1.978182683361986 4.021817316638014 0  2 4 0  1.343177503430655 4.492616872427009 0  1.63008827784262 4.246607814771587 0  1.882845849948093 4.058577075025953 0  1.990182154601809 4 0  2 3.990182154601809 0  2.021817316638014 3.978182683361986 0  2.009817845398191 4 0  1.394320894223886 4.302839552888058 0  1.685787998552052 4.104737333815983 0  1.906501822695063 4 0  1.978182683361986 3.978182683361986 0  2 3.906501822695064 0  2.058577075025954 3.882845849948093 0  2.177794957298469 3.822205042701531 0  2.117154150051907 3.941422924974046 0  2.093498177304936 4 0  1.434826776620932 4.141293305844767 0  1.708348690055576 4 0  1.882845849948093 3.941422924974046 0  1.941422924974046 3.882845849948093 0  2 3.708348690055576 0  2.104737333815983 3.685787998552052 0  2.246607814771587 3.63008827784262 0  2.434786669287746 3.565213330712254 0  2.36991172215738 3.753392185228413 0  2.314212001447948 3.895262666184017 0  2.291651309944424 4 0  1.450581390950833 4 0  1.685787998552052 3.895262666184017 0  1.822205042701531 3.822205042701531 0  1.895262666184017 3.685787998552052 0  2 3.450581390950833 0  2.141293305844767 3.434826776620932 0  2.302839552888057 3.394320894223886 0  2.492616872427008 3.343177503430655 0  2.707106781186294 3.292893218813706 0  2.656822496569345 3.507383127572992 0  2.605679105776114 3.697160447111943 0  2.565173223379068 3.858706694155233 0  2.549418609049167 4 0  1.434826776620932 3.858706694155233 0  1.63008827784262 3.753392185228413 0  1.753392185228413 3.63008827784262 0  1.858706694155233 3.434826776620932 0  1.394320894223886 3.697160447111943 0  1.565213330712254 3.565213330712254 0  1.697160447111943 3.394320894223886 0  1.343177503430655 3.507383127572992 0  1.507383127572992 3.343177503430655 0  1.292893218813706 3.292893218813706 0  -6 5.549418609049167 0  -5.858706694155233 5.565173223379068 0  -6 5.291651309944425 0  -5.697160447111943 5.605679105776114 0  -5.895262666184017 5.314212001447948 0  -6 5.093498177304936 0  -5.507383127572992 5.656822496569345 0  -5.753392185228413 5.36991172215738 0  -5.941422924974047 5.117154150051907 0  -6 5.009817845398191 0  -5.292893218813706 5.707106781186294 0  -5.565213330712254 5.434786669287746 0  -5.822205042701531 5.177794957298469 0  -5.978182683361986 5.021817316638014 0  -6 5 0  -5.343177503430655 5.492616872427009 0  -5.63008827784262 5.246607814771587 0  -5.882845849948093 5.058577075025953 0  -5.990182154601809 5 0  -6 4.990182154601809 0  -6.021817316638014 4.978182683361986 0  -6.009817845398191 5 0  -5.394320894223886 5.302839552888058 0  -5.685787998552052 5.104737333815983 0  -5.906501822695064 5 0  -5.978182683361986 4.978182683361986 0  -6 4.906501822695064 0  -6.058577075025953 4.882845849948093 0  -6.177794957298469 4.822205042701531 0  -6.117154150051907 4.941422924974047 0  -6.093498177304936 5 0  -5.434826776620932 5.141293305844767 0  -5.708348690055575 5 0  -5.882845849948093 4.941422924974047 0  -5.941422924974047 4.882845849948093 0  -6 4.708348690055575 0  -6.104737333815983 4.685787998552052 0  -6.246607814771587 4.63008827784262 0  -6.434786669287746 4.565213330712254 0  -6.36991172215738 4.753392185228413 0  -6.314212001447948 4.895262666184017 0  -6.291651309944425 5 0  -5.450581390950833 5 0  -5.685787998552052 4.895262666184017 0  -5.822205042701531 4.822205042701531 0  -5.895262666184017 4.685787998552052 0  -6 4.450581390950833 0  -6.141293305844767 4.434826776620932 0  -6.302839552888058 4.394320894223886 0  -6.492616872427009 4.343177503430655 0  -6.707106781186294 4.292893218813706 0  -6.656822496569345 4.507383127572991 0  -6.605679105776114 4.697160447111942 0  -6.565173223379068 4.858706694155233 0  -6.549418609049167 5 0  -5.434826776620932 4.858706694155233 0  -5.63008827784262 4.753392185228413 0  -5.753392185228413 4.63008827784262 0  -5.858706694155233 4.434826776620932 0  -5.394320894223886 4.697160447111942 0  -5.565213330712254 4.565213330712254 0  -5.697160447111942 4.394320894223886 0  -5.343177503430655 4.507383127572991 0  -5.507383127572991 4.343177503430655 0  -5.292893218813706 4.292893218813706 0  -5 2.450581390950833 0  -4.858706694155233 2.434826776620932 0  -5 2.708348690055576 0  -4.697160447111943 2.394320894223886 0  -4.895262666184017 2.685787998552052 0  -5 2.906501822695064 0  -4.507383127572992 2.343177503430655 0  -4.753392185228413 2.63008827784262 0  -4.941422924974047 2.882845849948093 0  -5 2.990182154601809 0  -4.292893218813706 2.292893218813706 0  -4.565213330712254 2.565213330712254 0  -4.822205042701531 2.822205042701531 0  -4.978182683361986 2.978182683361986 0  -5 3 0  -4.343177503430655 2.507383127572992 0  -4.63008827784262 2.753392185228413 0  -4.882845849948093 2.941422924974046 0  -4.990182154601809 3 0  -5 3.009817845398191 0  -5.021817316638014 3.021817316638014 0  -5.009817845398191 3 0  -4.394320894223886 2.697160447111943 0  -4.685787998552052 2.895262666184017 0  -4.906501822695064 3 0  -4.978182683361986 3.021817316638014 0  -5 3.093498177304936 0  -5.058577075025953 3.117154150051907 0  -5.177794957298469 3.177794957298469 0  -5.117154150051907 3.058577075025954 0  -5.093498177304936 3 0  -4.434826776620932 2.858706694155233 0  -4.708348690055575 3 0  -4.882845849948093 3.058577075025954 0  -4.941422924974047 3.117154150051907 0  -5 3.291651309944424 0  -5.104737333815983 3.314212001447948 0  -5.246607814771587 3.36991172215738 0  -5.434786669287746 3.434786669287746 0  -5.36991172215738 3.246607814771587 0  -5.314212001447948 3.104737333815983 0  -5.291651309944425 3 0  -4.450581390950833 3 0  -4.685787998552052 3.104737333815983 0  -4.822205042701531 3.177794957298469 0  -4.895262666184017 3.314212001447948 0  -5 3.549418609049167 0  -5.141293305844767 3.565173223379068 0  -5.302839552888058 3.605679105776114 0  -5.492616872427009 3.656822496569345 0  -5.707106781186294 3.707106781186294 0  -5.656822496569345 3.492616872427008 0  -5.605679105776114 3.302839552888057 0  -5.565173223379068 3.141293305844767 0  -5.549418609049167 3 0  -4.434826776620932 3.141293305844767 0  -4.63008827784262 3.246607814771587 0  -4.753392185228413 3.36991172215738 0  -4.858706694155233 3.565173223379068 0  -4.394320894223886 3.302839552888057 0  -4.565213330712254 3.434786669287746 0  -4.697160447111942 3.605679105776114 0  -4.343177503430655 3.492616872427008 0  -4.507383127572991 3.656822496569345 0  -4.292893218813706 3.707106781186294 0  5 1 0  5 1.1875 0  4.825709888222015 1.037854944111007 0  4.786264867164171 1.260115678616865 0  4.651419776444029 1.075709888222014 0  5 1.375 0  4.644818160953175 1.436037744007759 0  4.465641823823532 1.303565771594816 0  4.302839552888058 1.151419776444029 0  5 1.5625 0  4.421294993849391 1.718733939153952 0  4.746742394938785 1.678619710993132 0  5 1.75 0  4.296598959349347 1.448746669899425 0  4.128549441110072 1.189274720555036 0  4.699672700402207 1.9375 0  5 2.125 0  4.410658553323315 2.018768213700664 0  4.267130272717368 1.863474356104607 0  4.220399009241286 1.64772992213087 0  4.023462850188271 1.566385491943431 0  4.078391068383893 1.3784946945315
[...]
<CellData  Scalars="f_7603"> 
<DataArray  type="Float64"  Name="f_7603"  format="ascii">0.0000000000000000e+00   0.0000000000000000e+00   1.4342618898267378e-15   1.4342618898267378e-15   5.4838658048626532e-02   5.4838658048626192e-02   1.2036828805681892e-02   0.0000000000000000e+00   5.4838658048626900e-02   1.2036828805682756e-02   5.4838658048626844e-02   1.9355071806151733e-15   1.2036828805680459e-02   1.2036828805681892e-02   1.2036828805682756e-02   1.4342618898267378e-15   2.3325054898847822e-01   2.1832702139466742e-01   2.1832702139466675e-01   2.1832702139466675e-01   2.1648790049880359e-01   1.2659332778778277e-02   3.2706951881764584e-01   0.0000000000000000e+00   2.4000767273577314e-01   2.4000767273577314e-01   2.4000767273577345e-01   2.4000767273577345e-01   1.5765367913834571e-01   2.3325054898847822e-01   3.2706951881764584e-01   2.1648790049880359e-01   2.1832702139466675e-01   2.1832702139466675e-01   2.3325054898847861e-01   2.1832702139466828e-01   2.4000767273577314e-01   2.4000767273577314e-01   2.4000767273577314e-01   2.4000767273577314e-01   2.1648790049880356e-01   3.2706951881764329e-01   1.2659332778778922e-02   3.6722942044463392e-15   3.2706951881764329e-01   2.1648790049880356e-01   1.5765367913834130e-01   2.3325054898847861e-01   1.9632900809843212e-01   1.9632900809843420e-01   5.4838658048626532e-02   3.4353734994490067e-16   2.4910564655843102e-02   2.4910564655843018e-02   2.1761743433756068e-15   2.1761743433756068e-15   1.9632900809843337e-01   5.4838658048626900e-02   1.9632900809843662e-01   9.1609959985306786e-16   1.9632900809843420e-01   1.9632900809843662e-01   1.9632900809843337e-01   4.1832521032773036e-15   7.5861607575080547e-01   5.6801390285073794e-01   7.5861607575080547e-01   7.8192059603517605e-01   1.0022961919065405e+00   1.0827224133120774e+00   3.0773313241747763e-01   1.1240343933096192e-01   3.0773313241747913e-01   1.1240343933096883e-01   1.0022961919065450e+00   9.0076698003860689e-01   9.0076698003860689e-01   1.0022961919065450e+00   7.8192059603517605e-01   1.0827224133120774e+00   3.8372347686974928e-01   1.7712398124363540e-01   1.4756431184856536e-01   1.4642594335795459e-01   4.2837484996444070e-01   4.0838049317317010e-01   2.0908802934734742e-02   2.0908802934734742e-02   6.0588795403948803e-01   7.1629130362529458e-01   5.7956241738742982e-02   1.1826777634907042e-01   1.1826777634907042e-01   9.7162545691168792e-02   1.4435969968953818e-01   3.8372347686974928e-01   1.4756431184856558e-01   1.4642594335795744e-01   3.8372347686975289e-01   1.7712398124363193e-01   5.7956241738742982e-02   1.1826777634907042e-01   6.0588795403948958e-01   7.1629130362529514e-01   2.0908802934734527e-02   2.0908802934734527e-02   4.2837484996443798e-01   1.2932792155151315e-01   1.4435969968953991e-01   3.8372347686975289e-01   1.1826777634907042e-01   9.7162545691168792e-02   1.1240343933096192e-01   3.0773313241747763e-01   7.1629130362529458e-01   6.0588795403948803e-01   2.8278641274612282e-01   4.2837484996444070e-01   5.4023361156205119e-01   4.0838049317317010e-01   7.1629130362529514e-01   6.0588795403948958e-01   1.1240343933096883e-01   3.0773313241747913e-01   5.4023361156205119e-01   2.6767024309445731e-01   8.1491647520070728e-15   8.1491647520070728e-15   9.3934251983231604e-02   1.7712398124363193e-01   9.3934251983233935e-02   9.3934251983233935e-02   3.2608167301433288e-01   3.2608167301433288e-01   3.2608167301433288e-01   3.2608167301433288e-01   1.7758780344646327e-01   2.0861217128075213e-01   4.0366991392251522e-01   1.7758780344646327e-01   1.9324529225845932e-01   4.0366991392251522e-01   3.2608167301433288e-01   1.9324529225845818e-01   4.9435052303799937e-01   5.0662239329307357e-01   4.9435052303799937e-01   4.9435052303799937e-01   5.6165501857023559e-01   5.6165501857023559e-01   5.9748539813327040e-01   5.6165501857023559e-01   4.3706177878278246e-01   4.3706177878278246e-01   4.3706177878278246e-01   4.3706177878278246e-01   4.8897053985059186e-01   5.9748539813327040e-01   5.0662239329307357e-01   4.8897053985059186e-01   5.6801390285069620e-01   7.5861607575080547e-01   1.3232892389830095e+00   1.0722770275069051e+00   3.7263850515322544e-01   3.7482486949086735e-01   9.7773667267657083e-01   4.9349681595200523e-01   4.9010218740243616e-01   7.3370937293434635e-01   8.0784404980196722e-01   4.9010218740243539e-01   1.0722770275069051e+00   1.3232892389830095e+00   7.3370937293434635e-01   1.7911223048300759e-01   3.6999613487066108e-01   5.4081557382711032e-01   4.3706177878278246e-01   3.6999613487066108e-01   4.2750554461259971e-01   8.0784404980196722e-01   5.6165501857023559e-01   4.2750554461259971e-01   4.9349681595200523e-01   9.7773667267657083e-01   4.3537167959553380e-01   1.8765328027063877e-01   4.3537167959553380e-01   4.3537167959553380e-01   5.4081557382711032e-01   4.3537167959553380e-01   9.3934251983234823e-02   9.3934251983234823e-02   9.3934251983232672e-02   9.3934251983232672e-02   1.7758780344646491e-01   1.7758780344646491e-01   4.0366991392251678e-01   1.7758780344646413e-01   3.2608167301433411e-01   3.2608167301433411e-01   3.2608167301433288e-01   3.2608167301433288e-01   1.9324529225845863e-01   4.0366991392251678e-01   3.2608167301433361e-01   1.9324529225845694e-01   2.1361397779651789e-01   2.1361397779651789e-01   1.3232892389830018e+00   1.0722770275068982e+00   4.9010218740243194e-01   7.3370937293434657e-01   8.0784404980196389e-01   4.9010218740243194e-01   3.7263850515321884e-01   3.7263850515321884e-01   9.7773667267657027e-01   4.9349681595200340e-01   1.0722770275068982e+00   1.3232892389830018e+00   7.3370937293434657e-01   1.7911223048301272e-01   4.9435052303800142e-01   5.0662239329307390e-01   4.9435052303800142e-01   4.9435052303800142e-01   4.3706177878278307e-01   4.3706177878278307e-01   4.3706177878278263e-01   4.3706177878278263e-01   5.6165501857023592e-01   5.6165501857023592e-01   5.9748539813327062e-01   5.6165501857023592e-01   4.8897053985059213e-01   5.9748539813327062e-01   5.0662239329307390e-01   4.8897053985059213e-01   4.9349681595200340e-01   9.7773667267657027e-01   4.3537167959553263e-01   1.8765328027063841e-01   4.2750554461259982e-01   8.0784404980196389e-01   5.6165501857023459e-01   4.2750554461259982e-01   3.6999613487066019e-01   5.4081557382710888e-01   4.3706177878278218e-01   3.6999613487066035e-01   4.3537167959553169e-01   4.3537167959553263e-01   5.4081557382710888e-01   4.3537167959553263e-01   9.3934251983233977e-02   1.7712398124363540e-01   9.3934251983232728e-02   9.3934251983232728e-02   1.7758780344646505e-01   2.0861217128075479e-01   4.0366991392251816e-01   1.7758780344646505e-01   3.2608167301433238e-01   3.2608167301433361e-01   3.2608167301433205e-01   3.2608167301433205e-01   1.9324529225845918e-01   4.0366991392251816e-01   3.2608167301433361e-01   1.9324529225845791e-01   5.6801390285073006e-01   7.5861607575080547e-01   1.3232892389830018e+00   1.0722770275068945e+00   4.9010218740243117e-01   7.3370937293434890e-01   8.0784404980196323e-01   4.9010218740242983e-01   3.7263850515321706e-01   3.7482486949086258e-01   9.7773667267656816e-01   4.9349681595200340e-01   1.0722770275068945e+00   1.3232892389830018e+00   7.3370937293434890e-01   1.7911223048301475e-01   4.9435052303800303e-01   5.0662239329307368e-01   4.9435052303800442e-01   4.9435052303800442e-01   4.3706177878278279e-01   4.3706177878278279e-01   4.3706177878278191e-01   4.3706177878278191e-01   5.6165501857023736e-01   5.6165501857023736e-01   5.9748539813327206e-01   5.6165501857023648e-01   4.8897053985059180e-01   5.9748539813327206e-01   5.0662239329307368e-01   4.8897053985059097e-01   4.9349681595200340e-01   9.7773667267656816e-01   4.3537167959553369e-01   1.8765328027063949e-01   4.2750554461260082e-01   8.0784404980196323e-01   5.6165501857023392e-01   4.2750554461260082e-01   3.6999613487065930e-01   5.4081557382710987e-01   4.3706177878278279e-01   3.6999613487065985e-01   4.3537167959553069e-01   4.3537167959553369e-01   5.4081557382710987e-01   4.3537167959553369e-01   9.3934251983233935e-02   9.3934251983233935e-02   9.3934251983231604e-02   9.3934251983231604e-02   3.2608167301433300e-01   3.2608167301433300e-01   3.2608167301433238e-01   3.2608167301433266e-01   4.0366991392251461e-01   1.7758780344646227e-01   1.7758780344646319e-01   1.7758780344646319e-01   3.2608167301433266e-01   1.9324529225845818e-01   1.9324529225845932e-01   4.0366991392251461e-01   4.9435052303800053e-01   4.9435052303800053e-01   4.9435052303799909e-01   5.0662239329307424e-01   5.9748539813327006e-01   5.6165501857023514e-01   5.6165501857023592e-01   5.6165501857023592e-01   4.3706177878278279e-01   4.3706177878278279e-01   4.3706177878278191e-01   4.3706177878278230e-01   5.0662239329307424e-01   4.8897053985059230e-01   4.8897053985059186e-01   5.9748539813327006e-01   1.3232892389830095e+00   1.0722770275069016e+00   2.1361397779650945e-01   2.1361397779650945e-01   9.7773667267657116e-01   4.9349681595200551e-01   3.7263850515322544e-01   3.7263850515322544e-01   8.0784404980196822e-01   4.9010218740243555e-01   4.9010218740243383e-01   7.3370937293434757e-01   7.3370937293434757e-01   1.7911223048300842e-01   1.0722770275069016e+00   1.3232892389830095e+00   4.3706177878278230e-01   3.6999613487066157e-01   3.6999613487066096e-01   5.4081557382710976e-01   5.6165501857023592e-01   4.2750554461260015e-01   4.2750554461259938e-01   8.0784404980196822e-01   4.3537167959553369e-01   1.8765328027063860e-01   4.9349681595200551e-01   9.7773667267657116e-01   5.4081557382710976e-01   4.3537167959553408e-01   4.3537167959553319e-01   4.3537167959553369e-01   0.0000000000000000e+00   1.4342618898267378e-15   0.0000000000000000e+00   1.4342618898267378e-15   5.4838658048626900e-02   5.4838658048626844e-02   1.2036828805682756e-02   1.9355071806151733e-15   5.4838658048626532e-02   1.2036828805681892e-02   5.4838658048626192e-02   0.0000000000000000e+00   1.2036828805680459e-02   1.2036828805682756e-02   1.2036828805681892e-02   1.4342618898267378e-15   2.3325054898847861e-01   2.1832702139466828e-01   2.1832702139466675e-01   2.1832702139466675e-01   2.1648790049880356e-01   1.2659332778778922e-02   3.2706951881764329e-01   3.6722942044463392e-15   2.4000767273577314e-01   2.4000767273577314e-01   2.4000767273577314e-01   2.4000767273577314e-01   1.5765367913834130e-01   2.3325054898847861e-01   3.2706951881764329e-01   2.1648790049880356e-01   2.1832702139466675e-01   2.1832702139466675e-01   2.3325054898847822e-01   2.1832702139466742e-01   2.4000767273577345e-01   2.4000767273577345e-01   2.4000767273577314e-01   2.4000767273577314e-01   2.1648790049880359e-01   3.2706951881764584e-01   1.2659332778778277e-02   0.0000000000000000e+00   3.2706951881764584e-01   2.1648790049880359e-01   1.5765367913834571e-01   2.3325054898847822e-01   1.9632900809843337e-01   1.9632900809843662e-01   5.4838658048626900e-02   9.1609959985306786e-16   2.4910564655843102e-02   2.1761743433756068e-15   2.4910564655843018e-02   2.1761743433756068e-15   1.9632900809843212e-01   5.4838658048626532e-02   1.9632900809843420e-01   3.4353734994490067e-16   1.9632900809843420e-01   1.9632900809843337e-01   1.9632900809843662e-01   4.1832521032773036e-15   7.5861607575080547e-01   5.6801390285069620e-01   7.5861607575080547e-01   7.8192059603520281e-01   1.0022961919065450e+00   1.0827224133120834e+00   3.0773313241747913e-01   1.1240343933096883e-01   3.0773313241747763e-01   1.1240343933096192e-01   1.0022961919065405e+00   9.0076698003861799e-01   9.0076698003861799e-01   1.0022961919065450e+00   7.8192059603520281e-01   1.0827224133120834e+00   3.8372347686975289e-01   1.7712398124363246e-01   1.4756431184856558e-01   1.4642594335795744e-01   4.2837484996443798e-01   1.2932792155151315e-01   2.0908802934734527e-02   2.0908802934734527e-02   6.0588795403948958e-01   7.1629130362529514e-01   5.7956241738742982e-02   1.1826777634907042e-01   1.1826777634907042e-01   9.7162545691168792e-02   1.4435969968953991e-01   3.8372347686975289e-01   1.4756431184856536e-01   1.4642594335795459e-01   3.8372347686974928e-01   1.7712398124363540e-01   5.7956241738742982e-02   1.1826777634907042e-01   6.0588795403948803e-01   7.1629130362529458e-01   2.0908802934734742e-02   2.0908802934734742e-02   4.2837484996444070e-01   4.0838049317317010e-01   1.4435969968953818e-01   3.8372347686974928e-01   1.1826777634907042e-01   9.7162545691168792e-02   1.1240343933096883e-01   3.0773313241747913e-01   7.1629130362529514e-01   6.0588795403948958e-01   5.4023361156205119e-01   4.0838049317317010e-01   2.8278641274612282e-01   4.2837484996444070e-01   7.1629130362529458e-01   6.0588795403948803e-01   1.1240343933096192e-01   3.0773313241747763e-01   2.6767024309445731e-01   5.4023361156205119e-01   8.1491647520070728e-15   8.1491647520070728e-15   9.3934251983233977e-02   1.7712398124363540e-01   9.3934251983233977e-02   9.3934251983233977e-02   3.2608167301433194e-01   3.2608167301433361e-01   3.2608167301433300e-01   3.2608167301433300e-01   1.7758780344646505e-01   2.0861217128075479e-01   4.0366991392251816e-01   1.7758780344646505e-01   1.9324529225845918e-01   4.0366991392251816e-01   3.2608167301433361e-01   1.9324529225845918e-01   4.9435052303800325e-01   5.0662239329307290e-01   4.9435052303800325e-01   4.9435052303800325e-01   5.6165501857023770e-01   5.6165501857023770e-01   5.9748539813327473e-01   5.6165501857023625e-01   4.3706177878278496e-01   4.3706177878278496e-01   4.3706177878278124e-01   4.3706177878278124e-01   4.8897053985059136e-01   5.9748539813327473e-01   5.0662239329307290e-01   4.8897053985058936e-01   5.6801390285073006e-01   7.5861607575080547e-01   1.3232892389830018e+00   1.0722770275068945e+00   3.7263850515321706e-01   3.7482486949086258e-01   9.7773667267656816e-01   4.9349681595200651e-01   4.9010218740242839e-01   7.3370937293435134e-01   8.0784404980197100e-01   4.9010218740243278e-01   1.0722770275068945e+00   1.3232892389830018e+00   7.3370937293435134e-01   1.7911223048301136e-01   3.6999613487065930e-01   5.4081557382711076e-01   4.3706177878278329e-01   3.6999613487066207e-01   4.2750554461259971e-01   8.0784404980197100e-01   5.6165501857023559e-01   4.2750554461259938e-01   4.9349681595200651e-01   9.7773667267656816e-01   4.3537167959553591e-01   1.8765328027063841e-01   4.3537167959553391e-01   4.3537167959553591e-01   5.4081557382711076e-01   4.3537167959553463e-01   9.3934251983239458e-02   9.3934251983239458e-02   9.3934251983234421e-02   9.3934251983234421e-02   1.7758780344645952e-01   1.7758780344645952e-01   4.0366991392251333e-01   1.7758780344645864e-01   3.2608167301432900e-01   3.2608167301433605e-01   3.2608167301433644e-01   3.2608167301433644e-01   1.9324529225845472e-01   4.0366991392251333e-01   3.2608167301433605e-01   1.9324529225845666e-01   2.1361397779650945e-01   2.1361397779650945e-01   1.3232892389830033e+00   1.0722770275069016e+00   4.9010218740243117e-01   7.3370937293435701e-01   8.0784404980196822e-01   4.9010218740243278e-01   3.7263850515323160e-01   3.7263850515323160e-01   9.7773667267657116e-01   4.9349681595200551e-01   1.0722770275069016e+00   1.3232892389830033e+00   7.3370937293435701e-01   1.7911223048301636e-01   4.9435052303799953e-01   5.0662239329307679e-01   4.9435052303799953e-01   4.9435052303799953e-01   4.3706177878278191e-01   4.3706177878278230e-01   4.3706177878278279e-01   4.3706177878278279e-01   5.6165501857023770e-01   5.6165501857023770e-01   5.9748539813327728e-01   5.6165501857024114e-01   4.8897053985058830e-01   5.9748539813327728e-01   5.0662239329307679e-01   4.8897053985059569e-01   4.9349681595200551e-01   9.7773667267657116e-01   4.3537167959553369e-01   1.8765328027063860e-01   4.2750554461259938e-01   8.0784404980196822e-01   5.6165501857023770e-01   4.2750554461260015e-01   3.6999613487066096e-01   5.4081557382710976e-01   4.3706177878278230e-01   3.6999613487066157e-01   4.3537167959553319e-01   4.3537167959553369e-01   5.4081557382710976e-01   4.3537167959553408e-01   9.3934251983231534e-02   1.7712398124363246e-01   9.3934251983232797e-02   9.3934251983232797e-02   1.7758780344646319e-01   2.0861217128075257e-01   4.0366991392251517e-01   1.7758780344646319e-01   3.2608167301433344e-01   3.2608167301433344e-01   3.2608167301433205e-01   3.2608167301433205e-01   1.9324529225845963e-01   4.0366991392251517e-01   3.2608167301433300e-01   1.9324529225845788e-01   5.6801390285069620e-01   7.5861607575080547e-01   1.3232892389830084e+00   1.0722770275069005e+00   4.9010218740243117e-01   7.3370937293434890e-01   8.0784404980196323e-01   4.9010218740243117e-01   3.7263850515322750e-01   3.7482486949086569e-01   9.7773667267657427e-01   4.9349681595200440e-01   1.0722770275069005e+00   1.3232892389830084e+00   7.3370937293434890e-01   1.7911223048301161e-01   4.9435052303799953e-01   5.0662239329307290e-01   4.9435052303800253e-01   4.9435052303800253e-01   4.3706177878278279e-01   4.3706177878278279e-01   4.3706177878278279e-01   4.3706177878278279e-01   5.6165501857023648e-01   5.6165501857023648e-01   5.9748539813327206e-01   5.6165501857023648e-01   4.8897053985059180e-01   5.9748539813327206e-01   5.0662239329307290e-01   4.8897053985059180e-01   4.9349681595200440e-01   9.7773667267657427e-01   4.3537167959553369e-01   1.8765328027063949e-01   4.2750554461260082e-01   8.0784404980196323e-01   5.6165501857023514e-01   4.2750554461260082e-01   3.6999613487066041e-01   5.4081557382711087e-01   4.3706177878278279e-01   3.6999613487065985e-01   4.3537167959553263e-01   4.3537167959553369e-01   5.4081557382711087e-01   4.3537167959553369e-01   9.3934251983232797e-02   9.3934251983232797e-02   9.3934251983231534e-02   9.3934251983231534e-02   3.2608167301433205e-01   3.2608167301433205e-01   3.2608167301433344e-01   3.2608167301433344e-01   4.0366991392251517e-01   1.7758780344646319e-01   1.7758780344646319e-01   1.7758780344646319e-01   3.2608167301433300e-01   1.9324529225845788e-01   1.9324529225845963e-01   4.0366991392251517e-01   4.9435052303800253e-01   4.9435052303800253e-01   4.9435052303799953e-01   5.0662239329307290e-01   5.9748539813327206e-01   5.6165501857023648e-01   5.6165501857023648e-01   5.6165501857023648e-01   4.3706177878278279e-01   4.3706177878278279e-01   4.3706177878278279e-01   4.3706177878278279e-01   5.0662239329307290e-01   4.8897053985059180e-01   4.8897053985059180e-01   5.9748539813327206e-01   1.3232892389830084e+00   1.0722770275069005e+00   2.1361397779650945e-01   2.1361397779650945e-01   9.7773667267657427e-01   4.9349681595200440e-01   3.7263850515322750e-01   3.7263850515322750e-01   8.0784404980196323e-01   4.9010218740243117e-01   4.9010218740243117e-01   7.3370937293434890e-01   7.3370937293434890e-01   1.7911223048301161e-01   1.0722770275069005e+00   1.3232892389830084e+00   4.3706177878278279e-01   3.6999613487065985e-01   3.6999613487066041e-01   5.4081557382711087e-01   5.6165501857023514e-01   4.2750554461260082e-01   4.2750554461260082e-01   8.0784404980196323e-01   4.3537167959553369e-01   1.8765328027063949e-01   4.9349681595200440e-01   9.7773667267657427e-01   5.4081557382711087e-01   4.3537167959553369e-01   4.3537167959553263e-01   4.3537167959553369e-01   0.0000000000000000e+00   5.3784820868502916e-15   5.3784820868502916e-15   5.3784820868502916e-15   5.4838658048628877e-02   5.4838658048637683e-02   1.2036828805674788e-02   7.5000903248837833e-15   5.4838658048628877e-02   1.2036828805674788e-02   5.4838658048637683e-02   7.5000903248837833e-15   1.2036828805676910e-02   1.2036828805674788e-02   1.2036828805674788e-02   5.3784820868502916e-15   2.3325054898847628e-01   2.1832702139466834e-01   2.1832702139466834e-01   2.1832702139466834e-01   2.1648790049880315e-01   1.2659332778780426e-02   3.2706951881764301e-01   2.8562288256804908e-15   2.4000767273577636e-01   2.4000767273577636e-01   2.4000767273577472e-01   2.4000767273577472e-01   1.5765367913