<?xml version="1.0"?>
<VTKFile type="UnstructuredGrid"  version="0.1"  >
<UnstructuredGrid>
<Piece  NumberOfPoints="2193" NumberOfCells="3988">
<Points>
<DataArray  type="Float64"  NumberOfComponents="3"  format="ascii">3 0.3207336731613248 0  2.829563040797541 0.3182521631901648 0  3 0.5085110656648704 0  2.655821106513804 0.3116422130276078 0  2.835061318114777 0.5051839543443308 0  3 0.6897344810094523 0  2.477003082583512 0.3026707767780156 0  2.664647711840426 0.4969715677606382 0  2.842448462936374 0.6848969258727482 0  3 0.8601728169611075 0  2.292893218813282 0.2928932188132819 0  2.486940241264027 0.4869402412640268 0  2.674832775912863 0.6748327759128629 0  2.852474570368216 0.8524745703682164 0  3 1 0  2.302670776778016 0.4770030825835117 0  2.496971567760638 0.6646477118404255 0  2.684896925872748 0.8424484629363741 0  2.860172816961108 1 0  3 1.139827183038892 0  3.147525429631784 1.147525429631784 0  3.139827183038892 1 0  2.311642213027608 0.655821106513804 0  2.505183954344331 0.8350613181147769 0  2.689734481009452 1 0  2.852474570368216 1.147525429631784 0  3 1.310265518990548 0  3.157551537063626 1.315103074127252 0  3.325167224087137 1.325167224087137 0  3.315103074127252 1.157551537063626 0  3.310265518990548 1 0  2.318252163190165 0.8295630407975412 0  2.50851106566487 1 0  2.684896925872748 1.157551537063626 0  2.842448462936374 1.315103074127252 0  3 1.49148893433513 0  3.164938681885223 1.494816045655669 0  3.335352288159574 1.503028432239362 0  3.513059758735973 1.513059758735973 0  3.503028432239362 1.335352288159575 0  3.494816045655669 1.164938681885223 0  3.49148893433513 1 0  2.320733673161325 1 0  2.505183954344331 1.164938681885223 0  2.674832775912863 1.325167224087137 0  2.835061318114777 1.494816045655669 0  3 1.679266326838675 0  3.170436959202459 1.681747836809835 0  3.344178893486196 1.688357786972392 0  3.522996917416489 1.697329223221984 0  3.707106781186718 1.707106781186718 0  3.697329223221984 1.522996917416488 0  3.688357786972392 1.344178893486196 0  3.681747836809835 1.170436959202459 0  3.679266326838675 1 0  2.318252163190165 1.170436959202459 0  2.496971567760638 1.335352288159575 0  2.664647711840426 1.503028432239362 0  2.829563040797541 1.681747836809835 0  2.311642213027608 1.344178893486196 0  2.486940241264027 1.513059758735973 0  2.655821106513804 1.688357786972392 0  2.302670776778016 1.522996917416488 0  2.477003082583511 1.697329223221984 0  2.292893218813282 1.707106781186718 0  2 4.679266326838675 0  1.829563040797541 4.681747836809835 0  2 4.49148893433513 0  1.655821106513804 4.688357786972392 0  1.835061318114777 4.494816045655669 0  2 4.310265518990548 0  1.477003082583512 4.697329223221985 0  1.664647711840425 4.503028432239362 0  1.842448462936374 4.315103074127252 0  2 4.139827183038893 0  1.292893218813282 4.707106781186718 0  1.486940241264027 4.513059758735973 0  1.674832775912863 4.325167224087137 0  1.852474570368216 4.147525429631783 0  2 4 0  1.302670776778016 4.522996917416489 0  1.496971567760638 4.335352288159575 0  1.684896925872748 4.157551537063626 0  1.860172816961108 4 0  2 3.860172816961108 0  2.147525429631784 3.852474570368216 0  2.139827183038892 4 0  1.311642213027608 4.344178893486196 0  1.505183954344331 4.164938681885223 0  1.689734481009452 4 0  1.852474570368216 3.852474570368216 0  2 3.689734481009452 0  2.157551537063626 3.684896925872748 0  2.325167224087137 3.674832775912863 0  2.315103074127252 3.842448462936374 0  2.310265518990548 4 0  1.318252163190165 4.170436959202459 0  1.50851106566487 4 0  1.684896925872748 3.842448462936374 0  1.842448462936374 3.684896925872748 0  2 3.50851106566487 0  2.164938681885223 3.505183954344331 0  2.335352288159574 3.496971567760638 0  2.513059758735973 3.486940241264027 0  2.503028432239362 3.664647711840426 0  2.494816045655669 3.835061318114777 0  2.49148893433513 4 0  1.320733673161325 4 0  1.505183954344331 3.835061318114777 0  1.674832775912863 3.674832775912863 0  1.835061318114777 3.505183954344331 0  2 3.320733673161325 0  2.170436959202459 3.318252163190165 0  2.344178893486196 3.311642213027608 0  2.522996917416489 3.302670776778016 0  2.707106781186718 3.292893218813282 0  2.697329223221984 3.477003082583511 0  2.688357786972392 3.655821106513804 0  2.681747836809835 3.829563040797541 0  2.679266326838675 4 0  1.318252163190165 3.829563040797541 0  1.496971567760638 3.664647711840426 0  1.664647711840425 3.496971567760638 0  1.829563040797541 3.318252163190165 0  1.311642213027608 3.655821106513804 0  1.486940241264027 3.486940241264027 0  1.655821106513804 3.311642213027608 0  1.302670776778016 3.477003082583511 0  1.477003082583512 3.302670776778016 0  1.292893218813282 3.292893218813282 0  -6 5.679266326838675 0  -5.829563040797542 5.681747836809835 0  -6 5.49148893433513 0  -5.655821106513804 5.688357786972392 0  -5.835061318114777 5.494816045655669 0  -6 5.310265518990548 0  -5.477003082583511 5.697329223221985 0  -5.664647711840425 5.503028432239362 0  -5.842448462936374 5.315103074127252 0  -6 5.139827183038893 0  -5.292893218813282 5.707106781186718 0  -5.486940241264027 5.513059758735973 0  -5.674832775912863 5.325167224087137 0  -5.852474570368217 5.147525429631783 0  -6 5 0  -5.302670776778015 5.522996917416489 0  -5.496971567760638 5.335352288159575 0  -5.684896925872748 5.157551537063626 0  -5.860172816961107 5 0  -6 4.860172816961107 0  -6.147525429631783 4.852474570368217 0  -6.139827183038893 5 0  -5.311642213027608 5.344178893486196 0  -5.505183954344331 5.164938681885223 0  -5.689734481009452 5 0  -5.852474570368217 4.852474570368217 0  -6 4.689734481009452 0  -6.157551537063626 4.684896925872748 0  -6.325167224087137 4.674832775912863 0  -6.315103074127252 4.842448462936374 0  -6.310265518990548 5 0  -5.318252163190165 5.170436959202459 0  -5.50851106566487 5 0  -5.684896925872748 4.842448462936374 0  -5.842448462936374 4.684896925872748 0  -6 4.50851106566487 0  -6.164938681885223 4.505183954344331 0  -6.335352288159575 4.496971567760638 0  -6.513059758735973 4.486940241264027 0  -6.503028432239362 4.664647711840425 0  -6.494816045655669 4.835061318114777 0  -6.49148893433513 5 0  -5.320733673161325 5 0  -5.505183954344331 4.835061318114777 0  -5.674832775912863 4.674832775912863 0  -5.835061318114777 4.505183954344331 0  -6 4.320733673161325 0  -6.170436959202458 4.318252163190165 0  -6.344178893486196 4.311642213027608 0  -6.522996917416489 4.302670776778015 0  -6.707106781186718 4.292893218813282 0  -6.697329223221985 4.477003082583511 0  -6.688357786972392 4.655821106513804 0  -6.681747836809835 4.829563040797541 0  -6.679266326838675 5 0  -5.318252163190165 4.829563040797542 0  -5.496971567760638 4.664647711840425 0  -5.664647711840425 4.496971567760638 0  -5.829563040797542 4.318252163190165 0  -5.311642213027608 4.655821106513804 0  -5.486940241264027 4.486940241264027 0  -5.655821106513804 4.311642213027608 0  -5.302670776778015 4.477003082583511 0  -5.477003082583511 4.302670776778015 0  -5.292893218813282 4.292893218813282 0  -5 2.320733673161325 0  -4.829563040797542 2.318252163190165 0  -5 2.50851106566487 0  -4.655821106513804 2.311642213027608 0  -4.835061318114777 2.505183954344331 0  -5 2.689734481009452 0  -4.477003082583511 2.302670776778016 0  -4.664647711840425 2.496971567760638 0  -4.842448462936374 2.684896925872748 0  -5 2.860172816961108 0  -4.292893218813282 2.292893218813282 0  -4.486940241264027 2.486940241264027 0  -4.674832775912863 2.674832775912863 0  -4.852474570368217 2.852474570368216 0  -5 3 0  -4.302670776778015 2.477003082583511 0  -4.496971567760638 2.664647711840426 0  -4.684896925872748 2.842448462936374 0  -4.860172816961107 3 0  -5 3.139827183038892 0  -5.147525429631783 3.147525429631784 0  -5.139827183038893 3 0  -4.311642213027608 2.655821106513804 0  -4.505183954344331 2.835061318114777 0  -4.689734481009452 3 0  -4.852474570368217 3.147525429631784 0  -5 3.310265518990548 0  -5.157551537063626 3.315103074127252 0  -5.325167224087137 3.325167224087137 0  -5.315103074127252 3.157551537063626 0  -5.310265518990548 3 0  -4.318252163190165 2.829563040797541 0  -4.50851106566487 3 0  -4.684896925872748 3.157551537063626 0  -4.842448462936374 3.315103074127252 0  -5 3.49148893433513 0  -5.164938681885223 3.494816045655669 0  -5.335352288159575 3.503028432239362 0  -5.513059758735973 3.513059758735973 0  -5.503028432239362 3.335352288159574 0  -5.494816045655669 3.164938681885223 0  -5.49148893433513 3 0  -4.320733673161325 3 0  -4.505183954344331 3.164938681885223 0  -4.674832775912863 3.325167224087137 0  -4.835061318114777 3.494816045655669 0  -5 3.679266326838675 0  -5.170436959202458 3.681747836809835 0  -5.344178893486196 3.688357786972392 0  -5.522996917416489 3.697329223221984 0  -5.707106781186718 3.707106781186718 0  -5.697329223221985 3.522996917416489 0  -5.688357786972392 3.344178893486196 0  -5.681747836809835 3.170436959202459 0  -5.679266326838675 3 0  -4.318252163190165 3.170436959202459 0  -4.496971567760638 3.335352288159574 0  -4.664647711840425 3.503028432239362 0  -4.829563040797542 3.681747836809835 0  -4.311642213027608 3.344178893486196 0  -4.486940241264027 3.513059758735973 0  -4.655821106513804 3.688357786972392 0  -4.302670776778015 3.522996917416489 0  -4.477003082583511 3.697329223221984 0  -4.292893218813282 3.707106781186718 0  5 1 0  5 1.1875 0  4.834908290854834 1 0  4.777127948738723 1.195499924639372 0  4.839086815232164 1.346682114508668 0  5 1.375 0  4.669816581709669 1 0  4.632764363488562 1.365485527798476 0  4.794926146457388 1.50398688558759 0  5 1.5625 0  4.642258798879609 1.142328639834177 0  4.504724872564504 1 0  4.500247074421719 1.171475564681439 0  4.339633163419338 1 0  4.498775742703332 1.356177489340095 0  4.497705853685118 1.490484769177636 0  4.645521174961488 1.514732206813389 0  4.689691594422786 1.689472084520371 0  4.856231811549666 1.66136337359662 0  5 1.75 0  4.25035262013317 1.188684954713487 0  4.364655839949951 1.363349780835463 0  4.36358595
[...]
<CellData  Scalars="f_6456"> 
<DataArray  type="Float64"  Name="f_6456"  format="ascii">0.0000000000000000e+00   1.2774941787081299e-02   1.2774941787081299e-02   1.2774941787081299e-02   1.7356806758850183e-02   4.1251073610382417e-02   9.4987867489668457e-04   4.1251073610382417e-02   1.7356806758850870e-02   9.4987867489736936e-04   4.1251073610383757e-02   4.1251073610383757e-02   2.6152269943561998e-02   1.6052698049812544e-02   2.6152269943561998e-02   2.6152269943561998e-02   5.3580487898427419e-02   1.0497833837535557e-01   1.0497833837535420e-01   1.0497833837535557e-01   4.5193475097740840e-02   4.6220507008510145e-02   7.3878569415231146e-02   4.5193475097740840e-02   4.5193475097740021e-02   7.3878569415233353e-02   4.6220507008512164e-02   4.5193475097740021e-02   7.3878569415231146e-02   4.6220507008512164e-02   7.3878569415233353e-02   1.4270221666173658e-02   3.1797460676715961e-02   3.2183413252801080e-02   4.5495308291087042e-02   3.2183413252801080e-02   1.5817817697249183e-02   2.6747999592890533e-02   2.3699395214525736e-02   1.6411822373016107e-02   1.2174166083246414e-01   7.0381687204854715e-02   6.3854499433812981e-02   1.2174166083246414e-01   2.3699395214525736e-02   2.9349341628575682e-02   4.8994790898399532e-02   4.4215856893600414e-02   0.0000000000000000e+00   3.1495547863166537e-02   3.2183413252801732e-02   3.2183413252801732e-02   1.2174166083246414e-01   6.3854499433812981e-02   4.8994790898399872e-02   1.2174166083246414e-01   1.5817817697249183e-02   2.3699395214525527e-02   2.6747999592891179e-02   1.6411822373016107e-02   4.8994790898399872e-02   2.9349341628575044e-02   2.3699395214525527e-02   4.4215856893599442e-02   3.1797460676715961e-02   4.5495308291088193e-02   3.2183413252800663e-02   3.2183413252800663e-02   1.2174166083246450e-01   6.3854499433812634e-02   7.0381687204853688e-02   1.2174166083246450e-01   1.5817817697247546e-02   2.3699395214527186e-02   2.6747999592891390e-02   1.6411822373016929e-02   4.8994790898399518e-02   2.9349341628575044e-02   2.3699395214527186e-02   4.4215856893599442e-02   0.0000000000000000e+00   3.2183413252801288e-02   3.1495547863167529e-02   3.2183413252801288e-02   1.5817817697248576e-02   2.6747999592890315e-02   2.3699395214525527e-02   1.6411822373015899e-02   1.2174166083246378e-01   4.8994790898399664e-02   6.3854499433813328e-02   1.2174166083246378e-01   2.3699395214525527e-02   2.9349341628576112e-02   4.8994790898399664e-02   4.4215856893601066e-02   0.0000000000000000e+00   1.2774941787081299e-02   1.2774941787081299e-02   1.2774941787081299e-02   1.7356806758850870e-02   4.1251073610383757e-02   9.4987867489736936e-04   4.1251073610383757e-02   1.7356806758850183e-02   9.4987867489668457e-04   4.1251073610382417e-02   4.1251073610382417e-02   2.6152269943561998e-02   1.6052698049812544e-02   2.6152269943561998e-02   2.6152269943561998e-02   5.3580487898428092e-02   1.0497833837535420e-01   1.0497833837535557e-01   1.0497833837535557e-01   4.5193475097740021e-02   4.6220507008512164e-02   7.3878569415233353e-02   4.5193475097740021e-02   4.5193475097740840e-02   7.3878569415231146e-02   4.6220507008510145e-02   4.5193475097740840e-02   7.3878569415233353e-02   4.6220507008512164e-02   7.3878569415231146e-02   1.4270221666173658e-02   3.1797460676717043e-02   3.2183413252800629e-02   4.5495308291088193e-02   3.2183413252800629e-02   1.5817817697250800e-02   2.6747999592890131e-02   2.3699395214525108e-02   1.6411822373017151e-02   1.2174166083246737e-01   7.0381687204854965e-02   6.3854499433812439e-02   1.2174166083246737e-01   2.3699395214525108e-02   2.9349341628573933e-02   4.8994790898398220e-02   4.4215856893599442e-02   0.0000000000000000e+00   3.1495547863168986e-02   3.2183413252802343e-02   3.2183413252802343e-02   1.2174166083246396e-01   6.3854499433815853e-02   4.8994790898399622e-02   1.2174166083246396e-01   1.5817817697251418e-02   2.3699395214523859e-02   2.6747999592887775e-02   1.6411822373016534e-02   4.8994790898399622e-02   2.9349341628576300e-02   2.3699395214523859e-02   4.4215856893603814e-02   3.1797460676715961e-02   4.5495308291087375e-02   3.2183413252800663e-02   3.2183413252800663e-02   1.2174166083246313e-01   6.3854499433812009e-02   7.0381687204854354e-02   1.2174166083246313e-01   1.5817817697247546e-02   2.3699395214527186e-02   2.6747999592891585e-02   1.6411822373016301e-02   4.8994790898400219e-02   2.9349341628576796e-02   2.3699395214527186e-02   4.4215856893599866e-02   0.0000000000000000e+00   3.2183413252800663e-02   3.1495547863166967e-02   3.2183413252800663e-02   1.5817817697247546e-02   2.6747999592891585e-02   2.3699395214527186e-02   1.6411822373016301e-02   1.2174166083246313e-01   4.8994790898400219e-02   6.3854499433812009e-02   1.2174166083246313e-01   2.3699395214527186e-02   2.9349341628576796e-02   4.8994790898400219e-02   4.4215856893599866e-02   0.0000000000000000e+00   1.2774941787084354e-02   1.2774941787084354e-02   1.2774941787084354e-02   1.7356806758851637e-02   4.1251073610385491e-02   9.4987867489508776e-04   4.1251073610385491e-02   1.7356806758851637e-02   9.4987867489508776e-04   4.1251073610385491e-02   4.1251073610385491e-02   2.6152269943560156e-02   1.6052698049813845e-02   2.6152269943560156e-02   2.6152269943560156e-02   5.3580487898421805e-02   1.0497833837535185e-01   1.0497833837535185e-01   1.0497833837535185e-01   4.5193475097740757e-02   4.6220507008513163e-02   7.3878569415233644e-02   4.5193475097740757e-02   4.5193475097740757e-02   7.3878569415233644e-02   4.6220507008513163e-02   4.5193475097740757e-02   7.3878569415233644e-02   4.6220507008513163e-02   7.3878569415233644e-02   1.4270221666169161e-02   3.1797460676715135e-02   3.2183413252801892e-02   4.5495308291084856e-02   3.2183413252801892e-02   1.5817817697253229e-02   2.6747999592887792e-02   2.3699395214523845e-02   1.6411822373017779e-02   1.2174166083246606e-01   7.0381687204853355e-02   6.3854499433814563e-02   1.2174166083246606e-01   2.3699395214523845e-02   2.9349341628575651e-02   4.8994790898398997e-02   4.4215856893602502e-02   0.0000000000000000e+00   3.1495547863167009e-02   3.2183413252804285e-02   3.2183413252804285e-02   1.2174166083246606e-01   6.3854499433814563e-02   4.8994790898398997e-02   1.2174166083246606e-01   1.5817817697253229e-02   2.3699395214523845e-02   2.6747999592887792e-02   1.6411822373017779e-02   4.8994790898398997e-02   2.9349341628575651e-02   2.3699395214523845e-02   4.4215856893602502e-02   3.1797460676712748e-02   4.5495308291084856e-02   3.2183413252804285e-02   3.2183413252804285e-02   1.2174166083246606e-01   6.3854499433814563e-02   7.0381687204853355e-02   1.2174166083246606e-01   1.5817817697253229e-02   2.3699395214523845e-02   2.6747999592887792e-02   1.6411822373017779e-02   4.8994790898398997e-02   2.9349341628575651e-02   2.3699395214523845e-02   4.4215856893602502e-02   0.0000000000000000e+00   3.2183413252801892e-02   3.1495547863169396e-02   3.2183413252801892e-02   1.5817817697253229e-02   2.6747999592887792e-02   2.3699395214523845e-02   1.6411822373017779e-02   1.2174166083246606e-01   4.8994790898398997e-02   6.3854499433814563e-02   1.2174166083246606e-01   2.3699395214523845e-02   2.9349341628575651e-02   4.8994790898398997e-02   4.4215856893602502e-02   0.0000000000000000e+00   1.2774941787080496e-02   1.2774941787084371e-02   1.2774941787084371e-02   1.7356806758854145e-02   4.1251073610382979e-02   9.4987867490010729e-04   4.1251073610382979e-02   1.7356806758849146e-02   9.4987867489246399e-04   4.1251073610385318e-02   4.1251073610385318e-02   2.6152269943562664e-02   1.6052698049813845e-02   2.6152269943558789e-02   2.6152269943562664e-02   5.3580487898424949e-02   1.0497833837535175e-01   1.0497833837535465e-01   1.0497833837535465e-01   4.5193475097739522e-02   4.6220507008513094e-02   7.3878569415235282e-02   4.5193475097739522e-02   4.5193475097741929e-02   7.3878569415231202e-02   4.6220507008511671e-02   4.5193475097741929e-02   7.3878569415235282e-02   4.6220507008513094e-02   7.3878569415231202e-02   1.4270221666172297e-02   3.1797460676714052e-02   3.2183413252801926e-02   4.5495308291086035e-02   3.2183413252801926e-02   1.5817817697249773e-02   2.6747999592889045e-02   2.3699395214525923e-02   1.6411822373017554e-02   1.2174166083246318e-01   7.0381687204850801e-02   6.3854499433814743e-02   1.2174166083246318e-01   2.3699395214525923e-02   2.9349341628576758e-02   4.8994790898400288e-02   4.4215856893602502e-02   0.0000000000000000e+00   3.1495547863165663e-02   3.2183413252803016e-02   3.2183413252803016e-02   1.2174166083246588e-01   6.3854499433812037e-02   4.8994790898398928e-02   1.2174166083246588e-01   1.5817817697250800e-02   2.3699395214525108e-02   2.6747999592890332e-02   1.6411822373016527e-02   4.8994790898398928e-02   2.9349341628575467e-02   2.3699395214525108e-02   4.4215856893599866e-02   3.1797460676713983e-02   4.5495308291086202e-02   3.2183413252803016e-02   3.2183413252803016e-02   1.2174166083246588e-01   6.3854499433812037e-02   7.0381687204856422e-02   1.2174166083246588e-01   1.5817817697250800e-02   2.3699395214525108e-02   2.6747999592890332e-02   1.6411822373016527e-02   4.8994790898398928e-02   2.9349341628575467e-02   2.3699395214525108e-02   4.4215856893599866e-02   0.0000000000000000e+00   3.2183413252801926e-02   3.1495547863168313e-02   3.2183413252801926e-02   1.5817817697249773e-02   2.6747999592889045e-02   2.3699395214525923e-02   1.6411822373017554e-02   1.2174166083246318e-01   4.8994790898400288e-02   6.3854499433814743e-02   1.2174166083246318e-01   2.3699395214525923e-02   2.9349341628576758e-02   4.8994790898400288e-02   4.4215856893602502e-02   2.4616528874484478e-01   2.3292728235018348e-01   3.1584991382154470e-01   5.5025042004529463e-02   2.0924733228427311e-01   2.5541469394881355e-01   1.8043899530648511e-01   1.7573330812891927e-01   7.6640230393231062e-02   2.0013624629495552e-01   2.5097398148410038e-01   2.2721550523953660e-01   6.6562561356767844e-02   2.6057105053075702e-01   1.8320082242348529e-01   9.5903488386230556e-02   3.8562000282844161e-01   0.0000000000000000e+00   1.9024186963815809e-01   2.0711168897399004e-01   1.5495703697244806e-01   2.4820069904545694e-01   1.4130160478113146e-01   1.9181023581829207e-01   2.7439572810606871e-01   1.1508418760592745e-01   8.8616473480325017e-02   1.5264537339196679e-01   2.8588670013089235e-01   6.3392456520113244e-02   1.1871838966770006e-01   2.2714283055800435e-01   1.5264537339196679e-01   3.8398789931355171e-01   2.8945154604169782e-01   1.3823928879291664e-01   1.7522108337104853e-03   1.5686396491126456e-01   1.3616012228247137e-01   1.0909012552960144e-01   8.1142643882923596e-02   1.3616012228247085e-01   1.6791645682897899e-01   1.9987231190371910e-01   1.3990241527747654e-01   1.6235469662655075e-01   3.1668460619318528e-01   1.0359434741314268e-02   1.7269067947841774e-01   9.1320393973719979e-02   8.6835613367562320e-02   2.5166391445191760e-01   3.1034695635919214e-02   4.2662152933642249e-02   2.5936441889296175e-01   2.4290931348622005e-01   2.8211451315812558e-01   0.0000000000000000e+00   6.8939033059290805e-02   3.1871766869642409e-01   2.8877899582460798e-01   1.1509765584162712e-01   3.2432157032083359e-01   2.1053261483282906e-01   2.2468355881824714e-01   1.5855625209123980e-01   1.2059282263964057e-01   1.5656195976015492e-02   4.6303303364813773e-02   1.4749449920583155e-01   1.4075797401978171e-01   1.5941522484939125e-01   2.1411847946979981e-01   1.1479334261659273e-01   1.4144749186119543e-01   1.7634527802510139e-01   1.2185382702325401e-01   6.6607804484518487e-02   3.0983228449202332e-01   9.8612771539194052e-02   3.4018370871683558e-02   7.4886600478326307e-02   3.1484364572006845e-01   2.8854232625903541e-02   2.8854232625899208e-02   2.0976891171931031e-01   1.0905851481087592e-01   3.8654068366483740e-01   3.6018634511570297e-01   1.5864708733084243e-01   2.9989778242261977e-01   1.1122981447629689e-01   2.2349690332808575e-01   3.4044226595038485e-01   1.4835006588026745e-01   2.3970729623932641e-01   9.9444175498557705e-02   1.6462394155478577e-01   1.5443806269806026e-01   9.1342692556034166e-02   2.5936441889296058e-01   2.0627584146158587e-01   3.8120905670538517e-02   4.7216648969635228e-01   2.8285814728257452e-01   4.0053237838150263e-01   1.4136649130465123e-01   2.6779290788960475e-01   2.9124677714386249e-01   2.6220650502758247e-01   2.1478792481814932e-01   3.1466104809394502e-01   1.4503686329729623e-01   1.2297314834725181e-01   2.7669639904270354e-01   2.3008108586552753e-01   1.3052108065229737e-01   2.9663198822700060e-01   8.9554886458547617e-02   1.6070975557124612e-01   7.0954439799746624e-02   7.6806023372011731e-03   3.3473915113163144e-01   1.1975332573114739e-01   1.9195633288740871e-01   1.6270310894697082e-01   2.0074592041185621e-01   1.9425431332181492e-01   7.4448429461148657e-02   1.0523361821726016e-01   6.8821393278525045e-02   8.5914848100987817e-02   3.8301098234848724e-01   5.4391874697625473e-03   2.8244715408374321e-02   1.3891376808611408e-01   9.1589489447140737e-02   2.6374849713626475e-01   1.8099760712026741e-01   5.9636122076646488e-02   3.6729465834082882e-02   7.4973243082638377e-02   1.8088586707184995e-02   2.2824303948210369e-02   1.8698415098213494e-01   1.2223348664992172e-01   1.8765649730190304e-01   1.5764743661451697e-01   3.7141753950052148e-01   1.9098724743473314e-01   2.9505875413454996e-01   4.1200113677051425e-01   2.2364501382240332e-02   2.8607400970710201e-01   4.1896815297387463e-01   4.6303303364814273e-02   1.9028146699397411e-02   5.1025971772102184e-02   1.1122981447629689e-01   2.1802803571956197e-01   3.5022930537654338e-02   7.4224743020812750e-02   2.5166391445191760e-01   1.7043949294140073e-01   2.6770561272965065e-01   3.9696093051291387e-01   6.8786314374671864e-02   1.2605732574174666e-01   1.9657919324629744e-01   4.4730436090856196e-02   1.9295272278051948e-01   2.8111870219933255e-01   3.4183173719122062e-01   2.2580429155339543e-01   1.4835925922908236e-01   0.0000000000000000e+00   2.1052759767672850e-02   2.0151730761130185e-01   1.0088583988681273e-01   3.0033676375606422e-01   3.0404049092061852e-01   3.3480508613624199e-01   5.1517065464051305e-02   6.1666812243850726e-02   2.9349775122654520e-01   2.5385211449159795e-01   2.6417409758312793e-01   2.7790923875610790e-01   1.2605732574174666e-01   9.1706779842594219e-02   1.5428262227956982e-01   2.7599449453971453e-01   3.0382770663249398e-01   1.4486364968619458e-01   3.1732419493054553e-01   2.4467868717421164e-02   9.0205810259628538e-02   1.1905968483298378e-01   1.8765649730190304e-01   1.4277197622390958e-01   6.2083836682259988e-02   1.9777277272993629e-01   1.2316385170675352e-01   1.9631331681137779e-01   2.3781223598250381e-01   1.4933803714852184e-01   1.9152302078624037e-01   9.0573187792184123e-02   1.0794165010310869e-01   2.1404878467742132e-02   2.3244142127379858e-01   1.7285400829467490e-01   3.5859903005230488e-02   4.6241791543064438e-02   2.4904678940477157e-01   7.1197305597168525e-02   1.6791645682897899e-01   3.5082948272191794e-01   3.9338196342541054e-01   1.5147827894333757e-01   3.8539245990348575e-01   3.8285372903269288e-01   2.2953045897730140e-01   1.4639854227936072e-01   4.3232548896907592e-02   1.3802593311728726e-02   1.8053831618606922e-01   1.5393069932598677e-01   8.3395096885482814e-02   4.6033870785861589e-02   2.8674734321931000e-01   7.5865357542803852e-02   9.6452260632802074e-05   1.0189819499342363e-01   1.9657919324629744e-01   2.0798943538145448e-01   1.6348070447424931e-01   2.6220650502758247e-01   1.9538125322342137e-01   1.2419717181042023e-01   3.0316583144728837e-01   7.9639820073460876e-02   9.7578793844013911e-02   1.2282764882149001e-01   0.0000000000000000e+00   1.5730926900476258e-01   2.3787275319264989e-01   8.7514868376396673e-02   2.9530205158459849e-01   7.2931591964140854e-02   2.1803879700487783e-01   3.4919992048070642e-01   3.2876780360561986e-01   2.7535254914160467e-01   1.4804463306635290e-01   9.8042105074366365e-02   8.2058626520223141e-03   1.5234600800129577e-01   2.8253895411113455e-01   1.3969202970545302e-01   1.4372165236409049e-01   2.1130772447958404e-01   3.3253471470075963e-01   1.9273085440825335e-01   1.5086449471194036e-01   1.8053831618606922e-01   6.2993602682369629e-02   3.8548719263482745e-01   1.2438567589225009e-01   1.8085517585744981e-01   3.3509353010942672e-01   4.0053237838150263e-01   1.3991436826325787e-01   2.5544349740081007e-01   5.8660371500488201e-04   1.1576335495599341e-01   2.7192163277908543e-01   2.5582081001127205e-01   1.7227058773068590e-01   2.1535700080014744e-01   5.3854173198360822e-01   1.3429790995873966e-01   4.4645720720547337e-02   1.2930154405034597e-01   4.5101082756954708e-02   2.7172879539167003e-02   5.5904312048511921e-02   2.4064746384036079e-01   1.4832934235494952e-01   4.1806972135696001e-02   2.0100149152639835e-01   5.4892071121069953e-02   3.1248747760365653e-01   2.9789366243232618e-01   1.9433195989961297e-01   1.0837104627123410e-01   4.1765545456304115e-01   2.3632276193642865e-01   3.0342201334398988e-01   2.8468058849723415e-01   6.6410313716853284e-02   2.6950380653226524e-01   4.6173141221696429e-01   1.4310420528544762e-01   5.3339505548531052e-01   1.4324826110692629e-01   3.2939267095246427e-01   3.5726679304286879e-01   7.1082070744972733e-02   1.4716804967905817e-01   2.9664620883480253e-01   6.0950213550004975e-02   2.1202861505490206e-01   2.5742224527572855e-02   1.7689132781358233e-01   1.5117892069542588e-01   1.3279539042249344e-01   2.6614403033152023e-01   1.7426128010248648e-01   1.5443806269806026e-01   3.5922233372826939e-01   4.1710426097826786e-01   1.5313071156159166e-01   1.1865734896850136e-01   6.6043719621936392e-02   3.0499740630197375e-01   1.3901455616810979e-01   1.4295849248016282e-01   3.0550751934311043e-01   3.5973743320954327e-01   2.9019344574278419e-02   4.2340485386251077e-02   2.8607400970710201e-01   1.0203841457420577e-01   1.4526871993117366e-01   2.2670101443851651e-01   3.3694751640370130e-01   1.8556054666077387e-01   1.9672993482716383e-01   1.8850057745422905e-01   7.6411247106015323e-02   2.0154058675882403e-01   1.4157728079434844e-02   2.5097398148410038e-01   1.1185089064766739e-01   3.3235831122254489e-01   1.9677841679056465e-01   3.4335728269193933e-01   3.4332806024740392e-01   3.0614977755224709e-01   2.9749630193551180e-01   8.7339866136912678e-02   8.0656245416667952e-02   1.4172680431805684e-01   3.5868263105798948e-01   1.4671473413573996e-01   1.0515143812143973e-02   2.6229680982073800e-01   7.0382566322042789e-02   1.0180439294770895e-01   3.6980158802020635e-01   2.7830709173027562e-01   1.7686034733955336e-01   1.1227467837666240e-01   2.1847038866215715e-01   6.9703741789233831e-02   1.4792208935381415e-01   2.5478457839690599e-01   3.3694751640370130e-01   5.1360085903233835e-02   2.7219403362897188e-01   1.2228361098501542e-01   2.4390889478527245e-01   3.3723010150961831e-02   1.4733251908488146e-01   1.4959276783264550e-01   1.8398885813073454e-01   2.9693447071471440e-01   1.8905540568723372e-01   2.9484348840069247e-01   3.3459303055484120e-02   2.6470653220511126e-01   3.0211326249959913e-01   8.0868966367294171e-03   3.7396552576016606e-01   1.6918913828192433e-01   3.7134292603732377e-01   3.0156297459872039e-01   1.3844784019342618e-02   1.9742089934283252e-01   3.9726546059419110e-02   1.5872154251459566e-01   2.5347722128402683e-01   1.9987231190371910e-01   2.4804745191617078e-01   1.9432562404777345e-01   3.1357881216836120e-01   1.8320082242348529e-01   2.1802803571956197e-01   1.8163938613744590e-01   1.0929521491060831e-01   2.5166391445191827e-01   4.0609112550550802e-01   8.6493425419493473e-03   1.4995167346889771e-01   2.0328598243588833e-01   1.7884276478484559e-01   1.6180722216694474e-01   1.1244488658333107e-01   2.1863044553783806e-01   3.5922233372826939e-01   3.7134292603732377e-01   2.6910680480