<?xml version="1.0"?>
<VTKFile type="UnstructuredGrid"  version="0.1"  >
<UnstructuredGrid>
<Piece  NumberOfPoints="1863" NumberOfCells="3341">
<Points>
<DataArray  type="Float64"  NumberOfComponents="3"  format="ascii">3 0.3578783626580142 0  2.837980074580334 0.3519202983213376 0  3 0.562360081589721 0  2.668095006086507 0.3361900121730148 0  2.851377214834756 0.5541316445042701 0  3 0.7513957619668947 0  2.486405553557287 0.3152074047430488 0  2.689313205761768 0.5339698086426523 0  2.869719245232929 0.7394384904658591 0  3 0.9113080676370099 0  2.292893218813248 0.2928932188132478 0  2.509760203133004 0.509760203133004 0  2.714421710057237 0.7144217100572372 0  2.89402123560811 0.8940212356081096 0  3 1 0  2.315207404743049 0.4864055535572865 0  2.533969808642652 0.6893132057617682 0  2.739438490465859 0.8697192452329295 0  2.91130806763701 1 0  3 1.08869193236299 0  3.10597876439189 1.10597876439189 0  3.08869193236299 1 0  2.336190012173015 0.6680950060865074 0  2.55413164450427 0.8513772148347567 0  2.751395761966895 1 0  2.89402123560811 1.10597876439189 0  3 1.248604238033105 0  3.130280754767071 1.260561509534141 0  3.285578289942763 1.285578289942763 0  3.260561509534141 1.130280754767071 0  3.248604238033105 1 0  2.351920298321338 0.8379800745803344 0  2.562360081589721 1 0  2.739438490465859 1.130280754767071 0  2.869719245232929 1.260561509534141 0  3 1.437639918410279 0  3.148622785165244 1.44586835549573 0  3.310686794238232 1.466030191357348 0  3.490239796866996 1.490239796866996 0  3.466030191357348 1.310686794238232 0  3.44586835549573 1.148622785165243 0  3.437639918410279 1 0  2.357878362658014 1 0  2.55413164450427 1.148622785165243 0  2.714421710057237 1.285578289942763 0  2.851377214834756 1.44586835549573 0  3 1.642121637341986 0  3.162019925419666 1.648079701678662 0  3.331904993913493 1.663809987826985 0  3.513594446442713 1.684792595256951 0  3.707106781186752 1.707106781186752 0  3.684792595256951 1.513594446442713 0  3.663809987826985 1.331904993913493 0  3.648079701678662 1.162019925419666 0  3.642121637341986 1 0  2.351920298321338 1.162019925419666 0  2.533969808642652 1.310686794238232 0  2.689313205761768 1.466030191357348 0  2.837980074580334 1.648079701678662 0  2.336190012173015 1.331904993913493 0  2.509760203133004 1.490239796866996 0  2.668095006086507 1.663809987826985 0  2.315207404743049 1.513594446442713 0  2.486405553557287 1.684792595256951 0  2.292893218813248 1.707106781186752 0  2 4.642121637341986 0  1.837980074580335 4.648079701678663 0  2 4.437639918410279 0  1.668095006086507 4.663809987826985 0  1.851377214834757 4.44586835549573 0  2 4.248604238033105 0  1.486405553557287 4.684792595256951 0  1.689313205761768 4.466030191357348 0  1.869719245232929 4.260561509534141 0  2 4.08869193236299 0  1.292893218813248 4.707106781186752 0  1.509760203133004 4.490239796866996 0  1.714421710057237 4.285578289942762 0  1.89402123560811 4.105978764391891 0  2 4 0  1.315207404743049 4.513594446442713 0  1.533969808642652 4.310686794238232 0  1.739438490465859 4.13028075476707 0  1.91130806763701 4 0  2 3.91130806763701 0  2.10597876439189 3.89402123560811 0  2.08869193236299 4 0  1.336190012173015 4.331904993913493 0  1.55413164450427 4.148622785165244 0  1.751395761966895 4 0  1.89402123560811 3.89402123560811 0  2 3.751395761966895 0  2.130280754767071 3.739438490465859 0  2.285578289942763 3.714421710057237 0  2.260561509534141 3.869719245232929 0  2.248604238033105 4 0  1.351920298321338 4.162019925419665 0  1.562360081589721 4 0  1.739438490465859 3.869719245232929 0  1.869719245232929 3.739438490465859 0  2 3.562360081589721 0  2.148622785165244 3.55413164450427 0  2.310686794238232 3.533969808642652 0  2.490239796866996 3.509760203133004 0  2.466030191357348 3.689313205761768 0  2.44586835549573 3.851377214834756 0  2.437639918410279 4 0  1.357878362658014 4 0  1.55413164450427 3.851377214834756 0  1.714421710057237 3.714421710057237 0  1.851377214834757 3.55413164450427 0  2 3.357878362658014 0  2.162019925419666 3.351920298321338 0  2.331904993913493 3.336190012173015 0  2.513594446442713 3.315207404743049 0  2.707106781186752 3.292893218813248 0  2.684792595256951 3.486405553557287 0  2.663809987826985 3.668095006086507 0  2.648079701678662 3.837980074580334 0  2.642121637341986 4 0  1.351920298321338 3.837980074580334 0  1.533969808642652 3.689313205761768 0  1.689313205761768 3.533969808642652 0  1.837980074580334 3.351920298321338 0  1.336190012173015 3.668095006086507 0  1.509760203133004 3.509760203133004 0  1.668095006086507 3.336190012173015 0  1.315207404743049 3.486405553557287 0  1.486405553557287 3.315207404743049 0  1.292893218813248 3.292893218813248 0  -6 5.642121637341986 0  -5.837980074580335 5.648079701678663 0  -6 5.437639918410279 0  -5.668095006086507 5.663809987826985 0  -5.851377214834756 5.44586835549573 0  -6 5.248604238033105 0  -5.486405553557287 5.684792595256951 0  -5.689313205761768 5.466030191357348 0  -5.86971924523293 5.260561509534141 0  -6 5.08869193236299 0  -5.292893218813248 5.707106781186752 0  -5.509760203133004 5.490239796866996 0  -5.714421710057238 5.285578289942762 0  -5.894021235608109 5.105978764391891 0  -6 5 0  -5.315207404743049 5.513594446442713 0  -5.533969808642652 5.310686794238232 0  -5.739438490465859 5.13028075476707 0  -5.91130806763701 5 0  -6 4.91130806763701 0  -6.105978764391891 4.894021235608109 0  -6.08869193236299 5 0  -5.336190012173015 5.331904993913493 0  -5.55413164450427 5.148622785165244 0  -5.751395761966895 5 0  -5.894021235608109 4.894021235608109 0  -6 4.751395761966895 0  -6.13028075476707 4.739438490465859 0  -6.285578289942762 4.714421710057238 0  -6.260561509534141 4.86971924523293 0  -6.248604238033105 5 0  -5.351920298321337 5.162019925419665 0  -5.562360081589721 5 0  -5.739438490465859 4.86971924523293 0  -5.86971924523293 4.739438490465859 0  -6 4.562360081589721 0  -6.148622785165244 4.55413164450427 0  -6.310686794238232 4.533969808642652 0  -6.490239796866996 4.509760203133004 0  -6.466030191357348 4.689313205761768 0  -6.44586835549573 4.851377214834756 0  -6.437639918410279 5 0  -5.357878362658014 5 0  -5.55413164450427 4.851377214834756 0  -5.714421710057238 4.714421710057238 0  -5.851377214834756 4.55413164450427 0  -6 4.357878362658014 0  -6.162019925419665 4.351920298321337 0  -6.331904993913493 4.336190012173015 0  -6.513594446442713 4.315207404743049 0  -6.707106781186752 4.292893218813248 0  -6.684792595256951 4.486405553557287 0  -6.663809987826985 4.668095006086507 0  -6.648079701678663 4.837980074580335 0  -6.642121637341986 5 0  -5.351920298321337 4.837980074580335 0  -5.533969808642652 4.689313205761768 0  -5.689313205761768 4.533969808642652 0  -5.837980074580335 4.351920298321337 0  -5.336190012173015 4.668095006086507 0  -5.509760203133004 4.509760203133004 0  -5.668095006086507 4.336190012173015 0  -5.315207404743049 4.486405553557287 0  -5.486405553557287 4.315207404743049 0  -5.292893218813248 4.292893218813248 0  -5 2.357878362658014 0  -4.837980074580335 2.351920298321338 0  -5 2.562360081589721 0  -4.668095006086507 2.336190012173015 0  -4.851377214834756 2.55413164450427 0  -5 2.751395761966895 0  -4.486405553557287 2.315207404743049 0  -4.689313205761768 2.533969808642652 0  -4.86971924523293 2.739438490465859 0  -5 2.91130806763701 0  -4.292893218813248 2.292893218813248 0  -4.509760203133004 2.509760203133004 0  -4.714421710057238 2.714421710057237 0  -4.894021235608109 2.89402123560811 0  -5 3 0  -4.315207404743049 2.486405553557287 0  -4.533969808642652 2.689313205761768 0  -4.739438490465859 2.869719245232929 0  -4.91130806763701 3 0  -5 3.08869193236299 0  -5.105978764391891 3.10597876439189 0  -5.08869193236299 3 0  -4.336190012173015 2.668095006086507 0  -4.55413164450427 2.851377214834756 0  -4.751395761966895 3 0  -4.894021235608109 3.10597876439189 0  -5 3.248604238033105 0  -5.13028075476707 3.260561509534141 0  -5.285578289942762 3.285578289942763 0  -5.260561509534141 3.130280754767071 0  -5.248604238033105 3 0  -4.351920298321337 2.837980074580334 0  -4.562360081589721 3 0  -4.739438490465859 3.130280754767071 0  -4.86971924523293 3.260561509534141 0  -5 3.437639918410279 0  -5.148622785165244 3.44586835549573 0  -5.310686794238232 3.466030191357348 0  -5.490239796866996 3.490239796866996 0  -5.466030191357348 3.310686794238232 0  -5.44586835549573 3.148622785165244 0  -5.437639918410279 3 0  -4.357878362658014 3 0  -4.55413164450427 3.148622785165244 0  -4.714421710057238 3.285578289942763 0  -4.851377214834756 3.44586835549573 0  -5 3.642121637341986 0  -5.162019925419665 3.648079701678662 0  -5.331904993913493 3.663809987826985 0  -5.513594446442713 3.684792595256951 0  -5.707106781186752 3.707106781186752 0  -5.684792595256951 3.513594446442713 0  -5.663809987826985 3.331904993913493 0  -5.648079701678663 3.162019925419666 0  -5.642121637341986 3 0  -4.351920298321337 3.162019925419666 0  -4.533969808642652 3.310686794238232 0  -4.689313205761768 3.466030191357348 0  -4.837980074580335 3.648079701678662 0  -4.336190012173015 3.331904993913493 0  -4.509760203133004 3.490239796866996 0  -4.668095006086507 3.663809987826985 0  -4.315207404743049 3.513594446442713 0  -4.486405553557287 3.684792595256951 0  -4.292893218813248 3.707106781186752 0  5 1 0  5 1.1875 0  4.830265204667748 1 0  4.77562324865802 1.192679506345228 0  4.787911267192283 1.348081986778286 0  5 1.375 0  4.660530409335497 1 0  4.633059348939607 1.366021042988467 0  4.541978946488643 1.175143747516595 0  4.490795614003245 1 0  4.795362838541691 1.50379133270418 0  5 1.5625 0  4.359954284754179 1.282832206312045 0  4.321060818670993 1 0  4.457676687866868 1.451904123929002 0  4.607881543291101 1.536622050583134 0  4.689532883909252 1.688515711625484 0  4.856235702683054 1.661343413014644 0  5 1.75 0  4.238111322001059 1.40000554689391 0  4.378421381089813 1.630379830243528 0  4.52610451519947 1.664149318775792 0  4.505222861494965 1.814198120819483 0  4.659530852044655 1
[...]
<CellData  Scalars="f_6954"> 
<DataArray  type="Float64"  Name="f_6954"  format="ascii">0.0000000000000000e+00   3.0065373274821599e-02   3.0065373274820180e-02   3.0065373274821599e-02   4.6294241660219768e-02   1.0859243857413933e-01   4.2865731879473387e-04   1.0859243857413933e-01   4.6294241660221003e-02   4.2865731879331622e-04   1.0859243857414091e-01   1.0859243857414091e-01   6.7090698133936061e-02   4.1148995070369870e-02   6.7090698133937476e-02   6.7090698133937476e-02   1.7760076187189952e-01   3.4481583453777331e-01   3.4481583453777409e-01   3.4481583453777409e-01   1.1303597877868374e-01   1.3458784218520475e-01   2.1206495682658102e-01   1.1303597877868374e-01   1.1303597877868252e-01   2.1206495682658028e-01   1.3458784218520634e-01   1.1303597877868252e-01   2.1206495682658102e-01   1.3458784218520634e-01   2.1206495682658028e-01   3.6224298349625379e-02   7.5839548097436538e-02   6.9700215945871682e-02   1.1629630606599074e-01   7.2572971608572651e-02   2.7500109711729712e-02   5.6871684441948095e-02   4.6684299824871614e-02   3.0422571663869035e-02   3.5995891742161701e-01   1.9309479438343338e-01   1.6320414937216698e-01   3.5995891742161701e-01   4.6684299824871614e-02   7.3707496853679361e-02   1.3538723391964705e-01   1.0162654382289268e-01   0.0000000000000000e+00   7.2572971608574274e-02   6.9700215945871058e-02   7.2572971608574274e-02   3.5995891742161701e-01   1.6320414937216698e-01   1.3538723391964627e-01   3.5995891742161701e-01   2.7500109711729333e-02   4.6684299824871794e-02   5.6871684441948095e-02   3.0422571663869406e-02   1.3538723391964627e-01   7.3707496853679361e-02   4.6684299824871794e-02   1.0162654382289345e-01   7.5839548097436149e-02   1.1629630606598995e-01   6.9700215945871058e-02   7.2572971608574274e-02   3.5995891742161734e-01   1.6320414937216673e-01   1.9309479438343441e-01   3.5995891742161734e-01   2.7500109711730249e-02   4.6684299824871413e-02   5.6871684441948095e-02   3.0422571663869035e-02   1.3538723391964599e-01   7.3707496853679361e-02   4.6684299824871413e-02   1.0162654382289345e-01   0.0000000000000000e+00   6.9700215945871488e-02   7.2572971608572859e-02   7.2572971608572859e-02   2.7500109711730249e-02   5.6871684441948706e-02   4.6684299824871614e-02   3.0422571663869035e-02   3.5995891742161734e-01   1.3538723391964680e-01   1.6320414937216673e-01   3.5995891742161734e-01   4.6684299824871614e-02   7.3707496853678736e-02   1.3538723391964680e-01   1.0162654382289206e-01   0.0000000000000000e+00   3.0065373274820180e-02   3.0065373274821599e-02   3.0065373274821599e-02   4.6294241660221003e-02   1.0859243857414091e-01   4.2865731879331622e-04   1.0859243857414091e-01   4.6294241660219768e-02   4.2865731879473387e-04   1.0859243857413933e-01   1.0859243857413933e-01   6.7090698133937476e-02   4.1148995070369870e-02   6.7090698133936061e-02   6.7090698133937476e-02   1.7760076187190174e-01   3.4481583453777409e-01   3.4481583453777331e-01   3.4481583453777409e-01   1.1303597877868252e-01   1.3458784218520634e-01   2.1206495682658028e-01   1.1303597877868252e-01   1.1303597877868374e-01   2.1206495682658102e-01   1.3458784218520475e-01   1.1303597877868374e-01   2.1206495682658028e-01   1.3458784218520634e-01   2.1206495682658102e-01   3.6224298349625379e-02   7.5839548097435303e-02   6.9700215945871891e-02   1.1629630606598995e-01   7.2572971608573442e-02   2.7500109711730097e-02   5.6871684441946818e-02   4.6684299824870490e-02   3.0422571663867148e-02   3.5995891742161401e-01   1.9309479438343327e-01   1.6320414937216549e-01   3.5995891742161401e-01   4.6684299824870490e-02   7.3707496853683982e-02   1.3538723391964716e-01   1.0162654382289570e-01   0.0000000000000000e+00   7.2572971608576509e-02   6.9700215945871807e-02   7.2572971608576509e-02   3.5995891742161518e-01   1.6320414937216435e-01   1.3538723391964400e-01   3.5995891742161518e-01   2.7500109711729163e-02   4.6684299824870448e-02   5.6871684441949670e-02   3.0422571663868081e-02   1.3538723391964400e-01   7.3707496853681137e-02   4.6684299824870448e-02   1.0162654382289486e-01   7.5839548097436746e-02   1.1629630606599142e-01   6.9700215945871086e-02   7.2572971608572179e-02   3.5995891742161834e-01   1.6320414937216737e-01   1.9309479438343366e-01   3.5995891742161834e-01   2.7500109711729163e-02   4.6684299824872003e-02   5.6871684441949275e-02   3.0422571663868459e-02   1.3538723391964747e-01   7.3707496853678098e-02   4.6684299824872003e-02   1.0162654382289141e-01   0.0000000000000000e+00   6.9700215945871086e-02   7.2572971608572179e-02   7.2572971608572179e-02   2.7500109711729163e-02   5.6871684441949275e-02   4.6684299824872003e-02   3.0422571663868459e-02   3.5995891742161834e-01   1.3538723391964747e-01   1.6320414937216737e-01   3.5995891742161834e-01   4.6684299824872003e-02   7.3707496853678098e-02   1.3538723391964747e-01   1.0162654382289141e-01   0.0000000000000000e+00   3.0065373274820895e-02   3.0065373274820895e-02   3.0065373274820895e-02   4.6294241660217783e-02   1.0859243857414533e-01   4.2865731879792197e-04   1.0859243857414533e-01   4.6294241660217783e-02   4.2865731879792197e-04   1.0859243857414533e-01   1.0859243857414533e-01   6.7090698133939669e-02   4.1148995070367497e-02   6.7090698133939669e-02   6.7090698133939669e-02   1.7760076187190155e-01   3.4481583453777370e-01   3.4481583453777370e-01   3.4481583453777370e-01   1.1303597877868556e-01   1.3458784218520020e-01   2.1206495682657839e-01   1.1303597877868556e-01   1.1303597877868556e-01   2.1206495682657839e-01   1.3458784218520020e-01   1.1303597877868556e-01   2.1206495682657839e-01   1.3458784218520020e-01   2.1206495682657839e-01   3.6224298349627884e-02   7.5839548097435039e-02   6.9700215945872043e-02   1.1629630606598965e-01   7.2572971608575315e-02   2.7500109711730097e-02   5.6871684441949164e-02   4.6684299824869914e-02   3.0422571663865423e-02   3.5995891742161318e-01   1.9309479438343172e-01   1.6320414937216354e-01   3.5995891742161318e-01   4.6684299824869914e-02   7.3707496853685342e-02   1.3538723391964572e-01   1.0162654382289654e-01   0.0000000000000000e+00   7.2572971608575315e-02   6.9700215945872043e-02   7.2572971608575315e-02   3.5995891742161318e-01   1.6320414937216354e-01   1.3538723391964572e-01   3.5995891742161318e-01   2.7500109711730097e-02   4.6684299824869914e-02   5.6871684441949164e-02   3.0422571663865423e-02   1.3538723391964572e-01   7.3707496853685342e-02   4.6684299824869914e-02   1.0162654382289654e-01   7.5839548097435039e-02   1.1629630606598965e-01   6.9700215945872043e-02   7.2572971608575315e-02   3.5995891742161318e-01   1.6320414937216354e-01   1.9309479438343172e-01   3.5995891742161318e-01   2.7500109711730097e-02   4.6684299824869914e-02   5.6871684441949164e-02   3.0422571663865423e-02   1.3538723391964572e-01   7.3707496853685342e-02   4.6684299824869914e-02   1.0162654382289654e-01   0.0000000000000000e+00   6.9700215945872043e-02   7.2572971608575315e-02   7.2572971608575315e-02   2.7500109711730097e-02   5.6871684441949164e-02   4.6684299824869914e-02   3.0422571663865423e-02   3.5995891742161318e-01   1.3538723391964572e-01   1.6320414937216354e-01   3.5995891742161318e-01   4.6684299824869914e-02   7.3707496853685342e-02   1.3538723391964572e-01   1.0162654382289654e-01   0.0000000000000000e+00   3.0065373274820895e-02   3.0065373274820895e-02   3.0065373274820895e-02   4.6294241660220142e-02   1.0859243857414165e-01   4.2865731879556019e-04   1.0859243857414165e-01   4.6294241660217735e-02   4.2865731879650491e-04   1.0859243857414391e-01   1.0859243857414391e-01   6.7090698133938281e-02   4.1148995070368878e-02   6.7090698133938281e-02   6.7090698133938281e-02   1.7760076187189955e-01   3.4481583453777370e-01   3.4481583453777226e-01   3.4481583453777370e-01   1.1303597877868408e-01   1.3458784218520184e-01   2.1206495682657839e-01   1.1303597877868408e-01   1.1303597877868442e-01   2.1206495682658102e-01   1.3458784218520317e-01   1.1303597877868442e-01   2.1206495682657839e-01   1.3458784218520317e-01   2.1206495682658102e-01   3.6224298349627787e-02   7.5839548097436094e-02   6.9700215945870989e-02   1.1629630606598851e-01   7.2572971608576356e-02   2.7500109711729163e-02   5.6871684441950239e-02   4.6684299824870837e-02   3.0422571663867502e-02   3.5995891742161618e-01   1.9309479438343441e-01   1.6320414937216499e-01   3.5995891742161618e-01   4.6684299824870837e-02   7.3707496853680485e-02   1.3538723391964455e-01   1.0162654382289431e-01   0.0000000000000000e+00   7.2572971608571152e-02   6.9700215945872127e-02   7.2572971608571152e-02   3.5995891742161512e-01   1.6320414937216615e-01   1.3538723391964860e-01   3.5995891742161512e-01   2.7500109711730097e-02   4.6684299824871073e-02   5.6871684441948005e-02   3.0422571663866568e-02   1.3538723391964860e-01   7.3707496853682719e-02   4.6684299824871073e-02   1.0162654382289361e-01   7.5839548097435261e-02   1.1629630606599255e-01   6.9700215945872127e-02   7.2572971608571152e-02   3.5995891742161512e-01   1.6320414937216615e-01   1.9309479438343172e-01   3.5995891742161512e-01   2.7500109711730097e-02   4.6684299824871073e-02   5.6871684441948005e-02   3.0422571663866568e-02   1.3538723391964860e-01   7.3707496853682719e-02   4.6684299824871073e-02   1.0162654382289361e-01   0.0000000000000000e+00   6.9700215945870989e-02   7.2572971608576356e-02   7.2572971608576356e-02   2.7500109711729163e-02   5.6871684441950239e-02   4.6684299824870837e-02   3.0422571663867502e-02   3.5995891742161618e-01   1.3538723391964455e-01   1.6320414937216499e-01   3.5995891742161618e-01   4.6684299824870837e-02   7.3707496853680485e-02   1.3538723391964455e-01   1.0162654382289431e-01   8.3151047975314418e-02   2.8330859505919431e-01   2.2578301822808730e-01   3.7975725522969531e-02   3.3063491522141519e-01   0.0000000000000000e+00   2.0091784363911558e-01   2.5098576177073402e-02   1.0353285706729666e-01   1.2022585096957540e-01   6.1361804003780850e-02   3.1061993053940989e-01   6.9735445139343044e-02   1.5364727065513253e-01   1.9646811976597739e-01   6.6575074495056549e-02   5.9930982483370483e-02   7.8940707386013428e-02   1.8685176537524653e-01   3.5290497309599686e-16   1.7263346103057858e-01   0.0000000000000000e+00   2.3053831920142923e-01   5.7173559074247149e-02   2.5047655926706436e-01   1.6598131686005702e-01   6.4683584539348277e-02   7.8146876468207116e-02   5.2200411567333724e-02   2.5047655926706291e-01   2.6507708573706218e-01   3.2898541498469008e-01   8.9010720031941132e-02   1.1112409810629617e-01   2.2576892265585455e-01   2.6137986829685794e-01   2.5442447738364043e-01   2.5131348187517222e-01   1.8145834611978545e-01   6.1787008937931188e-02   1.2246516321193104e-01   3.0314423151015985e-01   1.3570345802397418e-01   1.1788257123149697e-01   1.0829995542840190e-01   1.8414256640948934e-01   1.9184251022978688e-01   5.0668925729465339e-02   2.0535182692268571e-02   1.1709009524396617e-01   1.0395919764189564e-01   2.4259781822824167e-01   7.9793815759654760e-02   3.5624180236056474e-01   4.3377424707150397e-01   5.3893611959331122e-02   2.7275064811117850e-01   2.7863631821884488e-01   1.5290576211062118e-01   1.6178985332326989e-01   2.4935706841833780e-01   0.0000000000000000e+00   6.9728890951711670e-02   1.1291669776077419e-01   2.6160902185863005e-01   1.8669471919046066e-01   4.6036721227321283e-02   2.6416065310522313e-01   2.1976491975292131e-01   6.3670959993423024e-02   9.1437607583811129e-02   1.6903861436081730e-01   6.0663819647125097e-02   3.3400891707204600e-01   6.3057886627997273e-02   1.8916099062377878e-01   1.3116903153639406e-01   9.9135343247001406e-02   1.5551554211007149e-01   4.3220324160390000e-01   7.1097573604270797e-02   8.3978051721687319e-02   1.6958145808390340e-01   5.2415563020288991e-02   6.1060441146070357e-02   2.7011084616302811e-01   2.5442447738364043e-01   5.9982591955405111e-02   5.9982591955406644e-02   4.0527156313199542e-01   3.4023006767912112e-01   2.1911780623264321e-01   9.9747193433664602e-02   4.0135726568617303e-01   4.5066497888003154e-02   2.0509703871568566e-01   1.3889672134135023e-01   2.5745692615588522e-01   3.2505395269231691e-01   5.6431873937586842e-02   2.4325612698365512e-01   2.5944220519599531e-01   1.1998824824435657e-01   2.8626257522448528e-02   4.6620342963218202e-02   1.4732358409882199e-01   1.6061106422132390e-01   1.6034745953359109e-01   8.8380294450109961e-02   3.3720838716046225e-01   2.3686571061782180e-01   7.5252642873501724e-02   1.1086795515058896e-01   9.0714729867587426e-02   1.9093547739260519e-01   1.7885156245029327e-01   3.4317832013490296e-01   6.4671999879723094e-02   2.1381982436120256e-01   1.1040099604413174e-01   5.0432145086628388e-01   2.7756728660469315e-01   1.2667716068676646e-01   6.2012896826434363e-02   1.9298320392477494e-01   1.4881819516038355e-01   1.9503814988695173e-01   1.5590040344149708e-01   1.4822079836600138e-01   1.5633630915850585e-01   1.7530115092508847e-01   2.4258780966858362e-01   1.7294599949772158e-01   7.4761304606481407e-02   1.3756980424138018e-01   3.8124259415226382e-02   7.3569006823118080e-02   2.4679241332357849e-01   2.0600777312523108e-01   8.1808534941914118e-02   1.1697663734290348e-01   4.6388282346110081e-02   1.0000105124595800e-01   1.5735701662825996e-01   4.8266846508221745e-02   4.7905380323248918e-02   1.3889672134135023e-01   2.5049957247424182e-01   1.7885156245029327e-01   2.6061407247066920e-01   1.1044830711194965e-01   1.3020364752456778e-01   1.3227492614386074e-01   1.1482285479013163e-01   2.5592466384159129e-01   2.6121193147984262e-01   2.4737332112277918e-01   2.1713336183161769e-01   3.1886103634038147e-02   1.5811359689351517e-01   5.9630461216393045e-02   1.1164896299785974e-01   3.9758051451451705e-02   1.0373543488947697e-01   3.3127146896743487e-01   1.9697156809034605e-01   7.9113979503642837e-02   1.2339586330863411e-01   3.8423070527313052e-01   2.1868125166347796e-01   2.4054032284304291e-01   1.6420399947883429e-01   2.4339528041360853e-01   1.8170296686246770e-01   2.5049957247424182e-01   3.0828582276500199e-01   5.8978019739770307e-02   1.7541924927988017e-01   9.9697298460197231e-02   9.4667327940888057e-02   2.2311366127637228e-01   8.2259832888478684e-02   2.3394771538281591e-02   2.5665267957796223e-01   2.2450379148571944e-01   4.0827681627652691e-02   2.2570496425235559e-01   1.7518110995326713e-01   1.5518035173165587e-01   1.4078901454677981e-01   1.2985379418565246e-01   1.0867568699441227e-01   6.8342220889684821e-02   2.2882691978687109e-01   1.1417855945464248e-01   2.4315161658184337e-01   2.6928930992118699e-01   1.9137248265291765e-01   1.3407399093373357e-01   3.4982096310849015e-01   4.9580379681055678e-02   2.8612463016062586e-02   8.5995935725104750e-02   7.7742274450148016e-02   2.8794505048220065e-01   1.5185987857953995e-01   8.8727743266852274e-03   3.6411605947736507e-02   1.7955750621966537e-01   4.3761196903255245e-01   4.8773320081149631e-02   1.9462960532710646e-01   1.2913881741130806e-01   2.4814292340409902e-01   5.3567794476384829e-02   2.7375473992148613e-01   3.1597880143546905e-02   2.7375473992148613e-01   3.5710984271391250e-01   1.5611596084949075e-01   2.7716104712598461e-01   1.1328987889756072e-01   1.8993304331270852e-01   3.3092168878680078e-01   3.5710984271391250e-01   3.4688537573184802e-01   3.3288713799612246e-01   1.1361836078787869e-01   1.1952978149843642e-01   1.5118897492812208e-01   3.5477830434788932e-01   4.0075773707180899e-02   3.7461507829333033e-04   5.6562868998062110e-01   2.2903136330460935e-01   8.1422392917252270e-02   1.7079117898038152e-02   2.1976491975292092e-01   5.6872978633092508e-01   3.5800326891179896e-01   2.4814292340409752e-01   1.2018300885846983e-01   0.0000000000000000e+00   2.4951016873492757e-01   1.5912068729761877e-01   2.2882465579191158e-01   2.5559123621463925e-01   1.8157009879766159e-01   1.1335671198388519e-01   3.3308189517932135e-01   1.7909810071753884e-01   1.2633179917321277e-01   4.0658758166704480e-02   7.7916483525450511e-02   7.9443874364439573e-02   3.8649434396846642e-02   2.5047655926706436e-01   1.1711260568437115e-01   2.1488720956327637e-01   3.9231398442434445e-01   1.7822394042718517e-01   3.3840505403242449e-01   5.7834437548621330e-03   2.5495812359371900e-01   2.5290668321003584e-01   2.2272725587825043e-01   1.5659334523494867e-01   1.4590963393369551e-02   1.1992989503438982e-01   1.5522446182922456e-01   2.5945273173000150e-01   3.6306281149333841e-01   2.0887364735621861e-01   2.9281415695641055e-01   2.0888456981970632e-01   1.5185219769941344e-01   1.2721666299830650e-01   2.9327320559822536e-02   3.1220769228512785e-01   2.9209451454370466e-01   2.6544608450933804e-01   1.6109274538770607e-01   2.6451053892177312e-01   2.0407955184206125e-01   9.7840230843585452e-02   1.4840848789101044e-01   5.2363146404587772e-02   3.2869516287536171e-01   3.4332732505067722e-02   2.7159990201667294e-01   7.2032658288251492e-02   9.4766859931131278e-02   1.5988254926241824e-01   2.4951016873492768e-01   2.7112801995565816e-01   2.1035030350426281e-01   1.8421524780710721e-01   2.2957048627507698e-01   1.8862067163180682e-01   9.1331152765052312e-02   1.1974516286441814e-01   8.6792196368549970e-02   4.9446382376480601e-02   3.5739223559898566e-02   4.3377424707150397e-01   2.5940113329954845e-01   2.2560778741141244e-01   3.3706292567078183e-01   7.4533059775466898e-02   1.1541341440567912e-01   4.1581790932737794e-01   2.0089316632902268e-01   2.9817402204702215e-01   7.4164294261435046e-02   2.3960323196914060e-01   2.7011084616302811e-01   2.9147173066623500e-01   1.0899824921825686e-01   2.2161208790399654e-02   2.5799584468548475e-01   1.8860056829660676e-01   3.5873446287653266e-01   1.3150290314802401e-01   2.8039465514909018e-01   2.2954103384787605e-01   5.4860246116527504e-02   3.2877596818230465e-02   3.6183266696236915e-01   3.8216841229124832e-01   2.4530970487995762e-01   2.5259420836237545e-01   7.3598982657392689e-02   2.6988155157656118e-01   2.7118582590358306e-02   2.8166365629500839e-01   5.7972181236047526e-02   3.6356119150332689e-01   1.7294599949772158e-01   2.9665235763654668e-01   3.5913373384563158e-01   3.5261833608565962e-01   8.3387025357433739e-02   3.1266065851043512e-01   2.3965529205171568e-01   1.1782667179563339e-01   2.5682107083395495e-01   1.8791011705876642e-01   1.8791011705876659e-01   3.5639210987658770e-01   4.2922047085728644e-02   1.4889313731233375e-01   2.8155293874913340e-01   1.3393513729057688e-01   7.9657720095853105e-02   1.2858019040728569e-01   1.5551554211007149e-01   1.9082191485934746e-01   3.4688537573184802e-01   1.4772583626858560e-01   4.1134354605843682e-01   9.8149857361455914e-02   2.6137851901359588e-01   2.1464403711068789e-01   5.1208536975296252e-02   1.4182571271431645e-03   2.8378243429473637e-01   5.5992059782077252e-03   5.3817115913614251e-03   1.0592211005997566e-01   7.1493340454587811e-03   2.6330045525986201e-01   7.2171003027519373e-02   8.5348416791411252e-02   5.3225247131143544e-02   2.4858067734477834e-01   2.4239240476483962e-02   3.8889335705873396e-01   8.6951920566745666e-02   2.0848916973780898e-01   1.6842818104681054e-01   5.1706795633816172e-01   3.5802793269901639e-01   1.0586711417222196e-01   6.3826081637520821e-02   3.7529135952838487e-02   2.7022200232394178e-01   3.6738782294291672e-01   2.3062188698554253e-01   6.1204025811938942e-02   1.1040099604413163e-01   4.3197364591959116e-02   3.4023006767912112e-01   2.0258850806204806e-01   3.3527809105449308e-01   4.4531789648036522e-02   2.6544608450933804e-01   2.5427084328957067e-01   1.1992047731864604e-01   1.1788257123149697e-01   6.6827740446885081e-02   3.3709382649815983e-01   2.3904442926909422e-01   1.2359110872540885e-01   4.0110768017306481e-01   2.1472039993475556e-01   1.9732314743022300e-01   1.3699740664766563e-01   7.5053474621422117e-02   3.3719345178934906e-02   2.2137201273502413e-01   3.5948054758837705e-01   1.8494001867021967e-01   3.7322849012