<?xml version="1.0"?>
<VTKFile type="UnstructuredGrid"  version="0.1"  >
<UnstructuredGrid>
<Piece  NumberOfPoints="6432" NumberOfCells="12116">
<Points>
<DataArray  type="Float64"  NumberOfComponents="3"  format="ascii">3 0.3819660112504897 0  2.843408347405157 0.3736333896206288 0  3 0.5986121811345446 0  2.675884240244967 0.3517684804899346 0  2.862309893853584 0.5869296815607524 0  3 0.7928932188140729 0  2.492225278930009 0.3229670385733456 0  2.705578223215987 0.5583673348239806 0  2.88819660112527 0.77639320225054 0  3 0.9409830056258242 0  2.292893218813648 0.2928932188136479 0  2.524397193004713 0.5243971930047131 0  2.741180954897836 0.7411809548978358 0  2.920540688701558 0.9205406887015585 0  3 1 0  2.322967038573346 0.4922252789300092 0  2.558367334823981 0.7055782232159871 0  2.77639320225054 0.88819660112527 0  2.940983005625824 1 0  3 1.059016994374176 0  3.079459311298442 1.079459311298441 0  3.059016994374176 1 0  2.351768480489935 0.6758842402449674 0  2.586929681560752 0.8623098938535841 0  2.792893218814073 1 0  2.920540688701558 1.079459311298441 0  3 1.207106781185927 0  3.11180339887473 1.22360679774946 0  3.258819045102164 1.258819045102164 0  3.22360679774946 1.11180339887473 0  3.207106781185927 1 0  2.373633389620628 0.843408347405157 0  2.598612181134545 1 0  2.77639320225054 1.11180339887473 0  2.88819660112527 1.22360679774946 0  3 1.401387818865455 0  3.137690106146416 1.413070318439248 0  3.294421776784013 1.441632665176019 0  3.475602806995287 1.475602806995287 0  3.441632665176019 1.294421776784013 0  3.413070318439248 1.137690106146416 0  3.401387818865455 1 0  2.38196601125049 1 0  2.586929681560752 1.137690106146416 0  2.741180954897836 1.258819045102164 0  2.862309893853584 1.413070318439248 0  3 1.61803398874951 0  3.156591652594843 1.626366610379372 0  3.324115759755033 1.648231519510065 0  3.507774721069991 1.677032961426654 0  3.707106781186353 1.707106781186352 0  3.677032961426654 1.507774721069991 0  3.648231519510065 1.324115759755033 0  3.626366610379372 1.156591652594843 0  3.61803398874951 1 0  2.373633389620628 1.156591652594843 0  2.558367334823981 1.294421776784013 0  2.705578223215987 1.441632665176019 0  2.843408347405157 1.626366610379372 0  2.351768480489935 1.324115759755033 0  2.524397193004713 1.475602806995287 0  2.675884240244967 1.648231519510065 0  2.322967038573346 1.507774721069991 0  2.492225278930009 1.677032961426654 0  2.292893218813647 1.707106781186352 0  2 4.61803398874951 0  1.843408347405157 4.626366610379371 0  2 4.401387818865455 0  1.675884240244967 4.648231519510065 0  1.862309893853584 4.413070318439248 0  2 4.207106781185927 0  1.492225278930009 4.677032961426654 0  1.705578223215987 4.441632665176019 0  1.88819660112527 4.22360679774946 0  2 4.059016994374176 0  1.292893218813648 4.707106781186353 0  1.524397193004713 4.475602806995287 0  1.741180954897836 4.258819045102165 0  1.920540688701559 4.079459311298441 0  2 4 0  1.322967038573346 4.507774721069991 0  1.558367334823981 4.294421776784013 0  1.77639320225054 4.11180339887473 0  1.940983005625824 4 0  2 3.940983005625824 0  2.079459311298442 3.920540688701558 0  2.059016994374176 4 0  1.351768480489935 4.324115759755033 0  1.586929681560752 4.137690106146416 0  1.792893218814073 4 0  1.920540688701559 3.920540688701558 0  2 3.792893218814073 0  2.11180339887473 3.77639320225054 0  2.258819045102164 3.741180954897836 0  2.22360679774946 3.88819660112527 0  2.207106781185927 4 0  1.373633389620628 4.156591652594843 0  1.598612181134545 4 0  1.77639320225054 3.88819660112527 0  1.88819660112527 3.77639320225054 0  2 3.598612181134545 0  2.137690106146416 3.586929681560752 0  2.294421776784013 3.558367334823981 0  2.475602806995287 3.524397193004713 0  2.441632665176019 3.705578223215987 0  2.413070318439248 3.862309893853584 0  2.401387818865455 4 0  1.38196601125049 4 0  1.586929681560752 3.862309893853584 0  1.741180954897836 3.741180954897836 0  1.862309893853584 3.586929681560752 0  2 3.38196601125049 0  2.156591652594843 3.373633389620628 0  2.324115759755033 3.351768480489935 0  2.507774721069991 3.322967038573346 0  2.707106781186353 3.292893218813647 0  2.677032961426654 3.492225278930009 0  2.648231519510065 3.675884240244967 0  2.626366610379372 3.843408347405157 0  2.61803398874951 4 0  1.373633389620628 3.843408347405157 0  1.558367334823981 3.705578223215987 0  1.705578223215987 3.558367334823981 0  1.843408347405157 3.373633389620628 0  1.351768480489935 3.675884240244967 0  1.524397193004713 3.524397193004713 0  1.675884240244967 3.351768480489935 0  1.322967038573346 3.492225278930009 0  1.492225278930009 3.322967038573346 0  1.292893218813648 3.292893218813647 0  -6 5.61803398874951 0  -5.843408347405157 5.626366610379371 0  -6 5.401387818865455 0  -5.675884240244967 5.648231519510065 0  -5.862309893853584 5.413070318439248 0  -6 5.207106781185927 0  -5.492225278930009 5.677032961426654 0  -5.705578223215987 5.441632665176019 0  -5.88819660112527 5.22360679774946 0  -6 5.059016994374176 0  -5.292893218813647 5.707106781186353 0  -5.524397193004713 5.475602806995287 0  -5.741180954897835 5.258819045102165 0  -5.920540688701559 5.079459311298441 0  -6 5 0  -5.322967038573346 5.507774721069991 0  -5.558367334823981 5.294421776784013 0  -5.77639320225054 5.11180339887473 0  -5.940983005625824 5 0  -6 4.940983005625824 0  -6.079459311298441 4.920540688701559 0  -6.059016994374176 5 0  -5.351768480489935 5.324115759755033 0  -5.586929681560752 5.137690106146416 0  -5.792893218814073 5 0  -5.920540688701559 4.920540688701559 0  -6 4.792893218814073 0  -6.11180339887473 4.77639320225054 0  -6.258819045102165 4.741180954897835 0  -6.22360679774946 4.88819660112527 0  -6.207106781185927 5 0  -5.373633389620628 5.156591652594843 0  -5.598612181134545 5 0  -5.77639320225054 4.88819660112527 0  -5.88819660112527 4.77639320225054 0  -6 4.598612181134545 0  -6.137690106146416 4.586929681560752 0  -6.294421776784013 4.558367334823981 0  -6.475602806995287 4.524397193004713 0  -6.441632665176019 4.705578223215987 0  -6.413070318439248 4.862309893853584 0  -6.401387818865455 5 0  -5.38196601125049 5 0  -5.586929681560752 4.862309893853584 0  -5.741180954897835 4.741180954897835 0  -5.862309893853584 4.586929681560752 0  -6 4.38196601125049 0  -6.156591652594843 4.373633389620628 0  -6.324115759755033 4.351768480489935 0  -6.507774721069991 4.322967038573346 0  -6.707106781186353 4.292893218813647 0  -6.677032961426654 4.492225278930009 0  -6.648231519510065 4.675884240244967 0  -6.626366610379372 4.843408347405157 0  -6.61803398874951 5 0  -5.373633389620628 4.843408347405157 0  -5.558367334823981 4.705578223215987 0  -5.705578223215987 4.558367334823981 0  -5.843408347405157 4.373633389620628 0  -5.351768480489935 4.675884240244967 0  -5.524397193004713 4.524397193004713 0  -5.675884240244967 4.351768480489935 0  -5.322967038573346 4.492225278930009 0  -5.492225278930009 4.322967038573346 0  -5.292893218813647 4.292893218813647 0  -5 2.38196601125049 0  -4.843408347405157 2.373633389620629 0  -5 2.598612181134545 0  -4.675884240244967 2.351768480489935 0  -4.862309893853584 2.586929681560752 0  -5 2.792893218814073 0  -4.492225278930009 2.322967038573346 0  -4.705578223215987 2.558367334823981 0  -4.88819660112527 2.77639320225054 0  -5 2.940983005625824 0  -4.292893218813647 2.292893218813648 0  -4.524397193004713 2.524397193004713 0  -4.741180954897835 2.741180954897836 0  -4.920540688701559 2.920540688701558 0  -5 3 0  -4.322967038573346 2.492225278930009 0  -4.558367334823981 2.705578223215987 0  -4.77639320225054 2.88819660112527 0  -4.940983005625824 3 0  -5 3.059016994374176 0  -5.079459311298441 3.079459311298442 0  -5.059016994374176 3 0  -4.351768480489935 2.675884240244967 0  -4.586929681560752 2.862309893853584 0  -4.792893218814073 3 0  -4.920540688701559 3.079459311298442 0  -5 3.207106781185927 0  -5.11180339887473 3.22360679774946 0  -5.258819045102165 3.258819045102164 0  -5.22360679774946 3.11180339887473 0  -5.207106781185927 3 0  -4.373633389620628 2.843408347405157 0  -4.598612181134545 3 0  -4.77639320225054 3.11180339887473 0  -4.88819660112527 3.22360679774946 0  -5 3.401387818865455 0  -5.137690106146416 3.413070318439248 0  -5.294421776784013 3.441632665176019 0  -5.475602806995287 3.475602806995287 0  -5.441632665176019 3.294421776784013 0  -5.413070318439248 3.137690106146416 0  -5.401387818865455 3 0  -4.38196601125049 3 0  -4.586929681560752 3.137690106146416 0  -4.741180954897835 3.258819045102164 0  -4.862309893853584 3.413070318439248 0  -5 3.61803398874951 0  -5.156591652594843 3.626366610379372 0  -5.324115759755033 3.648231519510065 0  -5.507774721069991 3.677032961426654 0  -5.707106781186353 3.707106781186353 0  -5.677032961426654 3.507774721069991 0  -5.648231519510065 3.324115759755033 0  -5.626366610379372 3.156591652594843 0  -5.61803398874951 3 0  -4.373633389620628 3.156591652594843 0  -4.558367334823981 3.294421776784013 0  -4.705578223215987 3.441632665176019 0  -4.843408347405157 3.626366610379372 0  -4.351768480489935 3.324115759755033 0  -4.524397193004713 3.475602806995287 0  -4.675884240244967 3.648231519510065 0  -4.322967038573346 3.507774721069991 0  -4.492225278930009 3.677032961426654 0  -4.292893218813647 3.707106781186353 0  5 1 0  5 1.1875 0  4.827254248593689 1 0  5 1.375 0  4.774625127436217 1.190725542188815 0  4.654508497187377 1 0  4.795685564948176 1.503494320171386 0  5 1.5625 0  4.633229176833026 1.366257369669115 0  4.535571696635581 1.176836689821396 0  4.481762745781066 1 0  4.856267205581102 1.661206773798245 0  5 1.75 0  4.689409473820198 1.687699236167515 0  4.60784560155642 1.536324222026939 0  4.458027710481697 1.451934295621926 0  4.353363905980899 1.28736948322329 0  4.309016994374755 1 0  4.813772758633532 1.87305606464568 0  5 1.9375 0  4.658258320854826 1.842998343199929 0  4.530548399033449 1.675635120559427 0  4.377973042682878 1.629775066020617 0  4.241466707589882 1.467498817908458 0  4.068363
[...]
<CellData  Scalars="f_7201"> 
<DataArray  type="Float64"  Name="f_7201"  format="ascii">0.0000000000000000e+00   0.0000000000000000e+00   0.0000000000000000e+00   0.0000000000000000e+00   4.1343271293997973e-02   0.0000000000000000e+00   4.1343271293997973e-02   0.0000000000000000e+00   4.1343271293999187e-02   4.1343271293999187e-02   2.5378294136768678e-15   2.5378294136768678e-15   4.1343271293999187e-02   4.1343271293997973e-02   4.1343271293999187e-02   0.0000000000000000e+00   2.0347707930483308e-01   1.9048020784896130e-01   1.3510961791489348e-01   1.3510961791489348e-01   1.6107947586472057e-01   4.1523094414801937e-01   5.9661273172967363e-02   3.5379652846926632e-15   3.5398804340814037e-03   0.0000000000000000e+00   3.5398804340826076e-03   1.2042198444545752e-15   4.1523094414801937e-01   2.5847347977216084e-01   2.5847347977216201e-01   2.5847347977216201e-01   1.3510961791489315e-01   1.3510961791489315e-01   2.0347707930483205e-01   1.9048020784896033e-01   3.5398804340812788e-03   3.5398804340838162e-03   1.5654857977909480e-15   1.5654857977909480e-15   1.6107947586471591e-01   5.9661273172969057e-02   4.1523094414801759e-01   2.8303722277541267e-15   2.5847347977216240e-01   2.5847347977216240e-01   4.1523094414801759e-01   2.5847347977216084e-01   9.8131400258234913e-02   3.5398804340814037e-03   9.8131400258234913e-02   0.0000000000000000e+00   5.9661273172969057e-02   5.9661273172970888e-02   5.9661273172966232e-02   0.0000000000000000e+00   9.8131400258233706e-02   9.8131400258233706e-02   3.5398804340812788e-03   2.5378294136768678e-15   9.8131400258234913e-02   9.8131400258234913e-02   9.8131400258233706e-02   0.0000000000000000e+00   2.9524642248320693e-01   5.6639919332806328e-02   2.9524642248320970e-01   5.6639919332812351e-02   2.1364994132322365e-01   2.1364994132322365e-01   7.6254133549214154e-01   5.7219651649041503e-01   7.6254133549215031e-01   5.7219651649041603e-01   2.1364994132323506e-01   2.1364994132323506e-01   5.7219651649041603e-01   7.6254133549215031e-01   7.6254133549214154e-01   3.8243355719679501e-15   7.6773433032689423e-02   7.6773433032689423e-02   2.3756544835799995e-01   7.6773433032687396e-02   2.1461572874810220e-01   2.1461572874810500e-01   2.7728328463834095e-01   2.8303722277541346e-15   1.2742758903852933e-01   1.2742758903852933e-01   4.5372173611891414e-01   3.3107962721370221e-01   2.0988919337129730e-01   2.3756544835799995e-01   2.7728328463834095e-01   2.0988919337129536e-01   2.3756544835800028e-01   7.6773433032690699e-02   7.6773433032690699e-02   7.6773433032690699e-02   4.5372173611891564e-01   3.3107962721369871e-01   1.2742758903852397e-01   1.2742758903852397e-01   2.1461572874810508e-01   2.7728328463834551e-01   2.1461572874810667e-01   3.5379652846926632e-15   2.7728328463834551e-01   2.0988919337130060e-01   2.0988919337129811e-01   2.3756544835800028e-01   3.3107962721370221e-01   5.0282948740782332e-02   4.5372173611891414e-01   5.5378820161564275e-16   2.1461572874810667e-01   2.1461572874810508e-01   2.1461572874810220e-01   1.9309584077216648e-15   3.3107962721369871e-01   4.5372173611891564e-01   5.0282948740781236e-02   6.6454584193877272e-15   5.0282948740782332e-02   5.0282948740781236e-02   5.0282948740784268e-02   1.9309584077216648e-15   5.3938837682914728e-02   5.0509840976671654e-02   5.0509840976671654e-02   5.0509840976671654e-02   2.1288767338738551e-01   2.4746795856501688e-01   2.1288767338738582e-01   2.1288767338738582e-01   8.5155287053125597e-02   7.9989866738061202e-02   1.8065309901814053e-01   7.9989866738061646e-02   1.5785412819743908e-01   1.8065309901814053e-01   2.4746795856501688e-01   1.5785412819743908e-01   3.1056177011615399e-01   3.7435563857866122e-01   3.1056177011615216e-01   3.1056177011615216e-01   3.8221490830938049e-01   4.8832738504153900e-01   4.1642454543714363e-01   3.8221490830937904e-01   2.9844084056146908e-01   3.6906567589306288e-01   2.9844084056146908e-01   2.9844084056146908e-01   3.4526371182199711e-01   4.1642454543714363e-01   3.7435563857866122e-01   3.4526371182199711e-01   2.3960822929428102e-01   2.9524642248320970e-01   7.7023523435013008e-01   2.7188505495909748e-01   1.4152848527038905e-01   1.4152848527038905e-01   3.5714731353693130e-01   1.4152848527039266e-01   4.6373331838752774e-01   5.2777971186755535e-01   5.7047253137716847e-01   4.6373331838752774e-01   2.9558526753265446e-01   7.7023523435013008e-01   5.2777971186755535e-01   2.9558526753265796e-01   3.1371568001274031e-01   3.6535306815586494e-01   3.6906567589306288e-01   3.1371568001274075e-01   4.1710047134620465e-01   5.7047253137716847e-01   4.8832738504153900e-01   4.1710047134620271e-01   2.4778813084578322e-01   3.5714731353693130e-01   3.8228178126999812e-01   2.4778813084578366e-01   3.1320240825792578e-01   3.8228178126999812e-01   3.6535306815586494e-01   3.1320240825792822e-01   5.0509840976667761e-02   5.0509840976667761e-02   5.0509840976667761e-02   5.0509840976667761e-02   7.9989866738059731e-02   7.9989866738059731e-02   1.8065309901813717e-01   7.9989866738061063e-02   2.1288767338739017e-01   2.4746795856501885e-01   2.1288767338739017e-01   2.1288767338739017e-01   1.5785412819743677e-01   1.8065309901813717e-01   2.4746795856501885e-01   1.5785412819743677e-01   2.3960822929428535e-01   2.3960822929428535e-01   7.7023523435013408e-01   2.7188505495909915e-01   4.6373331838752596e-01   5.2777971186755368e-01   5.7047253137716836e-01   4.6373331838752596e-01   1.4152848527039302e-01   1.4152848527039302e-01   3.5714731353693385e-01   1.4152848527039302e-01   2.9558526753265302e-01   7.7023523435013408e-01   5.2777971186755368e-01   2.9558526753265302e-01   3.1056177011615138e-01   3.7435563857866122e-01   3.1056177011614949e-01   3.1056177011614949e-01   2.9844084056146769e-01   3.6906567589306238e-01   2.9844084056146769e-01   2.9844084056146769e-01   3.8221490830937760e-01   4.8832738504154161e-01   4.1642454543714075e-01   3.8221490830937621e-01   3.4526371182199711e-01   4.1642454543714075e-01   3.7435563857866122e-01   3.4526371182199711e-01   2.4778813084578213e-01   3.5714731353693385e-01   3.8228178126999984e-01   2.4778813084578347e-01   4.1710047134620354e-01   5.7047253137716836e-01   4.8832738504154161e-01   4.1710047134620470e-01   3.1371568001274114e-01   3.6535306815586865e-01   3.6906567589306238e-01   3.1371568001274114e-01   3.1320240825792994e-01   3.8228178126999984e-01   3.6535306815586865e-01   3.1320240825792994e-01   5.3938837682915318e-02   5.0509840976670252e-02   5.0509840976670252e-02   5.0509840976670252e-02   8.5155287053127943e-02   7.9989866738059731e-02   1.8065309901813834e-01   7.9989866738061841e-02   2.1288767338738607e-01   2.4746795856501724e-01   2.1288767338738607e-01   2.1288767338738607e-01   1.5785412819743724e-01   1.8065309901813834e-01   2.4746795856501724e-01   1.5785412819743724e-01   2.3960822929428038e-01   2.9524642248320693e-01   7.7023523435013308e-01   2.7188505495909931e-01   4.6373331838752652e-01   5.2777971186755301e-01   5.7047253137716836e-01   4.6373331838752530e-01   1.4152848527039494e-01   1.4152848527039494e-01   3.5714731353693480e-01   1.4152848527039316e-01   2.9558526753265252e-01   7.7023523435013308e-01   5.2777971186755301e-01   2.9558526753265080e-01   3.1056177011615371e-01   3.7435563857866216e-01   3.1056177011615271e-01   3.1056177011615271e-01   2.9844084056146908e-01   3.6906567589306288e-01   2.9844084056146908e-01   2.9844084056146908e-01   3.8221490830937815e-01   4.8832738504154105e-01   4.1642454543714075e-01   3.8221490830937621e-01   3.4526371182199711e-01   4.1642454543714075e-01   3.7435563857866216e-01   3.4526371182199711e-01   2.4778813084578213e-01   3.5714731353693480e-01   3.8228178126999984e-01   2.4778813084578422e-01   4.1710047134620354e-01   5.7047253137716836e-01   4.8832738504154105e-01   4.1710047134620354e-01   3.1371568001274075e-01   3.6535306815586704e-01   3.6906567589306288e-01   3.1371568001274075e-01   3.1320240825792917e-01   3.8228178126999984e-01   3.6535306815586704e-01   3.1320240825792917e-01   5.0509840976672479e-02   5.0509840976672479e-02   5.0509840976671674e-02   5.0509840976671674e-02   2.1288767338738582e-01   2.1288767338738582e-01   2.1288767338738582e-01   2.4746795856501724e-01   1.8065309901814011e-01   7.9989866738061202e-02   7.9989866738061202e-02   7.9989866738061202e-02   2.4746795856501724e-01   1.5785412819743946e-01   1.5785412819743866e-01   1.8065309901814011e-01   3.1056177011615271e-01   3.1056177011615271e-01   3.1056177011615371e-01   3.7435563857866216e-01   4.1642454543714363e-01   3.8221490830937904e-01   3.8221490830938093e-01   4.8832738504153922e-01   2.9844084056146908e-01   2.9844084056146908e-01   2.9844084056146908e-01   3.6906567589306288e-01   3.7435563857866216e-01   3.4526371182199711e-01   3.4526371182199711e-01   4.1642454543714363e-01   7.7023523435013341e-01   2.7188505495909637e-01   2.3960822929428255e-01   2.3960822929428255e-01   3.5714731353693213e-01   1.4152848527039416e-01   1.4152848527038930e-01   1.4152848527038930e-01   5.7047253137716813e-01   4.6373331838752713e-01   4.6373331838752840e-01   5.2777971186755579e-01   5.2777971186755579e-01   2.9558526753265846e-01   2.9558526753265374e-01   7.7023523435013341e-01   3.6906567589306288e-01   3.1371568001274075e-01   3.1371568001274075e-01   3.6535306815586532e-01   4.8832738504153922e-01   4.1710047134620282e-01   4.1710047134620465e-01   5.7047253137716813e-01   3.8228178126999779e-01   2.4778813084578322e-01   2.4778813084578322e-01   3.5714731353693213e-01   3.6535306815586532e-01   3.1320240825792861e-01   3.1320240825792539e-01   3.8228178126999779e-01   0.0000000000000000e+00   0.0000000000000000e+00   0.0000000000000000e+00   0.0000000000000000e+00   4.1343271293999187e-02   2.5378294136768678e-15   4.1343271293999187e-02   2.5378294136768678e-15   4.1343271293997973e-02   4.1343271293997973e-02   0.0000000000000000e+00   0.0000000000000000e+00   4.1343271293999187e-02   4.1343271293999187e-02   4.1343271293997973e-02   0.0000000000000000e+00   2.0347707930483205e-01   1.9048020784896033e-01   1.3510961791489315e-01   1.3510961791489315e-01   1.6107947586471591e-01   4.1523094414801759e-01   5.9661273172969057e-02   2.8303722277541267e-15   3.5398804340812788e-03   1.5654857977909480e-15   3.5398804340838162e-03   1.5654857977909480e-15   4.1523094414801759e-01   2.5847347977216084e-01   2.5847347977216240e-01   2.5847347977216240e-01   1.3510961791489348e-01   1.3510961791489348e-01   2.0347707930483308e-01   1.9048020784896130e-01   3.5398804340814037e-03   3.5398804340826076e-03   0.0000000000000000e+00   1.2042198444545752e-15   1.6107947586472057e-01   5.9661273172967363e-02   4.1523094414801937e-01   3.5379652846926632e-15   2.5847347977216201e-01   2.5847347977216201e-01   4.1523094414801937e-01   2.5847347977216084e-01   9.8131400258233706e-02   3.5398804340812788e-03   9.8131400258233706e-02   2.5378294136768678e-15   5.9661273172969057e-02   5.9661273172966232e-02   5.9661273172970888e-02   0.0000000000000000e+00   9.8131400258234913e-02   9.8131400258234913e-02   3.5398804340814037e-03   0.0000000000000000e+00   9.8131400258234913e-02   9.8131400258233706e-02   9.8131400258234913e-02   0.0000000000000000e+00   2.9524642248320693e-01   5.6639919332807959e-02   2.9524642248320693e-01   5.6639919332806328e-02   2.1364994132323506e-01   2.1364994132323506e-01   7.6254133549215031e-01   5.7219651649041603e-01   7.6254133549214154e-01   5.7219651649041503e-01   2.1364994132322365e-01   2.1364994132322365e-01   5.7219651649041603e-01   7.6254133549214154e-01   7.6254133549215031e-01   3.8243355719679501e-15   7.6773433032690699e-02   7.6773433032690699e-02   2.3756544835800028e-01   7.6773433032690699e-02   2.1461572874810508e-01   2.1461572874810667e-01   2.7728328463834551e-01   3.5379652846926632e-15   1.2742758903852397e-01   1.2742758903852397e-01   4.5372173611891564e-01   3.3107962721369871e-01   2.0988919337129811e-01   2.3756544835800028e-01   2.7728328463834551e-01   2.0988919337130060e-01   2.3756544835799995e-01   7.6773433032687396e-02   7.6773433032689423e-02   7.6773433032689423e-02   4.5372173611891414e-01   3.3107962721370221e-01   1.2742758903852933e-01   1.2742758903852933e-01   2.1461572874810220e-01   2.7728328463834095e-01   2.1461572874810500e-01   2.8303722277541346e-15   2.7728328463834095e-01   2.0988919337129536e-01   2.0988919337129730e-01   2.3756544835799995e-01   3.3107962721369871e-01   5.0282948740781236e-02   4.5372173611891564e-01   6.6454584193877272e-15   2.1461572874810667e-01   2.1461572874810220e-01   2.1461572874810508e-01   1.9309584077216648e-15   3.3107962721370221e-01   4.5372173611891414e-01   5.0282948740782332e-02   5.5378820161564275e-16   5.0282948740782332e-02   5.0282948740784268e-02   5.0282948740781236e-02   1.9309584077216648e-15   5.3938837682915318e-02   5.0509840976670252e-02   5.0509840976670252e-02   5.0509840976670252e-02   2.1288767338738337e-01   2.4746795856501722e-01   2.1288767338737971e-01   2.1288767338737971e-01   8.5155287053127943e-02   7.9989866738059731e-02   1.8065309901813834e-01   7.9989866738063756e-02   1.5785412819743536e-01   1.8065309901813834e-01   2.4746795856501722e-01   1.5785412819743536e-01   3.1056177011615138e-01   3.7435563857866122e-01   3.1056177011615138e-01   3.1056177011615138e-01   3.8221490830937621e-01   4.8832738504154005e-01   4.1642454543714075e-01   3.8221490830937621e-01   2.9844084056147147e-01   3.6906567589306732e-01   2.9844084056147147e-01   2.9844084056147147e-01   3.4526371182199711e-01   4.1642454543714075e-01   3.7435563857866122e-01   3.4526371182199711e-01   2.3960822929428038e-01   2.9524642248320693e-01   7.7023523435013519e-01   2.7188505495910603e-01   1.4152848527039424e-01   1.4152848527039424e-01   3.5714731353693169e-01   1.4152848527038744e-01   4.6373331838752885e-01   5.2777971186755634e-01   5.7047253137717013e-01   4.6373331838752774e-01   2.9558526753265368e-01   7.7023523435013519e-01   5.2777971186755634e-01   2.9558526753264958e-01   3.1371568001274702e-01   3.6535306815586877e-01   3.6906567589306732e-01   3.1371568001274341e-01   4.1710047134620620e-01   5.7047253137717013e-01   4.8832738504154005e-01   4.1710047134620248e-01   2.4778813084578213e-01   3.5714731353693169e-01   3.8228178127000173e-01   2.4778813084578610e-01   3.1320240825793111e-01   3.8228178127000173e-01   3.6535306815586877e-01   3.1320240825792728e-01   5.0509840976666484e-02   5.0509840976666484e-02   5.0509840976666484e-02   5.0509840976666484e-02   7.9989866738055151e-02   7.9989866738055151e-02   1.8065309901813448e-01   7.9989866738061077e-02   2.1288767338738535e-01   2.4746795856501833e-01   2.1288767338738993e-01   2.1288767338738993e-01   1.5785412819743933e-01   1.8065309901813448e-01   2.4746795856501833e-01   1.5785412819743933e-01   2.3960822929428255e-01   2.3960822929428255e-01   7.7023523435013341e-01   2.7188505495910181e-01   4.6373331838753429e-01   5.2777971186755790e-01   5.7047253137717380e-01   4.6373331838753329e-01   1.4152848527038930e-01   1.4152848527038930e-01   3.5714731353692919e-01   1.4152848527039041e-01   2.9558526753265374e-01   7.7023523435013341e-01   5.2777971186755790e-01   2.9558526753265485e-01   3.1056177011615399e-01   3.7435563857866122e-01   3.1056177011615399e-01   3.1056177011615399e-01   2.9844084056146908e-01   3.6906567589306594e-01   2.9844084056146908e-01   2.9844084056146908e-01   3.8221490830937904e-01   4.8832738504154183e-01   4.1642454543714363e-01   3.8221490830937904e-01   3.4526371182199711e-01   4.1642454543714363e-01   3.7435563857866122e-01   3.4526371182199711e-01   2.4778813084578025e-01   3.5714731353692919e-01   3.8228178127000001e-01   2.4778813084578610e-01   4.1710047134620687e-01   5.7047253137717380e-01   4.8832738504154183e-01   4.1710047134620737e-01   3.1371568001274164e-01   3.6535306815586316e-01   3.6906567589306594e-01   3.1371568001274613e-01   3.1320240825792767e-01   3.8228178127000001e-01   3.6535306815586316e-01   3.1320240825792861e-01   5.3938837682914312e-02   5.0509840976671674e-02   5.0509840976671674e-02   5.0509840976671674e-02   8.5155287053124376e-02   7.9989866738061299e-02   1.8065309901814131e-01   7.9989866738063423e-02   2.1288767338738462e-01   2.4746795856501724e-01   2.1288767338738462e-01   2.1288767338738462e-01   1.5785412819743866e-01   1.8065309901814131e-01   2.4746795856501724e-01   1.5785412819743866e-01   2.3960822929428255e-01   2.9524642248320693e-01   7.7023523435013341e-01   2.7188505495909354e-01   4.6373331838752530e-01   5.2777971186755457e-01   5.7047253137716725e-01   4.6373331838752530e-01   1.4152848527038930e-01   1.4152848527038930e-01   3.5714731353693102e-01   1.4152848527039291e-01   2.9558526753265374e-01   7.7023523435013341e-01   5.2777971186755457e-01   2.9558526753265724e-01   3.1056177011615371e-01   3.7435563857866216e-01   3.1056177011615371e-01   3.1056177011615371e-01   2.9844084056146908e-01   3.6906567589306288e-01   2.9844084056146908e-01   2.9844084056146908e-01   3.8221490830938043e-01   4.8832738504153994e-01   4.1642454543714208e-01   3.8221490830937649e-01   3.4526371182199711e-01   4.1642454543714208e-01   3.7435563857866216e-01   3.4526371182199711e-01   2.4778813084578213e-01   3.5714731353693102e-01   3.8228178126999873e-01   2.4778813084578422e-01   4.1710047134620470e-01   5.7047253137716725e-01   4.8832738504153994e-01   4.1710047134620248e-01   3.1371568001274075e-01   3.6535306815586532e-01   3.6906567589306288e-01   3.1371568001274075e-01   3.1320240825792633e-01   3.8228178126999873e-01   3.6535306815586532e-01   3.1320240825792861e-01   5.0509840976673492e-02   5.0509840976673492e-02   5.0509840976671674e-02   5.0509840976671674e-02   2.1288767338738687e-01   2.1288767338738687e-01   2.1288767338738687e-01   2.4746795856501724e-01   1.8065309901814131e-01   7.9989866738063423e-02   7.9989866738061299e-02   7.9989866738061299e-02   2.4746795856501724e-01   1.5785412819744046e-01   1.5785412819743866e-01   1.8065309901814131e-01   3.1056177011615371e-01   3.1056177011615371e-01   3.1056177011615371e-01   3.7435563857866216e-01   4.1642454543714208e-01   3.8221490830937649e-01   3.8221490830938043e-01   4.8832738504153994e-01   2.9844084056146908e-01   2.9844084056146908e-01   2.9844084056146908e-01   3.6906567589306288e-01   3.7435563857866216e-01   3.4526371182199711e-01   3.4526371182199711e-01   4.1642454543714208e-01   7.7023523435013341e-01   2.7188505495909354e-01   2.3960822929428255e-01   2.3960822929428255e-01   3.5714731353693102e-01   1.4152848527039291e-01   1.4152848527038930e-01   1.4152848527038930e-01   5.7047253137716725e-01   4.6373331838752530e-01   4.6373331838752530e-01   5.2777971186755457e-01   5.2777971186755457e-01   2.9558526753265724e-01   2.9558526753265374e-01   7.7023523435013341e-01   3.6906567589306288e-01   3.1371568001274075e-01   3.1371568001274075e-01   3.6535306815586532e-01   4.8832738504153994e-01   4.1710047134620248e-01   4.1710047134620470e-01   5.7047253137716725e-01   3.8228178126999873e-01   2.4778813084578422e-01   2.4778813084578213e-01   3.5714731353693102e-01   3.6535306815586532e-01   3.1320240825792861e-01   3.1320240825792633e-01   3.8228178126999873e-01   0.0000000000000000e+00   0.0000000000000000e+00   0.0000000000000000e+00   0.0000000000000000e+00   4.1343271293996287e-02   5.8007529455471339e-15   4.1343271293996287e-02   5.8007529455471339e-15   4.1343271293996287e-02   4.1343271293996287e-02   5.8007529455471339e-15   5.8007529455471339e-15   4.1343271293996287e-02   4.1343271293996287e-02   4.1343271293996287e-02   0.0000000000000000e+00   2.0347707930482628e-01   1.9048020784895128e-01   1.3510961791489495e-01   1.3510961791489495e-01   1.6107947586471463e-01   4.1523094414801798e-01   5.9661273172968064e-02   5.5192258441205640e-15   3.5398804340835855e-03   6.2619431911637871e-15   3.5398804340777850e-03   6.2619431911637871e-15   4.1523094414