<?xml version="1.0"?>
<VTKFile type="UnstructuredGrid"  version="0.1"  >
<UnstructuredGrid>
<Piece  NumberOfPoints="1075" NumberOfCells="1839">
<Points>
<DataArray  type="Float64"  NumberOfComponents="3"  format="ascii">3 0.504901692839906 0  2.870592087154655 0.4823683486186197 0  3 0.801932550640429 0  2.712819609700631 0.425639219401261 0  2.923581848878968 0.7707455466369024 0  3 0.969048513443635 0  2.517702506464375 0.3569366752858338 0  2.793348253300635 0.6900223799509527 0  2.976138185262463 0.9522763705249254 0  3 0.9990234747496692 0  2.292893218813733 0.2928932188137324 0  2.596341378041969 0.5963413780419684 0  2.889665833804265 0.8896658338042651 0  2.996096130844971 0.996096130844971 0  3 1 0  2.356936675285834 0.5177025064643754 0  2.690022379950953 0.7933482533006351 0  2.952276370524925 0.9761381852624627 0  2.999023474749669 1 0  3 1.000976525250331 0  3.003903869155029 1.003903869155029 0  3.000976525250331 1 0  2.425639219401261 0.7128196097006305 0  2.770745546636902 0.9235818488789674 0  2.969048513443635 1 0  2.996096130844971 1.003903869155029 0  3 1.030951486556365 0  3.023861814737537 1.047723629475075 0  3.110334166195735 1.110334166195735 0  3.047723629475075 1.023861814737537 0  3.030951486556365 1 0  2.482368348618619 0.8705920871546549 0  2.801932550640429 1 0  2.952276370524925 1.023861814737537 0  2.976138185262463 1.047723629475075 0  3 1.198067449359571 0  3.076418151121032 1.229254453363098 0  3.206651746699365 1.309977620049047 0  3.403658621958031 1.403658621958032 0  3.309977620049047 1.206651746699365 0  3.229254453363098 1.076418151121032 0  3.198067449359571 1 0  2.504901692839906 1 0  2.770745546636902 1.076418151121032 0  2.889665833804265 1.110334166195735 0  2.923581848878968 1.229254453363098 0  3 1.495098307160094 0  3.129407912845345 1.517631651381381 0  3.287180390299369 1.574360780598739 0  3.482297493535625 1.643063324714166 0  3.707106781186268 1.707106781186268 0  3.643063324714166 1.482297493535625 0  3.574360780598739 1.287180390299369 0  3.517631651381381 1.129407912845345 0  3.495098307160094 1 0  2.482368348618619 1.129407912845345 0  2.690022379950953 1.206651746699365 0  2.793348253300635 1.309977620049047 0  2.870592087154655 1.517631651381381 0  2.425639219401261 1.287180390299369 0  2.596341378041969 1.403658621958032 0  2.712819609700631 1.574360780598739 0  2.356936675285834 1.482297493535625 0  2.517702506464375 1.643063324714166 0  2.292893218813732 1.707106781186268 0  2 4.495098307160094 0  1.870592087154655 4.517631651381381 0  2 4.198067449359571 0  1.712819609700631 4.574360780598739 0  1.923581848878968 4.229254453363097 0  2 4.030951486556365 0  1.517702506464375 4.643063324714166 0  1.793348253300635 4.309977620049048 0  1.976138185262463 4.047723629475074 0  2 4.000976525250331 0  1.292893218813733 4.707106781186267 0  1.596341378041968 4.403658621958032 0  1.889665833804265 4.110334166195734 0  1.996096130844971 4.003903869155029 0  2 4 0  1.356936675285834 4.482297493535625 0  1.690022379950953 4.206651746699364 0  1.952276370524925 4.023861814737537 0  1.999023474749669 4 0  2 3.999023474749669 0  2.003903869155029 3.996096130844971 0  2.000976525250331 4 0  1.425639219401261 4.28718039029937 0  1.770745546636902 4.076418151121032 0  1.969048513443635 4 0  1.996096130844971 3.996096130844971 0  2 3.969048513443635 0  2.023861814737537 3.952276370524925 0  2.110334166195735 3.889665833804265 0  2.047723629475075 3.976138185262463 0  2.030951486556365 4 0  1.482368348618619 4.129407912845346 0  1.801932550640429 4 0  1.952276370524925 3.976138185262463 0  1.976138185262463 3.952276370524925 0  2 3.801932550640429 0  2.076418151121032 3.770745546636902 0  2.206651746699365 3.690022379950953 0  2.403658621958031 3.596341378041969 0  2.309977620049047 3.793348253300635 0  2.229254453363098 3.923581848878968 0  2.198067449359571 4 0  1.504901692839906 4 0  1.770745546636902 3.923581848878968 0  1.889665833804265 3.889665833804265 0  1.923581848878968 3.770745546636902 0  2 3.504901692839906 0  2.129407912845345 3.482368348618619 0  2.287180390299369 3.425639219401261 0  2.482297493535625 3.356936675285834 0  2.707106781186268 3.292893218813732 0  2.643063324714166 3.517702506464375 0  2.574360780598739 3.712819609700631 0  2.517631651381381 3.870592087154655 0  2.495098307160094 4 0  1.482368348618619 3.870592087154655 0  1.690022379950953 3.793348253300635 0  1.793348253300635 3.690022379950953 0  1.870592087154655 3.482368348618619 0  1.425639219401261 3.712819609700631 0  1.596341378041968 3.596341378041969 0  1.712819609700631 3.425639219401261 0  1.356936675285834 3.517702506464375 0  1.517702506464375 3.356936675285834 0  1.292893218813732 3.292893218813732 0  -6 5.495098307160094 0  -5.870592087154655 5.517631651381381 0  -6 5.198067449359571 0  -5.712819609700631 5.574360780598739 0  -5.923581848878968 5.229254453363097 0  -6 5.030951486556365 0  -5.517702506464375 5.643063324714166 0  -5.793348253300636 5.309977620049048 0  -5.976138185262463 5.047723629475074 0  -6 5.000976525250331 0  -5.292893218813733 5.707106781186267 0  -5.596341378041968 5.403658621958032 0  -5.889665833804266 5.110334166195734 0  -5.996096130844971 5.003903869155029 0  -6 5 0  -5.356936675285834 5.482297493535625 0  -5.690022379950952 5.206651746699364 0  -5.952276370524926 5.023861814737537 0  -5.999023474749669 5 0  -6 4.999023474749669 0  -6.003903869155029 4.996096130844971 0  -6.000976525250331 5 0  -5.425639219401261 5.28718039029937 0  -5.770745546636903 5.076418151121032 0  -5.969048513443635 5 0  -5.996096130844971 4.996096130844971 0  -6 4.969048513443635 0  -6.023861814737537 4.952276370524926 0  -6.110334166195734 4.889665833804266 0  -6.047723629475074 4.976138185262463 0  -6.030951486556365 5 0  -5.482368348618619 5.129407912845346 0  -5.801932550640429 5 0  -5.952276370524926 4.976138185262463 0  -5.976138185262463 4.952276370524926 0  -6 4.801932550640429 0  -6.076418151121032 4.770745546636903 0  -6.206651746699364 4.690022379950952 0  -6.403658621958032 4.596341378041968 0  -6.309977620049048 4.793348253300636 0  -6.229254453363097 4.923581848878968 0  -6.198067449359571 5 0  -5.504901692839906 5 0  -5.770745546636903 4.923581848878968 0  -5.889665833804266 4.889665833804266 0  -5.923581848878968 4.770745546636903 0  -6 4.504901692839906 0  -6.129407912845346 4.482368348618619 0  -6.28718039029937 4.425639219401261 0  -6.482297493535625 4.356936675285834 0  -6.707106781186267 4.292893218813733 0  -6.643063324714166 4.517702506464375 0  -6.574360780598739 4.71281960970063 0  -6.517631651381381 4.870592087154654 0  -6.495098307160094 5 0  -5.482368348618619 4.870592087154654 0  -5.690022379950952 4.793348253300636 0  -5.793348253300636 4.690022379950952 0  -5.870592087154654 4.482368348618619 0  -5.425639219401261 4.71281960970063 0  -5.596341378041968 4.596341378041968 0  -5.71281960970063 4.425639219401261 0  -5.356936675285834 4.517702506464375 0  -5.517702506464375 4.356936675285834 0  -5.292893218813733 4.292893218813733 0  -5 2.504901692839906 0  -4.870592087154655 2.482368348618619 0  -5 2.801932550640429 0  -4.712819609700631 2.425639219401261 0  -4.923581848878968 2.770745546636902 0  -5 2.969048513443635 0  -4.517702506464375 2.356936675285834 0  -4.793348253300636 2.690022379950953 0  -4.976138185262463 2.952276370524925 0  -5 2.999023474749669 0  -4.292893218813733 2.292893218813732 0  -4.596341378041968 2.596341378041969 0  -4.889665833804266 2.889665833804265 0  -4.996096130844971 2.996096130844971 0  -5 3 0  -4.356936675285834 2.517702506464375 0  -4.690022379950952 2.793348253300635 0  -4.952276370524926 2.976138185262463 0  -4.999023474749669 3 0  -5 3.000976525250331 0  -5.003903869155029 3.003903869155029 0  -5.000976525250331 3 0  -4.425639219401261 2.712819609700631 0  -4.770745546636903 2.923581848878968 0  -4.969048513443635 3 0  -4.996096130844971 3.003903869155029 0  -5 3.030951486556365 0  -5.023861814737537 3.047723629475075 0  -5.110334166195734 3.110334166195735 0  -5.047723629475074 3.023861814737537 0  -5.030951486556365 3 0  -4.482368348618619 2.870592087154655 0  -4.801932550640429 3 0  -4.952276370524926 3.023861814737537 0  -4.976138185262463 3.047723629475075 0  -5 3.198067449359571 0  -5.076418151121032 3.229254453363098 0  -5.206651746699364 3.309977620049047 0  -5.403658621958032 3.403658621958031 0  -5.309977620049048 3.206651746699365 0  -5.229254453363097 3.076418151121032 0  -5.198067449359571 3 0  -4.504901692839906 3 0  -4.770745546636903 3.076418151121032 0  -4.889665833804266 3.110334166195735 0  -4.923581848878968 3.229254453363098 0  -5 3.495098307160094 0  -5.129407912845346 3.517631651381381 0  -5.28718039029937 3.574360780598739 0  -5.482297493535625 3.643063324714166 0  -5.707106781186267 3.707106781186268 0  -5.643063324714166 3.482297493535625 0  -5.574360780598739 3.287180390299369 0  -5.517631651381381 3.129407912845345 0  -5.495098307160094 3 0  -4.482368348618619 3.129407912845345 0  -4.690022379950952 3.206651746699365 0  -4.793348253300636 3.309977620049047 0  -4.870592087154654 3.517631651381381 0  -4.425639219401261 3.287180390299369 0  -4.596341378041968 3.403658621958031 0  -4.71281960970063 3.574360780598739 0  -4.356936675285834 3.482297493535625 0  -4.517702506464375 3.643063324714166 0  -4.292893218813733 3.707106781186268 0  5 1 0  4.83038291558927 1.060287186691953 0  5 1.1875 0  4.660765831178542 1.120574373383906 0  4.752051342018341 1.352229284786525 0  5 1.375 0  4.491148746767813 1.180861560075859 0  4.4322882905522 1.432262198034769 0  4.613242116355901 1.55893932648076 0  5 1.5625 0  4.321531662357083 1.241148746767812 0  4.219575161945451 1.491797959243029 0  4.23268619585246 1.762072368835434 0  4.493304945754296 1.792284526517738 0  4.746989430303032 1.775180020690435 0  5 1.75 0  3.982297493535625 1.361723120151718 0  3.966678612559707 1.765358815105942 0  4.001984264978835 2.029033512423678 0  4.337442301453079 2.02507858124129 0  4.620523510659621 2.0217
[...]
<CellData  Scalars="f_7770"> 
<DataArray  type="Float64"  Name="f_7770"  format="ascii">7.5084038429946307e-02   9.2306945432305956e-02   9.2306945432307039e-02   7.5084038429946307e-02   1.2962947975360579e-02   2.7790410961354145e-01   5.9095894292590323e-02   2.7790410961354145e-01   1.2962947975359265e-02   5.9095894292590892e-02   2.7790410961354206e-01   2.7790410961354206e-01   2.3549604113164205e-01   1.5992618869355414e-02   2.3549604113164205e-01   2.3549604113164205e-01   1.1996341531263142e+00   1.4400141309653589e+00   1.4400141309653554e+00   1.4400141309653589e+00   4.4461494871658575e-01   5.5606305255823152e-01   1.1052825728586946e+00   4.4461494871658575e-01   4.4461494871658563e-01   1.1052825728586944e+00   5.5606305255823241e-01   4.4461494871658563e-01   1.1052825728586946e+00   7.5667911598552351e-01   1.1052825728586944e+00   7.5667911598552351e-01   1.4877179618891256e-01   1.5912236814955247e-01   4.7463346220565739e-01   4.7463346220565739e-01   7.4514140944100032e-03   2.5909750407867121e-01   6.6868355474453842e-02   4.1376975972530788e-02   1.6192868807648393e+00   1.2077815361284496e+00   9.6581329141513050e-01   1.6192868807648393e+00   2.3397508423245308e-01   7.1952604169594803e-01   1.2077815361284496e+00   4.0268773174078654e-01   0.0000000000000000e+00   4.7463346220565805e-01   1.5912236814955411e-01   4.7463346220565805e-01   1.6192868807648384e+00   9.6581329141513184e-01   1.2077815361284501e+00   1.6192868807648384e+00   7.4514140944098748e-03   6.6868355474453023e-02   2.5909750407867022e-01   4.1376975972530664e-02   1.2077815361284501e+00   7.1952604169594891e-01   2.3397508423245275e-01   4.0268773174078926e-01   1.4877179618891331e-01   4.7463346220565944e-01   1.5912236814955313e-01   4.7463346220565944e-01   1.6192868807648384e+00   9.6581329141513184e-01   1.2077815361284496e+00   1.6192868807648384e+00   7.4514140944090977e-03   6.6868355474453148e-02   2.5909750407867088e-01   4.1376975972530788e-02   1.2077815361284496e+00   7.1952604169594825e-01   2.3397508423245345e-01   4.0268773174078909e-01   0.0000000000000000e+00   1.5912236814955261e-01   4.7463346220565750e-01   4.7463346220565750e-01   7.4514140944090977e-03   2.5909750407867121e-01   6.6868355474453703e-02   4.1376975972530788e-02   1.6192868807648393e+00   1.2077815361284496e+00   9.6581329141513050e-01   1.6192868807648393e+00   2.3397508423245325e-01   7.1952604169594803e-01   1.2077815361284496e+00   4.0268773174078676e-01   7.5084038429946307e-02   9.2306945432307039e-02   9.2306945432305956e-02   7.5084038429946307e-02   1.2962947975359265e-02   2.7790410961354206e-01   5.9095894292590892e-02   2.7790410961354206e-01   1.2962947975360579e-02   5.9095894292590323e-02   2.7790410961354145e-01   2.7790410961354145e-01   2.3549604113164205e-01   1.5992618869355414e-02   2.3549604113164205e-01   2.3549604113164205e-01   1.1996341531263142e+00   1.4400141309653554e+00   1.4400141309653589e+00   1.4400141309653589e+00   4.4461494871658563e-01   5.5606305255823241e-01   1.1052825728586944e+00   4.4461494871658563e-01   4.4461494871658575e-01   1.1052825728586946e+00   5.5606305255823152e-01   4.4461494871658575e-01   1.1052825728586944e+00   7.5667911598552351e-01   1.1052825728586946e+00   7.5667911598552351e-01   1.4877179618891379e-01   1.5912236814955322e-01   4.7463346220565988e-01   4.7463346220565988e-01   7.4514140944115497e-03   2.5909750407867305e-01   6.6868355474453245e-02   4.1376975972529956e-02   1.6192868807648384e+00   1.2077815361284496e+00   9.6581329141513039e-01   1.6192868807648384e+00   2.3397508423245467e-01   7.1952604169594947e-01   1.2077815361284496e+00   4.0268773174078842e-01   0.0000000000000000e+00   4.7463346220565944e-01   1.5912236814955358e-01   4.7463346220565944e-01   1.6192868807648366e+00   9.6581329141513461e-01   1.2077815361284530e+00   1.6192868807648366e+00   7.4514140944101376e-03   6.6868355474451968e-02   2.5909750407867044e-01   4.1376975972528540e-02   1.2077815361284530e+00   7.1952604169595169e-01   2.3397508423245195e-01   4.0268773174079087e-01   1.4877179618891256e-01   4.7463346220565750e-01   1.5912236814955261e-01   4.7463346220565750e-01   1.6192868807648384e+00   9.6581329141513184e-01   1.2077815361284510e+00   1.6192868807648384e+00   7.4514140944090942e-03   6.6868355474454091e-02   2.5909750407867049e-01   4.1376975972531573e-02   1.2077815361284510e+00   7.1952604169594825e-01   2.3397508423245289e-01   4.0268773174078709e-01   0.0000000000000000e+00   1.5912236814955261e-01   4.7463346220565750e-01   4.7463346220565750e-01   7.4514140944090942e-03   2.5909750407867049e-01   6.6868355474454091e-02   4.1376975972531573e-02   1.6192868807648384e+00   1.2077815361284510e+00   9.6581329141513184e-01   1.6192868807648384e+00   2.3397508423245289e-01   7.1952604169594825e-01   1.2077815361284510e+00   4.0268773174078709e-01   7.5084038429948083e-02   9.2306945432306706e-02   9.2306945432306706e-02   7.5084038429948083e-02   1.2962947975358874e-02   2.7790410961353956e-01   5.9095894292592835e-02   2.7790410961353956e-01   1.2962947975358874e-02   5.9095894292592835e-02   2.7790410961353956e-01   2.7790410961353956e-01   2.3549604113163861e-01   1.5992618869356375e-02   2.3549604113163861e-01   2.3549604113163861e-01   1.1996341531263142e+00   1.4400141309653554e+00   1.4400141309653554e+00   1.4400141309653554e+00   4.4461494871658536e-01   5.5606305255823585e-01   1.1052825728587015e+00   4.4461494871658536e-01   4.4461494871658536e-01   1.1052825728587015e+00   5.5606305255823585e-01   4.4461494871658536e-01   1.1052825728587015e+00   7.5667911598552939e-01   1.1052825728587015e+00   7.5667911598552939e-01   1.4877179618891304e-01   1.5912236814955363e-01   4.7463346220565988e-01   4.7463346220565988e-01   7.4514140944119409e-03   2.5909750407867183e-01   6.6868355474452440e-02   4.1376975972528499e-02   1.6192868807648360e+00   1.2077815361284543e+00   9.6581329141513439e-01   1.6192868807648360e+00   2.3397508423245283e-01   7.1952604169595336e-01   1.2077815361284543e+00   4.0268773174079053e-01   0.0000000000000000e+00   4.7463346220565883e-01   1.5912236814955366e-01   4.7463346220565883e-01   1.6192868807648360e+00   9.6581329141513439e-01   1.2077815361284543e+00   1.6192868807648360e+00   7.4514140944119409e-03   6.6868355474453536e-02   2.5909750407867183e-01   4.1376975972528499e-02   1.2077815361284543e+00   7.1952604169595336e-01   2.3397508423245175e-01   4.0268773174079053e-01   1.4877179618891304e-01   4.7463346220565988e-01   1.5912236814955363e-01   4.7463346220565988e-01   1.6192868807648360e+00   9.6581329141513439e-01   1.2077815361284543e+00   1.6192868807648360e+00   7.4514140944119409e-03   6.6868355474452440e-02   2.5909750407867183e-01   4.1376975972528499e-02   1.2077815361284543e+00   7.1952604169595336e-01   2.3397508423245283e-01   4.0268773174079053e-01   0.0000000000000000e+00   1.5912236814955363e-01   4.7463346220565988e-01   4.7463346220565988e-01   7.4514140944119409e-03   2.5909750407867183e-01   6.6868355474452440e-02   4.1376975972528499e-02   1.6192868807648360e+00   1.2077815361284543e+00   9.6581329141513439e-01   1.6192868807648360e+00   2.3397508423245283e-01   7.1952604169595336e-01   1.2077815361284543e+00   4.0268773174079053e-01   7.5084038429947847e-02   9.2306945432305443e-02   9.2306945432306747e-02   7.5084038429947847e-02   1.2962947975359063e-02   2.7790410961353940e-01   5.9095894292593439e-02   2.7790410961353940e-01   1.2962947975360389e-02   5.9095894292589712e-02   2.7790410961354162e-01   2.7790410961354162e-01   2.3549604113163780e-01   1.5992618869356375e-02   2.3549604113164019e-01   2.3549604113164019e-01   1.1996341531263142e+00   1.4400141309653554e+00   1.4400141309653554e+00   1.4400141309653554e+00   4.4461494871658536e-01   5.5606305255823263e-01   1.1052825728586955e+00   4.4461494871658536e-01   4.4461494871658536e-01   1.1052825728587015e+00   5.5606305255823263e-01   4.4461494871658536e-01   1.1052825728586955e+00   7.5667911598552506e-01   1.1052825728587015e+00   7.5667911598552506e-01   1.4877179618891256e-01   1.5912236814955358e-01   4.7463346220565944e-01   4.7463346220565944e-01   7.4514140944097473e-03   2.5909750407866955e-01   6.6868355474452357e-02   4.1376975972529331e-02   1.6192868807648360e+00   1.2077815361284543e+00   9.6581329141513605e-01   1.6192868807648360e+00   2.3397508423245142e-01   7.1952604169595225e-01   1.2077815361284543e+00   4.0268773174079142e-01   0.0000000000000000e+00   4.7463346220565689e-01   1.5912236814955269e-01   4.7463346220565689e-01   1.6192868807648384e+00   9.6581329141513039e-01   1.2077815361284510e+00   1.6192868807648384e+00   7.4514140944111594e-03   6.6868355474455271e-02   2.5909750407867260e-01   4.1376975972530740e-02   1.2077815361284510e+00   7.1952604169594947e-01   2.3397508423245303e-01   4.0268773174078643e-01   1.4877179618891304e-01   4.7463346220565789e-01   1.5912236814955269e-01   4.7463346220565789e-01   1.6192868807648384e+00   9.6581329141513039e-01   1.2077815361284510e+00   1.6192868807648384e+00   7.4514140944111594e-03   6.6868355474454175e-02   2.5909750407867260e-01   4.1376975972530740e-02   1.2077815361284510e+00   7.1952604169594947e-01   2.3397508423245411e-01   4.0268773174078643e-01   0.0000000000000000e+00   1.5912236814955358e-01   4.7463346220565944e-01   4.7463346220565944e-01   7.4514140944097473e-03   2.5909750407866955e-01   6.6868355474452357e-02   4.1376975972529331e-02   1.6192868807648360e+00   1.2077815361284543e+00   9.6581329141513605e-01   1.6192868807648360e+00   2.3397508423245142e-01   7.1952604169595225e-01   1.2077815361284543e+00   4.0268773174079142e-01   3.2564184161656967e-01   1.6189156572494975e-01   5.7425641220704628e-02   2.4283073897667209e-01   8.8676581483771947e-03   1.6958784813515393e-01   3.5104023644604319e-02   2.5928539804602602e-01   1.9340677750843363e-01   1.2386542620907016e-01   1.1333706501138546e-01   2.1741746851700627e-01   1.1583827894461106e-01   2.5284705582197864e-01   2.7677693234318351e-01   2.1642845658360249e-02   1.1063180670278674e-01   1.0256225545920065e-01   2.2481759325747128e-01   7.9333419634089852e-02   4.2167758762534097e-01   2.9656160836815237e-01   7.4643878746509157e-02   8.6012468932541136e-02   8.3118418413262556e-03   6.9177936767465087e-02   6.9177936767465087e-02   6.9177936767466336e-02   1.8798255845638434e-01   1.1653326079180411e-01   6.8871579056884263e-02   1.3106151439424171e-01   3.2748493543361573e-01   4.4820295705807631e-02   3.2748493543361606e-01   5.4140182232127104e-02   1.1719822005076556e-01   1.5813932203976411e-01   6.1747395874613385e-02   3.2748493543361606e-01   3.6819653037021027e-01   9.6431279257594787e-02   2.7001274361737598e-01   7.5177117823815448e-02   2.0727712748467841e-01   1.6246560056766621e-01   2.1680183110936149e-01   9.6206658078340071e-02   2.4972822177337931e-01   2.5052137607208241e-01   3.2405356485048636e-01   1.3615183455030152e-02   3.8982297107261737e-01   2.6025481523871302e-01   1.4436042177662001e-01   3.8507859097961389e-01   1.4913783345232193e-01   6.4144579752595410e-02   1.3788581520330218e-01   1.1128236764360247e-01   3.0690816554805217e-01   5.4876758693958395e-02   2.0351795331860553e-01   1.7337080077718570e-01   1.0159941407933251e-01   1.8962844157103126e-01   3.1989815660269338e-01   9.3728832791449126e-02   2.9011047606893287e-01   1.3498906008392153e-01   3.2322988932704244e-01   5.3589989183496174e-02   1.0129364245632225e-01   3.5229059308180342e-02   3.1278175157807765e-02   1.8436928822276460e-01   1.5683681711733474e-01   3.2499433124561650e-01   2.1729347924509659e-02   2.8837971003437995e-01   3.3136113760797536e-01   1.1583827894461106e-01   2.0648070282824729e-01   2.5886494882560740e-01   3.3058470962392006e-01   1.9527684746977439e-01   3.0397559132424129e-01   4.3028835207071808e-01   2.4283073897667209e-01   8.5227413389613274e-02   1.4430680646714591e-01   2.5292928020869987e-01   2.4157693488358795e-01   1.5976610034887129e-01   3.0613212251150240e-01   3.3526191327084970e-01   2.7373905505450746e-01   1.2994743548422841e-01   1.3366708662383758e-01   4.7082916401911264e-02   8.0850163477827447e-02   3.8330873666763016e-01   2.8363566479963731e-01   1.0931526746041538e-01   1.8820266910572456e-01   1.2266043163838698e-01   2.5548847028410759e-01   1.8499384369567487e-01   1.8228475241032394e-01   1.7678339817632521e-01   1.2624516589497375e-01   1.7739924313777888e-01   2.7842796939198911e-01   6.4615841449374281e-02   5.4876758693957271e-02   1.5252810045564799e-01   6.8108656496576464e-02   1.2104009535196315e-01   3.1232723692898068e-01   4.0933111129591576e-01   1.4836274935048824e-01   1.9141249088190343e-01   3.2800361335524941e-02   1.2725973129184701e-01   2.5479403786537158e-01   1.9700246066702984e-01   1.0425488843009427e-01   3.4729219913281262e-01   2.1135600962796106e-01   1.2725973129184701e-01   2.2600612749397139e-01   1.1583827894461123e-01   9.3212266653576025e-03   1.3516106426192298e-01   2.1953557636748630e-01   2.0600911628175980e-01   1.4430680646714591e-01   1.1917109722766506e-01   1.7377772128639946e-01   3.6853137570389882e-02   3.8513496090737875e-01   2.2812096710121779e-03   2.2972262037910154e-01   1.5815289387216944e-01   1.5172673573576687e-01   2.3635789904291085e-01   7.5246784366410871e-02   3.5718099852377161e-01   8.9373310804044745e-02   1.6434973725053556e-01   2.5815250514693722e-01   1.5651985350800759e-01   1.0823226113731751e-01   1.1917109722766477e-01   3.0205217308164323e-01   3.1394071117480070e-02   2.2600612749397064e-01   1.6195524976914949e-01   3.4302078281098519e-02   4.6118858053475625e-02   2.5548847028410759e-01   3.9077753323194388e-02   1.4570773088783867e-01   7.7343605284407216e-02   1.2994743548422841e-01   4.4230925877032697e-03   1.6958784813515435e-01   2.1985050603711098e-01   2.7001274361737598e-01   2.2349413009228977e-01   2.4021963002861657e-01   1.7250126800674812e-01   5.3652963361982581e-02   3.5104023644603674e-02   2.9084117391176251e-01   4.3590346874231002e-02   1.0129364245632164e-01   2.6025481523871302e-01   1.0104300714258571e-01   2.1985137301002228e-01   1.7441643139596283e-01   1.1446102268413126e-01   1.0548174291220566e-01   1.5651985350800776e-01   1.1088151298373644e-01   2.1135600962796092e-01   1.8164399511659240e-01   1.7441643139596283e-01   1.9133783814586042e-01   3.5029723513892497e-01   3.9132239533139390e-01   2.4075319450600888e-01   8.5344438351819957e-02   1.7161946782260779e-01   2.7100671622275319e-01   3.2660881604036573e-01   1.8945475268630677e-01   1.2663572619389302e-01   2.0306405145011530e-01   2.0096024263425821e-01   9.3910818989846517e-02   8.5223884002857811e-02   2.5435450432578416e-01   1.3306529748029744e-01   2.7954798260574082e-01   1.1748480379312341e-01   1.3288798350080472e-01   9.7468279660212709e-02   1.4941298372445577e-01   1.6631224656166962e-01   2.4159459963418270e-01   1.4378876359537632e-01   1.4084524847442290e-01   2.6053759611964317e-01   2.9034013717974022e-01   1.4866562067203529e-01   6.9177936767465087e-02   2.3652016677641602e-01   1.1748480379312350e-01   2.0339526253870488e-01   1.7743982787984000e-01   1.5270962315298584e-01   8.5255616368476325e-02   2.7001274361737565e-01   1.4539577969970277e-01   8.0408518403772347e-02   3.4283889978630233e-01   1.7739924313777888e-01   7.8095698970269176e-02   2.3628599234198255e-02   2.5275739242959346e-02   5.5965004494990110e-02   1.4048008962045685e-01   2.2896477228337739e-01   3.3040260682038546e-02   3.3828964160584371e-03   2.0695482647549443e-01   1.5645659723451091e-01   7.4289815677079846e-02   6.9177936767466336e-02   2.2349413009228977e-01   3.1232723692898068e-01   7.7909693925318324e-02   2.7756869108323251e-01   2.3241538895542027e-01   8.4281224085907339e-02   3.0684630223254528e-01   6.4453327736209751e-02   3.8633808418847372e-02   1.8889181015691250e-01   4.1772948708948432e-02   1.7985288722488829e-01   1.9861557529262444e-01   1.9861557529262444e-01   1.3017879488690018e-01   1.1080484802057891e-01   1.5497870091322100e-01   1.6532497307447208e-01   3.4046195887094050e-01   2.8771722859516963e-01   1.6115138991858435e-01   2.7169941813276732e-01   1.8680048363189083e-01   2.6493777476804359e-01   3.0850196657774925e-01   2.2945330887346005e-01   4.3890475106127605e-02   1.0400649342408379e-01   1.2524101984730817e-02   1.9133783814586042e-01   1.1930530579504271e-01   9.8071202729888198e-03   1.8189902683774009e-01   1.8189902683774009e-01   1.8509145119689582e-01   2.0002265711003084e-01   4.8771066951423539e-02   1.1076532334577036e-01   2.1914849057359320e-01   1.6710004545645049e-01   1.4519116992915201e-01   1.2716988871037721e-01   2.8177455493232095e-01   5.4794382878410097e-01   9.7042984260605966e-02   3.2157290310856596e-01   1.4622746227302111e-01   6.8638138080521854e-02   1.4038342823973865e-01   1.1277886738253441e-01   1.0917347518172760e-01   6.7371279970467449e-02   2.9011047606893287e-01   1.2370870490158913e-01   1.4099497653255161e-01   2.7373905505450746e-01   2.1103829856871376e-01   5.2732135930793211e-01   1.6406707385951619e-01   3.2721439076119080e-01   4.3458940988459635e-02   1.8820266910572456e-01   0.0000000000000000e+00   1.5172673573576925e-01   1.9700246066702748e-01   7.0833527383062644e-02   9.0286388018922498e-02   1.1128236764360140e-01   8.1400954368966924e-02   1.1719822005076619e-01   1.1719822005076619e-01   4.5678029114227539e-02   2.9570158178371475e-01   1.5683462178214055e-01   2.2600612749397139e-01   1.2662382629577074e-01   2.4677410047152884e-01   2.8486771389201909e-01   4.0539488061871229e-02   1.5800880157313257e-01   2.6538518846840953e-01   4.0224947139941479e-02   2.5292928020869920e-01   1.6246560056766587e-01   1.0293739809128083e-01   7.9010759794027149e-02   1.7359760388119388e-01   1.4378876359537632e-01   2.9922346981429243e-01   1.5815289387216944e-01   2.5052137607208241e-01   5.8432598627221818e-02   8.3764871045247977e-02   2.1154494262078913e-01   2.0648070282824729e-01   1.2439312720432649e-01   2.4989575222935084e-01   3.0382128255093904e-01   1.1513686900185008e-01   1.5281601952763887e-01   4.5343307888574325e-02   4.9031799831758233e-02   2.5647855549229831e-01   1.6346362875367831e-01   1.8998157110652591e-01   1.7191110633283588e-01   2.7574461723671251e-01   2.1982700254194903e-01   5.8432598627221818e-02   1.7799180094698275e-01   1.1112300644906345e-01   2.2279368320160442e-01   4.8771066951423539e-02   3.3965391978208331e-01   1.8306974230456810e-01   2.5212272141198983e-01   3.3612892348447204e-01   3.1017152285534444e-01   2.7724661738503464e-01   2.3241538895542027e-01   2.1069466497698064e-01   4.5940800078580168e-01   3.0609273035267204e-01   3.3719834754769007e-01   4.2009816542676953e-01   1.6885326736488410e-01   1.6667924762687547e-01   4.8617043007930079e-02   2.9272189267206516e-01   1.0384721808508782e-01   4.0925313418823533e-01   1.6472118536410610e-01   2.1964992030310379e-01   8.0743318589576799e-02   2.7842796939198911e-01   1.0162026247731298e-01   1.1063180670278674e-01   3.3741275471897308e-01   2.6597183755702086e-01   3.2405356485048692e-01   1.3697850561792910e-01   1.0830973025511691e-01   1.7826110259210573e-01   2.4021963002861657e-01   2.9703876160718706e-01   4.0539488061871229e-02   1.0433513547322001e-01   2.1753181358629897e-02   2.3983295131497454e-01   1.8604384164820548e-01   1.2988828911572489e-01   1.5912603283379348e-01   1.7172135783854475e-01   2.4197624129457224e-01   1.7537349683692238e-01   1.3797060670445907e-02   4.6295863514409963e-01   5.7425641220704628e-02   2.8186399190418571e-01   1.9463152253736202e-01   3.9997411877853878e-01   3.9115219603214940e-01   3.2183483338413221e-01   1.7556967696641926e-01   3.6571140651537146e-02   2.0447496133814305e-01   6.4455165462252023e-02   9.0447456145970995e-02   4.0989253024377420e-02   1.1418356839408508e-01   2.2754327426014237e-01   1.1680311125297126e-01   6.3414089528