<?xml version="1.0"?>
<VTKFile type="UnstructuredGrid"  version="0.1"  >
<UnstructuredGrid>
<Piece  NumberOfPoints="17891" NumberOfCells="34480">
<Points>
<DataArray  type="Float64"  NumberOfComponents="3"  format="ascii">3 0.4505813909508334 0  2.858706694155233 0.4348267766209324 0  3 0.7083486900555757 0  2.697160447111943 0.3943208942238857 0  2.895262666184017 0.6857879985520519 0  3 0.9065018226950635 0  2.507383127572992 0.3431775034306555 0  2.753392185228413 0.6300882778426198 0  2.941422924974046 0.8828458499480929 0  3 0.990182154601809 0  2.292893218813706 0.292893218813706 0  2.565213330712254 0.565213330712254 0  2.822205042701531 0.8222050427015308 0  2.978182683361986 0.9781826833619861 0  3 1 0  2.343177503430655 0.5073831275729916 0  2.63008827784262 0.7533921852284131 0  2.882845849948093 0.9414229249740464 0  2.990182154601809 1 0  3 1.009817845398191 0  3.021817316638014 1.021817316638014 0  3.009817845398191 1 0  2.394320894223886 0.6971604471119428 0  2.685787998552052 0.8952626661840173 0  2.906501822695064 1 0  2.978182683361986 1.021817316638014 0  3 1.093498177304937 0  3.058577075025954 1.117154150051907 0  3.177794957298469 1.177794957298469 0  3.117154150051907 1.058577075025954 0  3.093498177304936 1 0  2.434826776620932 0.858706694155233 0  2.708348690055576 1 0  2.882845849948093 1.058577075025954 0  2.941422924974046 1.117154150051907 0  3 1.291651309944424 0  3.104737333815983 1.314212001447948 0  3.246607814771587 1.36991172215738 0  3.434786669287746 1.434786669287746 0  3.36991172215738 1.246607814771587 0  3.314212001447948 1.104737333815983 0  3.291651309944424 1 0  2.450581390950833 1 0  2.685787998552052 1.104737333815983 0  2.822205042701531 1.177794957298469 0  2.895262666184017 1.314212001447948 0  3 1.549418609049167 0  3.141293305844767 1.565173223379068 0  3.302839552888057 1.605679105776114 0  3.492616872427008 1.656822496569345 0  3.707106781186294 1.707106781186294 0  3.656822496569345 1.492616872427008 0  3.605679105776114 1.302839552888057 0  3.565173223379068 1.141293305844767 0  3.549418609049167 1 0  2.434826776620932 1.141293305844767 0  2.63008827784262 1.246607814771587 0  2.753392185228413 1.36991172215738 0  2.858706694155233 1.565173223379068 0  2.394320894223886 1.302839552888057 0  2.565213330712254 1.434786669287746 0  2.697160447111943 1.605679105776114 0  2.343177503430655 1.492616872427008 0  2.507383127572992 1.656822496569345 0  2.292893218813706 1.707106781186294 0  2 4.549418609049167 0  1.858706694155233 4.565173223379068 0  2 4.291651309944425 0  1.697160447111943 4.605679105776114 0  1.895262666184017 4.314212001447948 0  2 4.093498177304936 0  1.507383127572992 4.656822496569345 0  1.753392185228413 4.36991172215738 0  1.941422924974046 4.117154150051907 0  2 4.009817845398191 0  1.292893218813706 4.707106781186294 0  1.565213330712254 4.434786669287746 0  1.822205042701531 4.177794957298469 0  1.978182683361986 4.021817316638014 0  2 4 0  1.343177503430655 4.492616872427009 0  1.63008827784262 4.246607814771587 0  1.882845849948093 4.058577075025953 0  1.990182154601809 4 0  2 3.990182154601809 0  2.021817316638014 3.978182683361986 0  2.009817845398191 4 0  1.394320894223886 4.302839552888058 0  1.685787998552052 4.104737333815983 0  1.906501822695063 4 0  1.978182683361986 3.978182683361986 0  2 3.906501822695064 0  2.058577075025954 3.882845849948093 0  2.177794957298469 3.822205042701531 0  2.117154150051907 3.941422924974046 0  2.093498177304936 4 0  1.434826776620932 4.141293305844767 0  1.708348690055576 4 0  1.882845849948093 3.941422924974046 0  1.941422924974046 3.882845849948093 0  2 3.708348690055576 0  2.104737333815983 3.685787998552052 0  2.246607814771587 3.63008827784262 0  2.434786669287746 3.565213330712254 0  2.36991172215738 3.753392185228413 0  2.314212001447948 3.895262666184017 0  2.291651309944424 4 0  1.450581390950833 4 0  1.685787998552052 3.895262666184017 0  1.822205042701531 3.822205042701531 0  1.895262666184017 3.685787998552052 0  2 3.450581390950833 0  2.141293305844767 3.434826776620932 0  2.302839552888057 3.394320894223886 0  2.492616872427008 3.343177503430655 0  2.707106781186294 3.292893218813706 0  2.656822496569345 3.507383127572992 0  2.605679105776114 3.697160447111943 0  2.565173223379068 3.858706694155233 0  2.549418609049167 4 0  1.434826776620932 3.858706694155233 0  1.63008827784262 3.753392185228413 0  1.753392185228413 3.63008827784262 0  1.858706694155233 3.434826776620932 0  1.394320894223886 3.697160447111943 0  1.565213330712254 3.565213330712254 0  1.697160447111943 3.394320894223886 0  1.343177503430655 3.507383127572992 0  1.507383127572992 3.343177503430655 0  1.292893218813706 3.292893218813706 0  -6 5.549418609049167 0  -5.858706694155233 5.565173223379068 0  -6 5.291651309944425 0  -5.697160447111943 5.605679105776114 0  -5.895262666184017 5.314212001447948 0  -6 5.093498177304936 0  -5.507383127572992 5.656822496569345 0  -5.753392185228413 5.36991172215738 0  -5.941422924974047 5.117154150051907 0  -6 5.009817845398191 0  -5.292893218813706 5.707106781186294 0  -5.565213330712254 5.434786669287746 0  -5.822205042701531 5.177794957298469 0  -5.978182683361986 5.021817316638014 0  -6 5 0  -5.343177503430655 5.492616872427009 0  -5.63008827784262 5.246607814771587 0  -5.882845849948093 5.058577075025953 0  -5.990182154601809 5 0  -6 4.990182154601809 0  -6.021817316638014 4.978182683361986 0  -6.009817845398191 5 0  -5.394320894223886 5.302839552888058 0  -5.685787998552052 5.104737333815983 0  -5.906501822695064 5 0  -5.978182683361986 4.978182683361986 0  -6 4.906501822695064 0  -6.058577075025953 4.882845849948093 0  -6.177794957298469 4.822205042701531 0  -6.117154150051907 4.941422924974047 0  -6.093498177304936 5 0  -5.434826776620932 5.141293305844767 0  -5.708348690055575 5 0  -5.882845849948093 4.941422924974047 0  -5.941422924974047 4.882845849948093 0  -6 4.708348690055575 0  -6.104737333815983 4.685787998552052 0  -6.246607814771587 4.63008827784262 0  -6.434786669287746 4.565213330712254 0  -6.36991172215738 4.753392185228413 0  -6.314212001447948 4.895262666184017 0  -6.291651309944425 5 0  -5.450581390950833 5 0  -5.685787998552052 4.895262666184017 0  -5.822205042701531 4.822205042701531 0  -5.895262666184017 4.685787998552052 0  -6 4.450581390950833 0  -6.141293305844767 4.434826776620932 0  -6.302839552888058 4.394320894223886 0  -6.492616872427009 4.343177503430655 0  -6.707106781186294 4.292893218813706 0  -6.656822496569345 4.507383127572991 0  -6.605679105776114 4.697160447111942 0  -6.565173223379068 4.858706694155233 0  -6.549418609049167 5 0  -5.434826776620932 4.858706694155233 0  -5.63008827784262 4.753392185228413 0  -5.753392185228413 4.63008827784262 0  -5.858706694155233 4.434826776620932 0  -5.394320894223886 4.697160447111942 0  -5.565213330712254 4.565213330712254 0  -5.697160447111942 4.394320894223886 0  -5.343177503430655 4.507383127572991 0  -5.507383127572991 4.343177503430655 0  -5.292893218813706 4.292893218813706 0  -5 2.450581390950833 0  -4.858706694155233 2.434826776620932 0  -5 2.708348690055576 0  -4.697160447111943 2.394320894223886 0  -4.895262666184017 2.685787998552052 0  -5 2.906501822695064 0  -4.507383127572992 2.343177503430655 0  -4.753392185228413 2.63008827784262 0  -4.941422924974047 2.882845849948093 0  -5 2.990182154601809 0  -4.292893218813706 2.292893218813706 0  -4.565213330712254 2.565213330712254 0  -4.822205042701531 2.822205042701531 0  -4.978182683361986 2.978182683361986 0  -5 3 0  -4.343177503430655 2.507383127572992 0  -4.63008827784262 2.753392185228413 0  -4.882845849948093 2.941422924974046 0  -4.990182154601809 3 0  -5 3.009817845398191 0  -5.021817316638014 3.021817316638014 0  -5.009817845398191 3 0  -4.394320894223886 2.697160447111943 0  -4.685787998552052 2.895262666184017 0  -4.906501822695064 3 0  -4.978182683361986 3.021817316638014 0  -5 3.093498177304936 0  -5.058577075025953 3.117154150051907 0  -5.177794957298469 3.177794957298469 0  -5.117154150051907 3.058577075025954 0  -5.093498177304936 3 0  -4.434826776620932 2.858706694155233 0  -4.708348690055575 3 0  -4.882845849948093 3.058577075025954 0  -4.941422924974047 3.117154150051907 0  -5 3.291651309944424 0  -5.104737333815983 3.314212001447948 0  -5.246607814771587 3.36991172215738 0  -5.434786669287746 3.434786669287746 0  -5.36991172215738 3.246607814771587 0  -5.314212001447948 3.104737333815983 0  -5.291651309944425 3 0  -4.450581390950833 3 0  -4.685787998552052 3.104737333815983 0  -4.822205042701531 3.177794957298469 0  -4.895262666184017 3.314212001447948 0  -5 3.549418609049167 0  -5.141293305844767 3.565173223379068 0  -5.302839552888058 3.605679105776114 0  -5.492616872427009 3.656822496569345 0  -5.707106781186294 3.707106781186294 0  -5.656822496569345 3.492616872427008 0  -5.605679105776114 3.302839552888057 0  -5.565173223379068 3.141293305844767 0  -5.549418609049167 3 0  -4.434826776620932 3.141293305844767 0  -4.63008827784262 3.246607814771587 0  -4.753392185228413 3.36991172215738 0  -4.858706694155233 3.565173223379068 0  -4.394320894223886 3.302839552888057 0  -4.565213330712254 3.434786669287746 0  -4.697160447111942 3.605679105776114 0  -4.343177503430655 3.492616872427008 0  -4.507383127572991 3.656822496569345 0  -4.292893218813706 3.707106781186294 0  5 1 0  5 1.1875 0  4.825709888222015 1.037854944111007 0  4.786264867164171 1.260115678616865 0  4.651419776444029 1.075709888222014 0  5 1.375 0  4.644818160953175 1.436037744007759 0  4.465641823823532 1.303565771594816 0  4.302839552888058 1.151419776444029 0  5 1.5625 0  4.421294993849391 1.718733939153952 0  4.746742394938785 1.678619710993132 0  5 1.75 0  4.296598959349347 1.448746669899425 0  4.128549441110072 1.189274720555036 0  4.699672700402207 1.9375 0  5 2.125 0  4.410658553323315 2.018768213700664 0  4.267130272717368 1.863474356104607 0  4.220399009241286 1.64772992213087 0  4.023462850188271 1.566385491943431 0  4.078391068383893 1.37849469453
[...]
<CellData  Scalars="f_7619"> 
<DataArray  type="Float64"  Name="f_7619"  format="ascii">0.0000000000000000e+00   0.0000000000000000e+00   0.0000000000000000e+00   0.0000000000000000e+00   0.0000000000000000e+00   0.0000000000000000e+00   0.0000000000000000e+00   0.0000000000000000e+00   0.0000000000000000e+00   5.3784820868502774e-15   2.6294801313490139e-15   5.3784820868502774e-15   2.6294801313490139e-15   0.0000000000000000e+00   0.0000000000000000e+00   0.0000000000000000e+00   5.4838658048622181e-02   5.4838658048615256e-02   7.5000903248837833e-15   7.5000903248837833e-15   5.4838658048630647e-02   1.2036828805673127e-02   5.4838658048636774e-02   7.5000903248837896e-15   7.5000903248837833e-15   1.2036828805681134e-02   1.2036828805685037e-02   7.5000903248837833e-15   7.5000903248837896e-15   7.5000903248837896e-15   7.5000903248837833e-15   7.5000903248837896e-15   5.4838658048626844e-02   5.4838658048627184e-02   0.0000000000000000e+00   2.0564763794036201e-15   0.0000000000000000e+00   1.2036828805675909e-02   1.2036828805686971e-02   5.6855523430570772e-15   5.4838658048626844e-02   1.2036828805683917e-02   5.4838658048626844e-02   0.0000000000000000e+00   3.6290759636534572e-15   2.0564763794036201e-15   2.0564763794036201e-15   2.0564763794036201e-15   1.2036828805679660e-02   1.2036828805673127e-02   1.2036828805683917e-02   8.0079622181992905e-15   1.2036828805681134e-02   2.6294801313490139e-15   1.2036828805685037e-02   2.6294801313490139e-15   1.2036828805686971e-02   2.6294801313490139e-15   1.2036828805675909e-02   5.3784820868502774e-15   2.6294801313490139e-15   8.0079622181992905e-15   2.6294801313490139e-15   5.3784820868502774e-15   2.1832702139466828e-01   2.1832702139466828e-01   2.1832702139466828e-01   2.3325054898847475e-01   2.1832702139466673e-01   2.1832702139466675e-01   2.3325054898848011e-01   2.1832702139466673e-01   2.1832702139466675e-01   2.1832702139466675e-01   2.1832702139466675e-01   2.1832702139466675e-01   2.1832702139466675e-01   2.1832702139466675e-01   2.1832702139466675e-01   2.1832702139466675e-01   2.1648790049880684e-01   1.2659332778776263e-02   3.2706951881764867e-01   0.0000000000000000e+00   8.2500160832281837e-03   4.0803268938292590e-15   1.2659332778776263e-02   0.0000000000000000e+00   2.1648790049880684e-01   4.0803268938292590e-15   3.2706951881764867e-01   0.0000000000000000e+00   0.0000000000000000e+00   0.0000000000000000e+00   0.0000000000000000e+00   0.0000000000000000e+00   2.4000767273577314e-01   2.4000767273577314e-01   2.4000767273577314e-01   2.4000767273577314e-01   2.4000767273577314e-01   2.4000767273577314e-01   2.4000767273577314e-01   2.4000767273577314e-01   2.4000767273577314e-01   2.4000767273577314e-01   2.4000767273577561e-01   2.4000767273577395e-01   2.4000767273577561e-01   2.4000767273577561e-01   2.4000767273577636e-01   2.4000767273577636e-01   1.1257437023526416e-01   1.1257437023526416e-01   1.9525795447978991e-01   1.5765367913834830e-01   1.1257437023526416e-01   1.1257437023526416e-01   1.5765367913834247e-01   2.3325054898847475e-01   1.1257437023526345e-01   1.1257437023526416e-01   2.1648790049880684e-01   3.2706951881764867e-01   1.1257437023527003e-01   2.3325054898848011e-01   3.2706951881764867e-01   2.1648790049880684e-01   2.1832702139466834e-01   2.1832702139466834e-01   2.1832702139466525e-01   2.1832702139466525e-01   2.1832702139466834e-01   2.1832702139466834e-01   2.1832702139466834e-01   2.1832702139466834e-01   2.1832702139466834e-01   2.1832702139466834e-01   2.1832702139466525e-01   2.3325054898847666e-01   2.1832702139466834e-01   2.1832702139466834e-01   2.3325054898848319e-01   2.1832702139467156e-01   2.4000767273577139e-01   2.4000767273577139e-01   2.4000767273577636e-01   2.4000767273577636e-01   2.4000767273577472e-01   2.4000767273577472e-01   2.4000767273577636e-01   2.4000767273577636e-01   2.4000767273577472e-01   2.4000767273577636e-01   2.4000767273576976e-01   2.4000767273576976e-01   2.4000767273577139e-01   2.4000767273577636e-01   2.4000767273576976e-01   2.4000767273576976e-01   2.1648790049880662e-01   1.2659332778780426e-02   3.2706951881764351e-01   2.8562288256804908e-15   2.1648790049880773e-01   3.2706951881763918e-01   2.8562288256804908e-15   2.8562288256804908e-15   8.2500160832300815e-03   2.9922397221414579e-15   1.2659332778777824e-02   2.9922397221414579e-15   2.8562288256804908e-15   0.0000000000000000e+00   2.9922397221414579e-15   2.8562288256804908e-15   2.1648790049880773e-01   3.2706951881763918e-01   1.1257437023526115e-01   1.1257437023526572e-01   3.2706951881764351e-01   2.1648790049880662e-01   1.1257437023526182e-01   2.3325054898848319e-01   1.1257437023526309e-01   1.1257437023526309e-01   1.9525795447978733e-01   1.5765367913833767e-01   1.1257437023526309e-01   1.1257437023526309e-01   1.5765367913834483e-01   2.3325054898847666e-01   1.9632900809843951e-01   1.9632900809843168e-01   5.4838658048630647e-02   7.9013590487326899e-15   1.9632900809842679e-01   1.9632900809843387e-01   7.9013590487326899e-15   7.0997718988613048e-15   5.4838658048615256e-02   5.4838658048622181e-02   7.9013590487327451e-15   7.9013590487327451e-15   7.9013590487326899e-15   7.9013590487326899e-15   7.9013590487327451e-15   7.9013590487326899e-15   2.4910564655844309e-02   4.0803268938292590e-15   2.4910564655838834e-02   4.0803268938292590e-15   2.4910564655855501e-02   8.1606537876585006e-15   2.4910564655844413e-02   8.1606537876585006e-15   4.0803268938292590e-15   4.0803268938292590e-15   4.0803268938292590e-15   4.0803268938292590e-15   0.0000000000000000e+00   0.0000000000000000e+00   4.0803268938292590e-15   4.0803268938292590e-15   1.9632900809843337e-01   1.9632900809843337e-01   5.4838658048626844e-02   0.0000000000000000e+00   5.4838658048627184e-02   5.4838658048626844e-02   1.7176867497245029e-15   1.7176867497245029e-15   1.9632900809843337e-01   1.7176867497245029e-15   1.9632900809844181e-01   1.7176867497245029e-15   1.7176867497245029e-15   1.7176867497245029e-15   0.0000000000000000e+00   0.0000000000000000e+00   2.4910564655838834e-02   1.9632900809842679e-01   1.9632900809843387e-01   1.3944173677590992e-15   2.4910564655844413e-02   1.9632900809843337e-01   1.9632900809844181e-01   8.5059459433305353e-15   1.9632900809843168e-01   1.9632900809843337e-01   1.9632900809843951e-01   0.0000000000000000e+00   5.5776694710364085e-15   8.5059459433305353e-15   8.5059459433305353e-15   8.5059459433305353e-15   5.6801390285071696e-01   7.5861607575082479e-01   0.0000000000000000e+00   0.0000000000000000e+00   5.6801390285070130e-01   7.8192059603522179e-01   0.0000000000000000e+00   5.6801390285071696e-01   5.6801390285075848e-01   7.5861607575082479e-01   9.0456053331889684e-14   9.0331114031703430e-14   5.6801390285067543e-01   7.8192059603522013e-01   9.0456053331889684e-14   5.6801390285061826e-01   7.7623159714595144e-02   1.1036977819314678e-01   1.0593152989878083e+00   8.1054272491507295e-01   1.0022961919065365e+00   9.0076698003861799e-01   1.1036977819315805e-01   1.1036977819315805e-01   7.7623159714601653e-02   3.0773313241747763e-01   7.7623159714601653e-02   2.2208442586049162e-01   1.1036977819314747e-01   1.1036977819314747e-01   3.0773313241747441e-01   1.1240343933095412e-01   7.7623159714583861e-02   3.0773313241745864e-01   7.7623159714606607e-02   2.2208442586050778e-01   1.1036977819313619e-01   1.1036977819313619e-01   3.0773313241749667e-01   1.1240343933095982e-01   1.0593152989878083e+00   1.0022961919065450e+00   7.7623159714583861e-02   1.1036977819313619e-01   1.1036977819313619e-01   1.1036977819313619e-01   1.0022961919065450e+00   9.0076698003862798e-01   1.0022961919065450e+00   9.0076698003862798e-01   2.4062454610605616e-01   2.4062454610605616e-01   2.4062454610602682e-01   1.0022961919065450e+00   8.1054272491507295e-01   1.0593152989878083e+00   5.6801390285061826e-01   7.8192059603522013e-01   2.4062454610605616e-01   2.4062454610605616e-01   9.0076698003861799e-01   1.0022961919065365e+00   7.8192059603522179e-01   5.6801390285071696e-01   1.4642594335795631e-01   3.8372347686974734e-01   1.4642594335795631e-01   1.4642594335795631e-01   3.8372347686974534e-01   1.7712398124363837e-01   1.4642594335795428e-01   1.4642594335795289e-01   1.4642594335795853e-01   1.4642594335795631e-01   1.4642594335795631e-01   1.4756431184856708e-01   1.4642594335795853e-01   1.7712398124363246e-01   1.4756431184856608e-01   1.4642594335795853e-01   1.2932792155151718e-01   4.2837484996443870e-01   2.0908802934738187e-02   2.0908802934738187e-02   4.2837484996444303e-01   4.0838049317316560e-01   2.0908802934738187e-02   2.0908802934738187e-02   2.0908802934736129e-02   2.0908802934736129e-02   2.0908802934737607e-02   2.0908802934737607e-02   2.0908802934736129e-02   2.0908802934736129e-02   2.0908802934732018e-02   2.0908802934732018e-02   7.1629130362528459e-01   6.0588795403949358e-01   3.6801491434262958e-02   3.6801491434262958e-02   6.0588795403949591e-01   7.1629130362529481e-01   3.6801491434262958e-02   3.6801491434262958e-02   3.6801491434258475e-02   3.6801491434258475e-02   1.1826777634907623e-01   5.7956241738741171e-02   3.6801491434258475e-02   2.0861217128075701e-01   5.7956241738746833e-02   1.1826777634907042e-01   9.7162545691167695e-02   1.1826777634907042e-01   9.7162545691173538e-02   9.7162545691169735e-02   1.1826777634907623e-01   9.7162545691173538e-02   9.7162545691175578e-02   9.7162545691175578e-02   9.7162545691166197e-02   9.7162545691167695e-02   3.8372347686974534e-01   1.4435969968953646e-01   9.7162545691170291e-02   9.7162545691170291e-02   1.4435969968953385e-01   3.8372347686974734e-01   1.4642594335795853e-01   1.4642594335795853e-01   1.4642594335795631e-01   1.4756431184856536e-01   1.4642594335795853e-01   1.7712398124363266e-01   1.4756431184856608e-01   1.4642594335795853e-01   1.4642594335795853e-01   1.4642594335795853e-01   1.4642594335795631e-01   3.8372347686975233e-01   1.4642594335795853e-01   1.4642594335795853e-01   3.8372347686974528e-01   1.7712398124363082e-01   3.6801491434267607e-02   3.6801491434260196e-02   1.1826777634906854e-01   5.7956241738742982e-02   3.6801491434267607e-02   2.0861217128076145e-01   5.7956241738741886e-02   1.1826777634906854e-01   3.6801491434260196e-02   3.6801491434260196e-02   7.1629130362529569e-01   6.0588795403949836e-01   3.6801491434260196e-02   3.6801491434260196e-02   6.0588795403949547e-01   7.1629130362530302e-01   2.0908802934737226e-02   2.0908802934737226e-02   2.0908802934733062e-02   2.0908802934733062e-02   2.0908802934733062e-02   2.0908802934736129e-02   2.0908802934733062e-02   2.0908802934733062e-02   2.0908802934736129e-02   2.0908802934737226e-02   4.0838049317317687e-01   4.2837484996443331e-01   2.0908802934733062e-02   2.0908802934737226e-02   4.2837484996443909e-01   1.2932792155151315e-01   3.8372347686974528e-01   1.4435969968954071e-01   9.7162545691161825e-02   9.7162545691164962e-02   1.4435969968953385e-01   3.8372347686975233e-01   9.7162545691170291e-02   9.7162545691170291e-02   9.7162545691179880e-02   1.1826777634906854e-01   9.7162545691179880e-02   9.7162545691174537e-02   1.1826777634906854e-01   9.7162545691171387e-02   9.7162545691179880e-02   9.7162545691171387e-02   3.0773313241747441e-01   1.1240343933095412e-01   8.7137510527085724e-02   8.7137510527080839e-02   2.2208442586049162e-01   3.0773313241747763e-01   8.7137510527085724e-02   8.7137510527077716e-02   8.7137510527064713e-02   8.7137510527079076e-02   6.0588795403949591e-01   7.1629130362529481e-01   8.7137510527067683e-02   8.7137510527079076e-02   7.1629130362528459e-01   6.0588795403949358e-01   4.2837484996443909e-01   2.8278641274612581e-01   2.8278641274612581e-01   2.8278641274612581e-01   2.8278641274612093e-01   4.0838049317317687e-01   2.8278641274611505e-01   4.2837484996443870e-01   2.8278641274611999e-01   5.4023361156206173e-01   2.8278641274611999e-01   2.8278641274612581e-01   5.4023361156204375e-01   4.0838049317316560e-01   2.8278641274612581e-01   4.2837484996444303e-01   6.0588795403949547e-01   7.1629130362530302e-01   8.7137510527069320e-02   8.7137510527075829e-02   7.1629130362529569e-01   6.0588795403949836e-01   8.7137510527085446e-02   8.7137510527085446e-02   3.0773313241749667e-01   1.1240343933095982e-01   8.7137510527080839e-02   8.7137510527075829e-02   2.2208442586050778e-01   3.0773313241745864e-01   8.7137510527083961e-02   8.7137510527083961e-02   5.4023361156206173e-01   1.1137191827743001e-14   2.6767024309445886e-01   1.6162510091480785e-14   2.6767024309447246e-01   1.7656523629348633e-15   5.4023361156204375e-01   8.0133453394736333e-15   1.1137191827743001e-14   1.4261038316012355e-14   1.4261038316012355e-14   1.4261038316012355e-14   1.4261038316012355e-14   1.6162510091480785e-14   1.9286356579750151e-14   1.9286356579750151e-14   9.3934251983228897e-02   9.3934251983228897e-02   1.7712398124363266e-01   9.3934251983228897e-02   9.3934251983228897e-02   9.3934251983228897e-02   9.3934251983233935e-02   1.7712398124363082e-01   9.3934251983233935e-02   9.3934251983233935e-02   9.3934251983233935e-02   9.3934251983233935e-02   9.3934251983233935e-02   9.3934251983233935e-02   9.3934251983233935e-02   9.3934251983233935e-02   2.7110422560275033e-01   2.7110422560275010e-01   2.7110422560275715e-01   2.7110422560275715e-01   3.2608167301432922e-01   3.2608167301432922e-01   3.2608167301433666e-01   3.2608167301433666e-01   2.7110422560275599e-01   2.7110422560275599e-01   2.7110422560274938e-01   3.2608167301432922e-01   3.2608167301433583e-01   3.2608167301433583e-01   3.2608167301432961e-01   3.2608167301432961e-01   1.7758780344646061e-01   1.7758780344646061e-01   2.0861217128076145e-01   1.7758780344646694e-01   1.7758780344645952e-01   1.7758780344645969e-01   1.7758780344645952e-01   2.0861217128075257e-01   1.7758780344645969e-01   1.7758780344645969e-01   1.7758780344646605e-01   4.0366991392252055e-01   1.7758780344645969e-01   1.7758780344645969e-01   2.1460990707807223e-01   1.7758780344646061e-01   5.8275594040831734e-02   1.9324529225845646e-01   9.5601777649377315e-02   2.1460990707807223e-01   1.9324529225845472e-01   4.0366991392252055e-01   1.9324529225845666e-01   1.9324529225845666e-01   1.3535076083134084e-01   5.8275594040826995e-02   5.8275594040826786e-02   3.2608167301432961e-01   1.9324529225846165e-01   1.9324529225846165e-01   1.9324529225846165e-01   1.9324529225846165e-01   1.3091562592647954e-02   4.7664176953494602e-01   4.9435052303799931e-01   5.6116036307818496e-15   4.9435052303799981e-01   4.9435052303799981e-01   4.9435052303799953e-01   5.0662239329307679e-01   5.7309994527133742e-15   6.3279785623710187e-15   4.9435052303799931e-01   6.3279785623710187e-15   4.9435052303799931e-01   4.9435052303799931e-01   4.9435052303799903e-01   4.9435052303799903e-01   5.6165501857024513e-01   8.1606537876585669e-15   4.2750554461259938e-01   8.1606537876585669e-15   5.6165501857023015e-01   5.6165501857024513e-01   5.6165501857023348e-01   5.6165501857023348e-01   5.9748539813326340e-01   5.6165501857023770e-01   1.1706507975201411e-01   8.1606537876585006e-15   5.6165501857023770e-01   5.6165501857023770e-01   5.6165501857024114e-01   5.6165501857024114e-01   4.3706177878278230e-01   0.0000000000000000e+00   3.6999613487066130e-01   3.4353734994490067e-16   4.3706177878278230e-01   4.3706177878278230e-01   4.3706177878278313e-01   4.3706177878278313e-01   0.0000000000000000e+00   4.3706177878278230e-01   0.0000000000000000e+00   3.4353734994490067e-16   4.3706177878278191e-01   4.3706177878278230e-01   4.3706177878278279e-01   4.3706177878278279e-01   4.5202003963897958e-01   1.1706507975202923e-01   4.8897053985059497e-01   7.0162135297299956e-15   4.8897053985059530e-01   5.9748539813326340e-01   4.8897053985058786e-01   4.8897053985059497e-01   4.8897053985058742e-01   5.0662239329307679e-01   1.3091562592642342e-02   7.9839671200375766e-15   4.8897053985058869e-01   4.8897053985058869e-01   4.8897053985059530e-01   4.8897053985059530e-01   4.9895410280582925e-01   5.6801390285067543e-01   7.4326039001650426e-02   2.1361397779650945e-01   2.1361397779650945e-01   2.1361397779650945e-01   5.6801390285075848e-01   7.5861607575082479e-01   7.4326039001650426e-02   1.3232892389829962e+00   2.8680162365684059e-01   1.2162447673207895e+00   2.1361397779650945e-01   2.8680162365684059e-01   1.2162447673207781e+00   9.3164277046414767e-01   2.2654712986071028e-03   2.2654712986071028e-03   3.7263850515323160e-01   0.0000000000000000e+00   3.7263850515321711e-01   3.7263850515323160e-01   3.7263850515320485e-01   3.7482486949085098e-01   8.2806583962622915e-01   9.7773667267657116e-01   3.7263850515321933e-01   0.0000000000000000e+00   3.7263850515321933e-01   3.7263850515321933e-01   8.2806583962622871e-01   3.7263850515321933e-01   1.1956034450823902e-01   2.6767024309445137e-01   3.0008417041261663e-02   4.9010218740243422e-01   4.9010218740243422e-01   4.9010218740243422e-01   4.9010218740243261e-01   7.3370937293435590e-01   3.0008417041261663e-02   8.0784404980196822e-01   4.6179168497009104e-01   4.1627988236906283e-01   4.9010218740243988e-01   4.9010218740243988e-01   4.9010218740243661e-01   4.9010218740243661e-01   1.8744855651742698e-01   1.8744855651742698e-01   9.3164277046414767e-01   1.2162447673207781e+00   1.2162447673207895e+00   1.3232892389829962e+00   1.7911223048301295e-01   1.7911223048301295e-01   3.6350963894196869e-01   2.6767024309445581e-01   1.8744855651742598e-01   7.3370937293435590e-01   2.6767024309445137e-01   1.7911223048300035e-01   1.7911223048300035e-01   3.6350963894196869e-01   6.7387313731701162e-02   3.6999613487066096e-01   1.9412365463666567e-01   1.7981465218702961e-01   3.6999613487066130e-01   5.4081557382711087e-01   3.6999613487066069e-01   3.6999613487066096e-01   3.0450689219765398e-01   6.7387313731702675e-02   6.7387313731702675e-02   4.3706177878278279e-01   3.6999613487066157e-01   3.6999613487066157e-01   3.6999613487066096e-01   3.6999613487066096e-01   1.0440859708587941e-01   4.2750554461260015e-01   1.8182937175213920e-01   4.1627988236906283e-01   4.2750554461259938e-01   8.0784404980196822e-01   4.2750554461260015e-01   4.2750554461260015e-01   5.2604411352194769e-01   1.0440859708587941e-01   1.0440859708587941e-01   5.6165501857023348e-01   4.2750554461259938e-01   4.2750554461259938e-01   4.2750554461260015e-01   5.2604411352194769e-01   1.5174562131757652e-01   1.8765328027063805e-01   3.4827135515168423e-01   8.2806583962622871e-01   8.2806583962622915e-01   9.7773667267657116e-01   1.8765328027063860e-01   1.8765328027063860e-01   3.3699983651813864e-01   1.5174562131757652e-01   1.5174562131757635e-01   4.3537167959553369e-01   1.8765328027063896e-01   1.8765328027063949e-01   1.8765328027063860e-01   3.3699983651813864e-01   4.3537167959553408e-01   0.0000000000000000e+00   1.8765328027063949e-01   5.4855054542159262e-16   4.3537167959553408e-01   4.3537167959553408e-01   4.3537167959553319e-01   4.3537167959553369e-01   5.4081557382711087e-01   4.3537167959553408e-01   1.7981465218702961e-01   5.4855054542159262e-16   4.3537167959553458e-01   4.3537167959553458e-01   4.3537167959553369e-01   4.3537167959553369e-01   9.3934251983234102e-02   9.3934251983234102e-02   9.3934251983234102e-02   9.3934251983234102e-02   9.3934251983235378e-02   9.3934251983235378e-02   9.3934251983234102e-02   9.3934251983234102e-02   9.3934251983234102e-02   9.3934251983234102e-02   9.3934251983237266e-02   9.3934251983234102e-02   9.3934251983237266e-02   9.3934251983237266e-02   9.3934251983237266e-02   9.3934251983234560e-02   1.7758780344646663e-01   1.7758780344646663e-01   1.7758780344646663e-01   1.7758780344646474e-01   1.7758780344646663e-01   1.7758780344646663e-01   1.7758780344646663e-01   1.7758780344646505e-01   1.7758780344646505e-01   4.0366991392251816e-01   1.7758780344646319e-01   1.7758780344646319e-01   2.1460990707