<?xml version="1.0"?>
<VTKFile type="UnstructuredGrid"  version="0.1"  >
<UnstructuredGrid>
<Piece  NumberOfPoints="19875" NumberOfCells="38416">
<Points>
<DataArray  type="Float64"  NumberOfComponents="3"  format="ascii">3 0.4118207621415985 0  2.850097571428131 0.4003902857125256 0  3 0.6451325180728931 0  2.685321360221745 0.3706427204434891 0  2.876293965053353 0.62888189516006 0  3 0.8443666535747749 0  2.499093303904763 0.3321244052063501 0  2.726084095315085 0.5891261429726272 0  2.911582771125035 0.8231655422500692 0  3 0.9693365453905908 0  2.292893218813691 0.292893218813691 0  2.542331217136824 0.5423312171368238 0  2.775577275295324 0.7755772752953246 0  2.950052991924517 0.9500529919245165 0  3 1 0  2.33212440520635 0.4990933039047626 0  2.589126142972627 0.7260840953150849 0  2.823165542250069 0.9115827711250346 0  2.969336545390591 1 0  3 1.030663454609409 0  3.049947008075483 1.049947008075483 0  3.030663454609409 1 0  2.370642720443489 0.6853213602217444 0  2.62888189516006 0.8762939650533533 0  2.844366653574775 1 0  2.950052991924517 1.049947008075483 0  3 1.155633346425225 0  3.088417228874965 1.176834457749931 0  3.224422724704676 1.224422724704675 0  3.176834457749931 1.088417228874965 0  3.155633346425225 1 0  2.400390285712525 0.8500975714281314 0  2.645132518072893 1 0  2.823165542250069 1.088417228874965 0  2.911582771125035 1.176834457749931 0  3 1.354867481927107 0  3.123706034946647 1.37111810483994 0  3.273915904684915 1.410873857027373 0  3.457668782863176 1.457668782863176 0  3.410873857027373 1.273915904684915 0  3.37111810483994 1.123706034946647 0  3.354867481927107 1 0  2.411820762141598 1 0  2.62888189516006 1.123706034946647 0  2.775577275295324 1.224422724704675 0  2.876293965053353 1.37111810483994 0  3 1.588179237858402 0  3.149902428571869 1.599609714287475 0  3.314678639778255 1.629357279556511 0  3.500906696095238 1.66787559479365 0  3.707106781186309 1.707106781186309 0  3.66787559479365 1.500906696095238 0  3.629357279556511 1.314678639778255 0  3.599609714287475 1.149902428571869 0  3.588179237858402 1 0  2.400390285712525 1.149902428571869 0  2.589126142972627 1.273915904684915 0  2.726084095315085 1.410873857027373 0  2.850097571428131 1.599609714287475 0  2.370642720443489 1.314678639778255 0  2.542331217136824 1.457668782863176 0  2.685321360221745 1.629357279556511 0  2.33212440520635 1.500906696095238 0  2.499093303904762 1.66787559479365 0  2.292893218813691 1.707106781186309 0  2 4.588179237858402 0  1.850097571428131 4.599609714287475 0  2 4.354867481927107 0  1.685321360221745 4.629357279556511 0  1.876293965053353 4.37111810483994 0  2 4.155633346425225 0  1.499093303904763 4.667875594793649 0  1.726084095315085 4.410873857027373 0  1.911582771125035 4.176834457749931 0  2 4.030663454609409 0  1.292893218813691 4.707106781186309 0  1.542331217136824 4.457668782863176 0  1.775577275295325 4.224422724704676 0  1.950052991924517 4.049947008075484 0  2 4 0  1.33212440520635 4.500906696095237 0  1.589126142972627 4.273915904684915 0  1.823165542250069 4.088417228874965 0  1.969336545390591 4 0  2 3.969336545390591 0  2.049947008075483 3.950052991924517 0  2.030663454609409 4 0  1.370642720443489 4.314678639778256 0  1.62888189516006 4.123706034946647 0  1.844366653574775 4 0  1.950052991924517 3.950052991924517 0  2 3.844366653574775 0  2.088417228874965 3.823165542250069 0  2.224422724704676 3.775577275295324 0  2.176834457749931 3.911582771125035 0  2.155633346425225 4 0  1.400390285712525 4.149902428571869 0  1.645132518072893 4 0  1.823165542250069 3.911582771125035 0  1.911582771125035 3.823165542250069 0  2 3.645132518072893 0  2.123706034946647 3.62888189516006 0  2.273915904684915 3.589126142972627 0  2.457668782863176 3.542331217136824 0  2.410873857027373 3.726084095315085 0  2.37111810483994 3.876293965053353 0  2.354867481927107 4 0  1.411820762141598 4 0  1.62888189516006 3.876293965053353 0  1.775577275295325 3.775577275295324 0  1.876293965053353 3.62888189516006 0  2 3.411820762141598 0  2.149902428571869 3.400390285712525 0  2.314678639778255 3.370642720443489 0  2.500906696095238 3.33212440520635 0  2.707106781186309 3.292893218813691 0  2.66787559479365 3.499093303904762 0  2.629357279556511 3.685321360221745 0  2.599609714287475 3.850097571428131 0  2.588179237858402 4 0  1.400390285712525 3.850097571428131 0  1.589126142972627 3.726084095315085 0  1.726084095315085 3.589126142972627 0  1.850097571428131 3.400390285712525 0  1.370642720443489 3.685321360221745 0  1.542331217136824 3.542331217136824 0  1.685321360221745 3.370642720443489 0  1.33212440520635 3.499093303904762 0  1.499093303904762 3.33212440520635 0  1.292893218813691 3.292893218813691 0  -6 5.588179237858402 0  -5.850097571428131 5.599609714287475 0  -6 5.354867481927107 0  -5.685321360221745 5.629357279556511 0  -5.876293965053353 5.37111810483994 0  -6 5.155633346425225 0  -5.499093303904763 5.667875594793649 0  -5.726084095315085 5.410873857027373 0  -5.911582771125035 5.176834457749931 0  -6 5.030663454609409 0  -5.292893218813691 5.707106781186309 0  -5.542331217136824 5.457668782863176 0  -5.775577275295324 5.224422724704676 0  -5.950052991924516 5.049947008075484 0  -6 5 0  -5.332124405206351 5.500906696095237 0  -5.589126142972627 5.273915904684915 0  -5.823165542250069 5.088417228874965 0  -5.969336545390591 5 0  -6 4.969336545390591 0  -6.049947008075484 4.950052991924516 0  -6.030663454609409 5 0  -5.370642720443489 5.314678639778256 0  -5.62888189516006 5.123706034946647 0  -5.844366653574775 5 0  -5.950052991924516 4.950052991924516 0  -6 4.844366653574775 0  -6.088417228874965 4.823165542250069 0  -6.224422724704676 4.775577275295324 0  -6.176834457749931 4.911582771125035 0  -6.155633346425225 5 0  -5.400390285712525 5.149902428571869 0  -5.645132518072893 5 0  -5.823165542250069 4.911582771125035 0  -5.911582771125035 4.823165542250069 0  -6 4.645132518072893 0  -6.123706034946647 4.62888189516006 0  -6.273915904684915 4.589126142972627 0  -6.457668782863176 4.542331217136824 0  -6.410873857027373 4.726084095315085 0  -6.37111810483994 4.876293965053353 0  -6.354867481927107 5 0  -5.411820762141598 5 0  -5.62888189516006 4.876293965053353 0  -5.775577275295324 4.775577275295324 0  -5.876293965053353 4.62888189516006 0  -6 4.411820762141598 0  -6.149902428571869 4.400390285712525 0  -6.314678639778256 4.370642720443489 0  -6.500906696095237 4.332124405206351 0  -6.707106781186309 4.292893218813691 0  -6.667875594793649 4.499093303904763 0  -6.629357279556511 4.685321360221744 0  -6.599609714287475 4.850097571428131 0  -6.588179237858402 5 0  -5.400390285712525 4.850097571428131 0  -5.589126142972627 4.726084095315085 0  -5.726084095315085 4.589126142972627 0  -5.850097571428131 4.400390285712525 0  -5.370642720443489 4.685321360221744 0  -5.542331217136824 4.542331217136824 0  -5.685321360221744 4.370642720443489 0  -5.332124405206351 4.499093303904763 0  -5.499093303904763 4.332124405206351 0  -5.292893218813691 4.292893218813691 0  -5 2.411820762141598 0  -4.850097571428131 2.400390285712525 0  -5 2.645132518072893 0  -4.685321360221745 2.370642720443489 0  -4.876293965053353 2.62888189516006 0  -5 2.844366653574775 0  -4.499093303904763 2.33212440520635 0  -4.726084095315085 2.589126142972627 0  -4.911582771125035 2.823165542250069 0  -5 2.969336545390591 0  -4.292893218813691 2.292893218813691 0  -4.542331217136824 2.542331217136824 0  -4.775577275295324 2.775577275295324 0  -4.950052991924516 2.950052991924517 0  -5 3 0  -4.332124405206351 2.499093303904762 0  -4.589126142972627 2.726084095315085 0  -4.823165542250069 2.911582771125035 0  -4.969336545390591 3 0  -5 3.030663454609409 0  -5.049947008075484 3.049947008075483 0  -5.030663454609409 3 0  -4.370642720443489 2.685321360221745 0  -4.62888189516006 2.876293965053353 0  -4.844366653574775 3 0  -4.950052991924516 3.049947008075483 0  -5 3.155633346425225 0  -5.088417228874965 3.176834457749931 0  -5.224422724704676 3.224422724704676 0  -5.176834457749931 3.088417228874965 0  -5.155633346425225 3 0  -4.400390285712525 2.850097571428131 0  -4.645132518072893 3 0  -4.823165542250069 3.088417228874965 0  -4.911582771125035 3.176834457749931 0  -5 3.354867481927107 0  -5.123706034946647 3.37111810483994 0  -5.273915904684915 3.410873857027373 0  -5.457668782863176 3.457668782863176 0  -5.410873857027373 3.273915904684915 0  -5.37111810483994 3.123706034946647 0  -5.354867481927107 3 0  -4.411820762141598 3 0  -4.62888189516006 3.123706034946647 0  -4.775577275295324 3.224422724704676 0  -4.876293965053353 3.37111810483994 0  -5 3.588179237858402 0  -5.149902428571869 3.599609714287475 0  -5.314678639778256 3.629357279556511 0  -5.500906696095237 3.66787559479365 0  -5.707106781186309 3.707106781186309 0  -5.667875594793649 3.500906696095238 0  -5.629357279556511 3.314678639778255 0  -5.599609714287475 3.149902428571869 0  -5.588179237858402 3 0  -4.400390285712525 3.149902428571869 0  -4.589126142972627 3.273915904684915 0  -4.726084095315085 3.410873857027373 0  -4.850097571428131 3.599609714287475 0  -4.370642720443489 3.314678639778255 0  -4.542331217136824 3.457668782863176 0  -4.685321360221744 3.629357279556511 0  -4.332124405206351 3.500906696095238 0  -4.499093303904763 3.66787559479365 0  -4.292893218813691 3.707106781186309 0  5 1 0  5 1.1875 0  4.828669659944564 1.039334829972282 0  5 1.375 0  4.799955282837507 1.28125 0  4.657339319889128 1.078669659944564 0  4.820634918236892 1.506417692786598 0  4.6452355475728 1.438948303365132 0  4.608183587928194 1.257360882676231 0  4.486008979833692 1.118004489916846 0  5 1.5625 0  4.747895110462368 1.679697749640207 0  5 1.75 0  4.573762165742714 1.611688335159911 0  4.356652757945501 1.442880316242406 0  4.314678639778256 1.157339319889128 0  4.702758856255141 1.9375 0  4.42396586971011 1.723530333486135 0  4.232041642026576 1.621165377692019 0  4.149300793242634 1.407019981108342 0  4.143348299722819 1.19667414986141 0  5 1.9375 0  4.76147754489104
[...]
<PointData  Scalars="u"> 
<DataArray  type="Float64"  Name="u"  format="ascii">5.3498481490658897e+01  5.7338927801889440e+01  5.3551012431691646e+01  6.0722470264937456e+01  5.8416280563512906e+01  5.3605926854144208e+01  6.3479290914917847e+01  6.2408334397073801e+01  6.0328380707786557e+01  5.4314487519384642e+01  6.5646816062844721e+01  6.5320347749435072e+01  6.4867409193266170e+01  6.4510183763607856e+01  5.4074315735055769e+01  6.7441291542891776e+01  6.7650942639238764e+01  6.8504912313787770e+01  7.2079933797368540e+01  7.1982334894517507e+01  6.4361111040234803e+01  5.4223092517093896e+01  6.9495898048157770e+01  7.0427301216944059e+01  7.2583109339797474e+01  7.5087834177259310e+01  7.2109035315315992e+01  6.7702574995396716e+01  6.3537403961946609e+01  5.9541972959276585e+01  5.3148440934956938e+01  7.1686484315013317e+01  7.3126872499432466e+01  7.5031240074936690e+01  7.4758993241045957e+01  7.2023002529722135e+01  6.8901799402042215e+01  6.5559980280604790e+01  6.2567966901978984e+01  6.0385573941280420e+01  5.6968263520146500e+01  5.2533208836036145e+01  7.3744686185354652e+01  7.5064782288429001e+01  7.5652395493976513e+01  7.4281195371594961e+01  7.1869868708644589e+01  6.9317830134500596e+01  6.6541299982959146e+01  6.3831104344836255e+01  6.1359218573798223e+01  6.0025807682780901e+01  5.7993292340378510e+01  5.5213526327158540e+01  5.1862960932325137e+01  7.5339696440320495e+01  7.6033856775804864e+01  7.5597561679004826e+01  7.3894860456289251e+01  7.6379977040841354e+01  7.6374495732408036e+01  7.5363247237157196e+01  7.6962433220518193e+01  7.6423461465460036e+01  7.7252532365167525e+01  5.9348754738231712e+01  6.3070678358438990e+01  5.9484459824360250e+01  6.6315670494533023e+01  6.4227477314940742e+01  5.9627116988513265e+01  6.8917298806955287e+01  6.8062122787402956e+01  6.6241531262041178e+01  6.0400741278002656e+01  7.0921279231489834e+01  7.0786281856623276e+01  7.0609161022651307e+01  7.0524287596564292e+01  6.0177582035161620e+01  7.2702259813382554e+01  7.3166283657421076e+01  7.4342962286674961e+01  7.8139139105981869e+01  7.8109172136274196e+01  7.0558706773119340e+01  6.0364424810785508e+01  7.4756349172687393e+01  7.6001491414118675e+01  7.8481438703152151e+01  8.1154457976938744e+01  7.8309612021877513e+01  7.4041690772787646e+01  7.0094866602983046e+01  6.5920623124142281e+01  5.9434783153209708e+01  7.6951059275981450e+01  7.8738138174733166e+01  8.0934793427903230e+01  8.0841293226948906e+01  7.8374127932223544e+01  7.5468460559368538e+01  7.2387704034606770e+01  6.9675496087497407e+01  6.7202574997730778e+01  6.3582289871485514e+01  5.9014983851644843e+01  7.8998773106259705e+01  8.0669014668807151e+01  8.1535263070318706e+01  8.0424768128638519e+01  7.8445996111468560e+01  7.6196666087883898e+01  7.3734842791197892e+01  7.1327251276002443e+01  6.9090729377766053e+01  6.7368445935246058e+01  6.5036121985815726e+01  6.2030772121538831e+01  5.8510624411470239e+01  8.0546880933869176e+01  8.1588171245905841e+01  8.1466226488249816e+01  8.0154043935161141e+01  8.1495127869493217e+01  8.1854077729946283e+01  8.1241379580045674e+01  8.1941195850576378e+01  8.1816401078530205e+01  8.2055453849603779e+01  5.3635602799627222e+01  5.7650241198153111e+01  5.3515221050903072e+01  6.1233514086429111e+01  5.8584837197979979e+01  5.3387706959178047e+01  6.4210175289236631e+01  6.2797374534696623e+01  6.0379196007854468e+01  5.4025851163381837e+01  6.6603882582037983e+01  6.5943483240153739e+01  6.5143001055577074e+01  6.4738419247143497e+01  5.4751035769279959e+01  6.8311782776550658e+01  6.8160765265155632e+01  6.8754451458214675e+01  7.3223089857803444e+01  7.3046826379723882e+01  6.4335237333231021e+01  5.3852023260310588e+01  7.0262896264063727e+01  7.0843788231036399e+01  7.2884633999652578e+01  7.5699688694638724e+01  7.1962003397050367e+01  6.7208527758780605e+01  6.2602803893918356e+01  5.8898176001193846e+01  5.2532612019046894e+01  7.2345827527694539e+01  7.3468254373906390e+01  7.5224210547285111e+01  7.4685834968195465e+01  7.1261054475146807e+01  6.7848563274527606e+01  6.4137031785942312e+01  6.0777736628109544e+01  5.9040587201045980e+01  5.5926345835096456e+01  5.1660987289256298e+01  7.4309901490349745e+01  7.5308729741169515e+01  7.5589253793579104e+01  7.3711485784316608e+01  7.0440288683581443e+01  6.7585739227732802e+01  6.4487574806909464e+01  6.1471726169693802e+01  5.8755079695130043e+01  5.7929078032750638e+01  5.6307633070035216e+01  5.3847978115797794e+01  5.0741349335760908e+01  7.5833311661318788e+01  7.6139505232401319e+01  7.5218726976829956e+01  7.2761611580578219e+01  7.6814985195384054e+01  7.6297205232528640e+01  7.4576821898165804e+01  7.7331071568584605e+01  7.6098438127464590e+01  7.7520883589974233e+01  6.0540457165330068e+01  6.4279515517631026e+01  6.0679825661241871e+01  6.7532492695270065e+01  6.5431513318151715e+01  6.0826735108246204e+01  7.0133666900028274e+01  6.9266390582283705e+01  6.7444770809669180e+01  6.1604454007354299e+01  7.2128868664176323e+01  7.1980976354147074e+01  7.1806232887263377e+01  7.1737873429533309e+01  6.1376713170860207e+01  7.3876742660253001e+01  7.4343435574916313e+01  7.5540404437535145e+01  7.9383974312772366e+01  7.9350356912173140e+01  7.1777128452224133e+01  6.1569370114649331e+01  7.5898832024473649e+01  7.7165498066935143e+01  7.9680415232879469e+01  8.2377545679362839e+01  7.9525108578446336e+01  7.5260731688931145e+01  7.1310217093552509e+01  6.7125901103931810e+01  6.0631018123353606e+01  7.8061166596360366e+01  7.9886504402634401e+01  8.2121244744259158e+01  8.2040012946780848e+01  7.9578734351058557e+01  7.6697713731307900e+01  7.3625257171201000e+01  7.0876396735246118e+01  6.8378439757706289e+01  6.4744907228744992e+01  6.0163592604164911e+01  8.0070170621869281e+01  8.1786539082575871e+01  8.2685324483349831e+01  8.1585597204063575e+01  7.9624457922594274e+01  7.7438666739106409e+01  7.5011741546917918e+01  7.2576951201411887e+01  7.0179164914800324e+01  6.8429843722664359e+01  6.6085435816328442e+01  6.3071453277139497e+01  5.9537052078305777e+01  8.1561467465004483e+01  8.2644684435494383e+01  8.2545267186219974e+01  8.1239924738769062e+01  8.2421105643355219e+01  8.2805457316161949e+01  8.2195970026608904e+01  8.2731770967652068e+01  8.2600796056295650e+01  8.2648051518435935e+01  4.8493066051343305e+01  4.9525363893307045e+01  4.9096846770697908e+01  5.0493347166448530e+01  5.0665752853630273e+01  4.9781988825107625e+01  5.1837292821798250e+01  5.2226091231870640e+01  5.1193971994911948e+01  5.0569309573071770e+01  5.1370318577691059e+01  5.3024624225386304e+01  5.2134437102354269e+01  5.3589721497881186e+01  5.3700453210111007e+01  5.1497239683507338e+01  5.4316336518633996e+01  5.5087302597492332e+01  5.5778497908387919e+01  5.4657247496373841e+01  5.2603375097187225e+01  5.2771865711864159e+01  5.4653885262206529e+01  5.5492482764629479e+01  5.6440669179038942e+01  5.6868736655157669e+01  5.7082653327299425e+01  5.7498285428997391e+01  5.3969700109796584e+01  5.3271185513301745e+01  5.5813074217413551e+01  5.6662257575640488e+01  5.8303613510886102e+01  5.8153108278457623e+01  5.8829425276558290e+01  6.0329471329216318e+01  6.1361139346855666e+01  6.0024774039590355e+01  5.5702591543655160e+01  5.4771174458947691e+01  5.3631584930083434e+01  5.7422018369270582e+01  5.9191492277707965e+01  5.9885591316222538e+01  6.0413953974954865e+01  6.2161135369648484e+01  6.5231935435569341e+01  6.3834514406583970e+01  5.6315694317327690e+01  5.5233776460112914e+01  5.3855013517833285e+01  5.7993827255780303e+01  5.6627524488701170e+01  5.8120354135512123e+01  5.9436507718687814e+01  6.1296973563568130e+01  6.1503663445227438e+01  6.2580180446626585e+01  6.4931006780247216e+01  6.6791377864247067e+01  6.8768629880078038e+01  6.6726935671571525e+01  6.6541404569491917e+01  5.5229720963037039e+01  5.3946123837975094e+01  5.6181892592922111e+01  5.5516143415356829e+01  5.7126677429285166e+01  5.9010137834167658e+01  6.0666583167515846e+01  6.3053870667623855e+01  6.4168109758864531e+01  6.6027392257611154e+01  6.7915957871477261e+01  6.9929035972603089e+01  7.1082644383247398e+01  6.9489935238335363e+01  7.1833637230984039e+01  5.3914778583895171e+01  5.4669108693594190e+01  5.4406183403744258e+01  5.5811081495290878e+01  5.7273353950289263e+01  5.8784183870683869e+01  6.0209874609823856e+01  6.2458700353765586e+01  6.5282442392179618e+01  6.4920681211563817e+01  6.6760745716648259e+01  6.8705359405402035e+01  7.0693111424400229e+01  7.1968589369361922e+01  7.3130375027270958e+01  7.2193595423820568e+01  7.3903259006285410e+01  5.3767963118801624e+01  5.3518528909409604e+01  5.4551525568756006e+01  5.5845452638758857e+01  5.7249655551802249e+01  5.7421849197025217e+01  5.3686310268655426e+01  5.3177154733859354e+01  5.8603469749316112e+01  5.8598413005412624e+01  6.0798220462269192e+01  6.1901082338616426e+01  6.3706309912307411e+01  6.5553581032410847e+01  6.7655380520934628e+01  6.8374289039780152e+01  7.0707723168355443e+01  7.2453735435715416e+01  7.3797878921419709e+01  7.5427286234506539e+01  7.5362046678921374e+01  7.4294660935656424e+01  5.4488252790974272e+01  5.5788060753093220e+01  5.7234729945547592e+01  5.6332516645561988e+01  5.7844098456669855e+01  5.9616906823831947e+01  6.2496139882468029e+01  6.4390785472943463e+01  6.6848360345928654e+01  6.9583348209337899e+01  6.9802477704221431e+01  7.2645552255275618e+01  7.3741538549005654e+01  7.5677929980531005e+01  7.5842442175246802e+01  7.6754983533852453e+01  7.6423523201301236e+01  5.3510426968908568e+01  5.2757506968275408e+01  6.3724147741880763e+01  5.3794381906310775e+01  5.2713417037183945e+01  5.2271049914833782e+01  5.4994934363914446e+01  5.5644434550964235e+01  6.1847865661062798e+01  6.5461705921215724e+01  6.9089095664021116e+01  7.2379558225871264e+01  7.2800055119108649e+01  7.5068863651374301e+01  7.6984208532459306e+01  7.7231037141527295e+01  7.7574965809227237e+01  7.7252995923591129e+01  6.7827788388729786e+01  5.1732774411676040e+01  6.5036006779389695e+01  6.7368974359849545e+01  7.1327413021282339e+01  7.6043727524953553e+01  7.5899308596217850e+01  7.8452215129987010e+01  7.8553251171998014e+01  7.8131088945371019e+01  7.8786770080973497e+01  7.8282344495529998e+01  7.7597449048851075e+01  7.6962551429246147e+01  7.3742222731289985e+01  7.8091105367200043e+01  7.8534139787663960e+01  7.9960152863842069e+01  7.9521410376251069e+01  7.9805965183995781e+01  7.9161925270784479e+01  7.8560176531196163e+01  7.8002204639370134e+01  7.7221006610673271e+01  7.6878075135033029e+01  7.6381138879917543e+01  7.8452207669080906e+01  7.9941976658711710e+01  8.0743399494623276e+01  8.1096487683293603e+01  8.0263105290229944e+01  8.0570365001153291e+01  8.0483134894154830e+01  7.9632966896889045e+01  7.8925112894271535e+01  7.7489585085085679e+01  7.6624451192523580e+01  7.7700912954108375e+01  7.9801092814045148e+01  7.5809620496042541e+01  7.3847856996683703e+01  7.6234206462585959e+01  8.1249174732172150e+01  8.1816777349825685e+01  8.1698331446162072e+01  8.1716517408131480e+01  8.1313496977957328e+01  8.0964884247400235e+01  8.0678079246251428e+01  8.0063575533567899e+01  7.9394184758059311e+01  7.8353205643177915e+01  7.7241717765838345e+01  7.6202926190427434e+01  7.5544805396567526e+01  7.5441172295215864e+01  7.4924965119664179e+01  7.2856234782110221e+01  6.9500455677554783e+01  8.2057446765139616e+01  8.2105412169961767e+01  8.1979451181576522e+01  8.1693854582571063e+01  8.1161917859005229e+01  8.0675576983811183e+01  8.0004622926758387e+01  7.9320801800452116e+01  7.8685206634317694e+01  7.7770786742383365e+01  7.6468702512169173e+01  7.5355677485805529e+01  7.4423356237059494e+01  7.3834661990191535e+01  7.3061777876557045e+01  7.0842141360387487e+01  6.7445003203052991e+01  8.1370044394752455e+01  8.1942211395546337e+01  8.1961449657071924e+01  8.2040335444233975e+01  8.2048121129648635e+01  8.2100237326962514e+01  8.1946170122062725e+01  8.1693273849817217e+01  8.1418736836246637e+01  8.0968205799426727e+01  8.0479039564688463e+01  8.0540029665598581e+01  7.9934271695289695e+01  7.9032065339984939e+01  7.8584949856807640e+01  7.7549249192615633e+01  7.6379309832632643e+01  7.5211904256484559e+01  7.3459713188875668e+01  7.2641894088284133e+01  7.2040353498896451e+01  7.0183785184149770e+01  6.7890714425731730e+01  6.5647056446875666e+01  8.1260788832337767e+01  8.1352928254399757e+01  8.1698045989381626e+01  8.1929344239896736e+01  8.1942759159382845e+01  8.1740837430162173e+01  8.1405951685405569e+01  8.1137581640560995e+01  8.0637165141729767e+01  8.0151760031859595e+01  7.9635072139287672e+01  7.8913791579513145e+01  7.8318004763090087e+01  7.7040711308970216e+01  7.6091007403627628e+01  7.5157750739385449e+01  7.4052042146080666e+01  7.2476040524393909e+01  7.1448795635452171e+01  7.2262368157489576e+01  7.0028541557241709e+01  6.8150647142141977e+01  6.5775973033810757e+01  6.3158015451655395e+01  6.3480841790756500e+01  8.1496600154926682e+01  7.9894254880751191e+01  8.0407816103350541e+01  8.0827074192947535e+01  8.1352205969628884e+01  8.1672977412777399e+01  8.1724524107890119e+01  8.1724748832041257e+01  8.1812430698651056e+01  8.1575040300717916e+01  8.1286975140624861e+01  8.0976491570979732e+01  8.0276124619775459e+01  7.9703935709662574e+01  7.8553990659780709e+01  7.7705456334409362e+01  7.6732616353872160e+01  7.5722483102268953e+01  7.5191697913491481e+01  7.4221881534206545e+01  7.2464578871429325e+01  7.0414894491990381e+01  6.9621828316280045e+01  7.0916780745705736e+01  8.0578165693567300e+01  7.0207341751769476e+01  6.8607149274539211e+01  6.7305558794343483e+01  6.5627633935552097e+01  6.3456234120885703e+01  6.0676081879545158e+01  6.0027426601558147e+01  6.0720584634096063e+01  7.8008227514086343e+01  7.9069784335853143e+01  7.9571110640399127e+01  8.0258021857212043e+01  8.0745792632872082e+01  8.1348075984358516e+01  8.1459532453520325e+01  8.1484287799243162e+01  8.1580051969516418e+01  8.1676348233124870e+01  8.1500442917565437e+01  8.1280166116880935e+01  8.0945637172390278e+01  8.0414850751151249e+01  7.9488214947217671e+01  7.8510146172077285e+01  7.7501083836585991e+01  7.6058977747363983e+01  7.4920754907727655e+01  7.4632060601815851e+01  7.3060889781867743e+01  7.1503273919805920e+01  7.1032098852913805e+01  7.9035641907691414e+01  5.7264903715076542e+01  5.6501671281634280e+01  7.7336378032815247e+01  7.5432787437267649e+01  7.4757252781643089e+01  7.7762525528450382e+01  7.8884099348266105e+01  7.9688889842173765e+01  8.0465390559261522e+01  8.1028116883095521e+01  8.1152603601337958e+01  8.1335465680562848e+01  8.1426926908684393e+01  8.1454534428370849e+01  8.1224829436021551e+01  8.0966506636941716e+01  8.0466162915941084e+01  7.9813857071437738e+01  7.8980290760230631e+01  7.8402381382284588e+01  7.7832494236303518e+01  7.6819348254575203e+01  7.5661272153723914e+01  7.4606591830140985e+01  7.3427197851360873e+01  7.3678021892496318e+01  7.2472605394321619e+01  7.1852564718419302e+01  5.3404778223935068e+01  7.6196174749364204e+01  7.4360399838288345e+01  7.2702339282933082e+01  7.8341262796617045e+01  7.6818645493844798e+01  7.9200058301378704e+01  7.9858217249943365e+01  8.0665289486028769e+01  8.0786767551880118e+01  8.1158820080443235e+01  8.1166910365399644e+01  8.1277468408507190e+01  8.1237280306138487e+01  8.0973004773749395e+01  8.0922853083251852e+01  8.0537068434592129e+01  7.9892202055763946e+01  7.9224409435539442e+01  7.8357865330868520e+01  7.7650081793145276e+01  7.7034997462116550e+01  7.6130917232275465e+01  7.5007038773536522e+01  7.4784157118227100e+01  7.3622317715972926e+01  7.2880612484553353e+01  7.2095211256868936e+01  7.2903593247976985e+01  7.5548287412090630e+01  7.4944203060120856e+01  7.6570384806945782e+01  7.7570921177873657e+01  7.8726295636169525e+01  7.9409750096619263e+01  8.0225990376733691e+01  8.0661356675813224e+01  8.0954138778909069e+01  8.1134797212086625e+01  8.1111727300036605e+01  8.1035839198382291e+01  8.0656409934139703e+01  8.0607305911924641e+01  8.0023143013800464e+01  7.9453548410365570e+01  7.8927187603613291e+01  7.8504288162478247e+01  7.7625613947509351e+01  7.6672087980900628e+01  7.5521494982189182e+01  7.4305499536709618e+01  7.3926626983500924e+01  7.3945411380532263e+01  7.2974837187966415e+01  7.2243882676855307e+01  7.0922237963021132e+01  7.0994330826581674e+01  7.2664255336598984e+01  8.0941418919381590e+01  7.3646087528679288e+01  7.3649501382457146e+01  7.2061487509926124e+01  6.9996016040809778e+01  6.8769080790595112e+01  6.8916869457595112e+01  7.5875045807787771e+01  7.7004278226751893e+01  7.7955135579361027e+01  7.8401956018640533e+01  7.8993032559375820e+01  7.9500037565758234e+01  8.0132621175138624e+01  8.0588875533220587e+01  8.0828307149112263e+01  8.1000661368707085e+01  8.1053904968643721e+01  8.0927195363192027e+01  8.0585650862839032e+01  8.0174924608901421e+01  8.0128998924163710e+01  7.9545077323831379e+01  7.8870693247743176e+01  7.8476094710222085e+01  7.7968011471551733e+01  7.7382410000703601e+01  7.6641217932857643e+01  7.5864763301756156e+01  7.4863854747117657e+01  7.3740311080654337e+01  7.3217263245352143e+01  7.3142234146177543e+01  7.2307202623665205e+01  7.4518290392711393e+01  8.0117532266426736e+01  8.0878555307564156e+01  7.2753801315585164e+01  7.3619061294342515e+01  7.5629338916698600e+01  7.6460619149647968e+01  7.7859273600655555e+01  7.7424669806207177e+01  6.9975068906475926e+01  7.0184712595258091e+01  6.7920754428448575e+01  6.7503091824970383e+01  6.7027900467898235e+01  6.6433963211466235e+01  6.6304734491219477e+01  7.8607793679497647e+01  7.9522456359229921e+01  7.9810204121223251e+01  8.0282513249217004e+01  8.0694026020409297e+01  8.0901017120844728e+01  8.0978168149489676e+01  8.0892906901486938e+01  8.0730868878157594e+01  8.0388971200509800e+01  7.9942417017731373e+01  7.9534034118800960e+01  7.8911888811973881e+01  7.8225265994053046e+01  7.7967953245981406e+01  7.6709194426704059e+01  7.5873034365240841e+01  7.5061051964810559e+01  7.4631825247258675e+01  7.3354824957564233e+01  7.2797703437419059e+01  7.2201772250109215e+01  7.2291760114552744e+01  7.9879171591645374e+01  7.1865806851383240e+01  7.2002138107357951e+01  7.0456251366692413e+01  6.8960558302897581e+01  6.8618331293250890e+01  6.6921471754853812e+01  6.5894651512664552e+01  6.5463702975864848e+01  6.3870207886334839e+01  6.2868762733979970e+01  7.4736002526757602e+01  7.5659430341980254e+01  7.6618679330874073e+01  7.7504896456485852e+01  7.8162895706513410e+01  7.8770541229004095e+01  7.9173675770472684e+01  7.9894675703615974e+01  8.0311972985211213e+01  8.0604478361234953e+01  8.0782519369736832e+01  8.0926281121902832e+01  8.0894789102891622e+01  8.0713606282804690e+01  8.0436123148189893e+01  7.9904231807532597e+01  7.9515824097944204e+01  7.9043051373353308e+01  7.8466408201896400e+01  7.7595719937928095e+01  7.7156358364638592e+01  7.6334592568648702e+01  7.4996760497257355e+01  7.4149849350437606e+01  7.3174149526478800e+01  7.2607474189869961e+01  7.2028827579637706e+01  7.3405005806761764e+01  7.3933379429073440e+01  7.0576919849198092e+01  6.8906631510080032e+01  6.7509766100235311e+01  6.5629890114072865e+01  6.4778915749107696e+01  6.3780262406902075e+01  6.2895486086660654e+01  6.0860365846370968e+01  7.2390349844923961e+01  7.0470210519796566e+01  7.4050535751763647e+01  7.5368670250117333e+01  7.6608525278789458e+01  7.7604503334820691e+01  7.8318600393233808e+01  7.8648636175472333e+01  7.9266277943919434e+01  7.9699384629468639e+01  8.0192964836535154e+01  8.0484115980432449e+01  8.0742331449938874e+01  8.0888339523411389e+01  8.0907657679864784e+01  8.0832809200967048e+01  8.0721213474961544e+01  8.0461195658381271e+01  7.9940191893429073e+01  7.9307955329121754e+01  7.9170277619220442e+01  7.8612619962447170e+01  7.7939807172146459e+01  7.7266870076044327e+01  7.6827248935732030e+01  7.5915182993893907e+01  7.5480121867207458e+01  7.4663953656555123e+01  7.4207490397086318e+01  7