<?xml version="1.0"?>
<VTKFile type="UnstructuredGrid"  version="0.1"  >
<UnstructuredGrid>
<Piece  NumberOfPoints="2193" NumberOfCells="3988">
<Points>
<DataArray  type="Float64"  NumberOfComponents="3"  format="ascii">3 0.3207336731613248 0  2.829563040797541 0.3182521631901648 0  3 0.5085110656648704 0  2.655821106513804 0.3116422130276078 0  2.835061318114777 0.5051839543443308 0  3 0.6897344810094523 0  2.477003082583512 0.3026707767780156 0  2.664647711840426 0.4969715677606382 0  2.842448462936374 0.6848969258727482 0  3 0.8601728169611075 0  2.292893218813282 0.2928932188132819 0  2.486940241264027 0.4869402412640268 0  2.674832775912863 0.6748327759128629 0  2.852474570368216 0.8524745703682164 0  3 1 0  2.302670776778016 0.4770030825835117 0  2.496971567760638 0.6646477118404255 0  2.684896925872748 0.8424484629363741 0  2.860172816961108 1 0  3 1.139827183038892 0  3.147525429631784 1.147525429631784 0  3.139827183038892 1 0  2.311642213027608 0.655821106513804 0  2.505183954344331 0.8350613181147769 0  2.689734481009452 1 0  2.852474570368216 1.147525429631784 0  3 1.310265518990548 0  3.157551537063626 1.315103074127252 0  3.325167224087137 1.325167224087137 0  3.315103074127252 1.157551537063626 0  3.310265518990548 1 0  2.318252163190165 0.8295630407975412 0  2.50851106566487 1 0  2.684896925872748 1.157551537063626 0  2.842448462936374 1.315103074127252 0  3 1.49148893433513 0  3.164938681885223 1.494816045655669 0  3.335352288159574 1.503028432239362 0  3.513059758735973 1.513059758735973 0  3.503028432239362 1.335352288159575 0  3.494816045655669 1.164938681885223 0  3.49148893433513 1 0  2.320733673161325 1 0  2.505183954344331 1.164938681885223 0  2.674832775912863 1.325167224087137 0  2.835061318114777 1.494816045655669 0  3 1.679266326838675 0  3.170436959202459 1.681747836809835 0  3.344178893486196 1.688357786972392 0  3.522996917416489 1.697329223221984 0  3.707106781186718 1.707106781186718 0  3.697329223221984 1.522996917416488 0  3.688357786972392 1.344178893486196 0  3.681747836809835 1.170436959202459 0  3.679266326838675 1 0  2.318252163190165 1.170436959202459 0  2.496971567760638 1.335352288159575 0  2.664647711840426 1.503028432239362 0  2.829563040797541 1.681747836809835 0  2.311642213027608 1.344178893486196 0  2.486940241264027 1.513059758735973 0  2.655821106513804 1.688357786972392 0  2.302670776778016 1.522996917416488 0  2.477003082583511 1.697329223221984 0  2.292893218813282 1.707106781186718 0  2 4.679266326838675 0  1.829563040797541 4.681747836809835 0  2 4.49148893433513 0  1.655821106513804 4.688357786972392 0  1.835061318114777 4.494816045655669 0  2 4.310265518990548 0  1.477003082583512 4.697329223221985 0  1.664647711840425 4.503028432239362 0  1.842448462936374 4.315103074127252 0  2 4.139827183038893 0  1.292893218813282 4.707106781186718 0  1.486940241264027 4.513059758735973 0  1.674832775912863 4.325167224087137 0  1.852474570368216 4.147525429631783 0  2 4 0  1.302670776778016 4.522996917416489 0  1.496971567760638 4.335352288159575 0  1.684896925872748 4.157551537063626 0  1.860172816961108 4 0  2 3.860172816961108 0  2.147525429631784 3.852474570368216 0  2.139827183038892 4 0  1.311642213027608 4.344178893486196 0  1.505183954344331 4.164938681885223 0  1.689734481009452 4 0  1.852474570368216 3.852474570368216 0  2 3.689734481009452 0  2.157551537063626 3.684896925872748 0  2.325167224087137 3.674832775912863 0  2.315103074127252 3.842448462936374 0  2.310265518990548 4 0  1.318252163190165 4.170436959202459 0  1.50851106566487 4 0  1.684896925872748 3.842448462936374 0  1.842448462936374 3.684896925872748 0  2 3.50851106566487 0  2.164938681885223 3.505183954344331 0  2.335352288159574 3.496971567760638 0  2.513059758735973 3.486940241264027 0  2.503028432239362 3.664647711840426 0  2.494816045655669 3.835061318114777 0  2.49148893433513 4 0  1.320733673161325 4 0  1.505183954344331 3.835061318114777 0  1.674832775912863 3.674832775912863 0  1.835061318114777 3.505183954344331 0  2 3.320733673161325 0  2.170436959202459 3.318252163190165 0  2.344178893486196 3.311642213027608 0  2.522996917416489 3.302670776778016 0  2.707106781186718 3.292893218813282 0  2.697329223221984 3.477003082583511 0  2.688357786972392 3.655821106513804 0  2.681747836809835 3.829563040797541 0  2.679266326838675 4 0  1.318252163190165 3.829563040797541 0  1.496971567760638 3.664647711840426 0  1.664647711840425 3.496971567760638 0  1.829563040797541 3.318252163190165 0  1.311642213027608 3.655821106513804 0  1.486940241264027 3.486940241264027 0  1.655821106513804 3.311642213027608 0  1.302670776778016 3.477003082583511 0  1.477003082583512 3.302670776778016 0  1.292893218813282 3.292893218813282 0  -6 5.679266326838675 0  -5.829563040797542 5.681747836809835 0  -6 5.49148893433513 0  -5.655821106513804 5.688357786972392 0  -5.835061318114777 5.494816045655669 0  -6 5.310265518990548 0  -5.477003082583511 5.697329223221985 0  -5.664647711840425 5.503028432239362 0  -5.842448462936374 5.315103074127252 0  -6 5.139827183038893 0  -5.292893218813282 5.707106781186718 0  -5.486940241264027 5.513059758735973 0  -5.674832775912863 5.325167224087137 0  -5.852474570368217 5.147525429631783 0  -6 5 0  -5.302670776778015 5.522996917416489 0  -5.496971567760638 5.335352288159575 0  -5.684896925872748 5.157551537063626 0  -5.860172816961107 5 0  -6 4.860172816961107 0  -6.147525429631783 4.852474570368217 0  -6.139827183038893 5 0  -5.311642213027608 5.344178893486196 0  -5.505183954344331 5.164938681885223 0  -5.689734481009452 5 0  -5.852474570368217 4.852474570368217 0  -6 4.689734481009452 0  -6.157551537063626 4.684896925872748 0  -6.325167224087137 4.674832775912863 0  -6.315103074127252 4.842448462936374 0  -6.310265518990548 5 0  -5.318252163190165 5.170436959202459 0  -5.50851106566487 5 0  -5.684896925872748 4.842448462936374 0  -5.842448462936374 4.684896925872748 0  -6 4.50851106566487 0  -6.164938681885223 4.505183954344331 0  -6.335352288159575 4.496971567760638 0  -6.513059758735973 4.486940241264027 0  -6.503028432239362 4.664647711840425 0  -6.494816045655669 4.835061318114777 0  -6.49148893433513 5 0  -5.320733673161325 5 0  -5.505183954344331 4.835061318114777 0  -5.674832775912863 4.674832775912863 0  -5.835061318114777 4.505183954344331 0  -6 4.320733673161325 0  -6.170436959202458 4.318252163190165 0  -6.344178893486196 4.311642213027608 0  -6.522996917416489 4.302670776778015 0  -6.707106781186718 4.292893218813282 0  -6.697329223221985 4.477003082583511 0  -6.688357786972392 4.655821106513804 0  -6.681747836809835 4.829563040797541 0  -6.679266326838675 5 0  -5.318252163190165 4.829563040797542 0  -5.496971567760638 4.664647711840425 0  -5.664647711840425 4.496971567760638 0  -5.829563040797542 4.318252163190165 0  -5.311642213027608 4.655821106513804 0  -5.486940241264027 4.486940241264027 0  -5.655821106513804 4.311642213027608 0  -5.302670776778015 4.477003082583511 0  -5.477003082583511 4.302670776778015 0  -5.292893218813282 4.292893218813282 0  -5 2.320733673161325 0  -4.829563040797542 2.318252163190165 0  -5 2.50851106566487 0  -4.655821106513804 2.311642213027608 0  -4.835061318114777 2.505183954344331 0  -5 2.689734481009452 0  -4.477003082583511 2.302670776778016 0  -4.664647711840425 2.496971567760638 0  -4.842448462936374 2.684896925872748 0  -5 2.860172816961108 0  -4.292893218813282 2.292893218813282 0  -4.486940241264027 2.486940241264027 0  -4.674832775912863 2.674832775912863 0  -4.852474570368217 2.852474570368216 0  -5 3 0  -4.302670776778015 2.477003082583511 0  -4.496971567760638 2.664647711840426 0  -4.684896925872748 2.842448462936374 0  -4.860172816961107 3 0  -5 3.139827183038892 0  -5.147525429631783 3.147525429631784 0  -5.139827183038893 3 0  -4.311642213027608 2.655821106513804 0  -4.505183954344331 2.835061318114777 0  -4.689734481009452 3 0  -4.852474570368217 3.147525429631784 0  -5 3.310265518990548 0  -5.157551537063626 3.315103074127252 0  -5.325167224087137 3.325167224087137 0  -5.315103074127252 3.157551537063626 0  -5.310265518990548 3 0  -4.318252163190165 2.829563040797541 0  -4.50851106566487 3 0  -4.684896925872748 3.157551537063626 0  -4.842448462936374 3.315103074127252 0  -5 3.49148893433513 0  -5.164938681885223 3.494816045655669 0  -5.335352288159575 3.503028432239362 0  -5.513059758735973 3.513059758735973 0  -5.503028432239362 3.335352288159574 0  -5.494816045655669 3.164938681885223 0  -5.49148893433513 3 0  -4.320733673161325 3 0  -4.505183954344331 3.164938681885223 0  -4.674832775912863 3.325167224087137 0  -4.835061318114777 3.494816045655669 0  -5 3.679266326838675 0  -5.170436959202458 3.681747836809835 0  -5.344178893486196 3.688357786972392 0  -5.522996917416489 3.697329223221984 0  -5.707106781186718 3.707106781186718 0  -5.697329223221985 3.522996917416489 0  -5.688357786972392 3.344178893486196 0  -5.681747836809835 3.170436959202459 0  -5.679266326838675 3 0  -4.318252163190165 3.170436959202459 0  -4.496971567760638 3.335352288159574 0  -4.664647711840425 3.503028432239362 0  -4.829563040797542 3.681747836809835 0  -4.311642213027608 3.344178893486196 0  -4.486940241264027 3.513059758735973 0  -4.655821106513804 3.688357786972392 0  -4.302670776778015 3.522996917416489 0  -4.477003082583511 3.697329223221984 0  -4.292893218813282 3.707106781186718 0  5 1 0  5 1.1875 0  4.834908290854834 1 0  4.777127948738723 1.195499924639372 0  4.839086815232164 1.346682114508668 0  5 1.375 0  4.669816581709669 1 0  4.632764363488562 1.365485527798476 0  4.794926146457388 1.50398688558759 0  5 1.5625 0  4.642258798879609 1.142328639834177 0  4.504724872564504 1 0  4.500247074421719 1.171475564681439 0  4.339633163419338 1 0  4.498775742703332 1.356177489340095 0  4.497705853685118 1.490484769177636 0  4.645521174961488 1.514732206813389 0  4.689691594422786 1.689472084520371 0  4.856231811549666 1.66136337359662 0  5 1.75 0  4.25035262013317 1.188684954713487 0  4.364655839949951 1.363349780835463 0  4.36358595
[...]
<PointData  Scalars="u"> 
<DataArray  type="Float64"  Name="u"  format="ascii">5.3449024627732875e+01  5.7459745619252203e+01  5.3660366961730539e+01  6.0811012000992633e+01  5.8690030296222453e+01  5.3769268537920468e+01  6.3519207616910691e+01  6.2836973821652776e+01  6.1140465860062754e+01  5.4983046562607335e+01  6.5662365344680140e+01  6.5536145103526792e+01  6.5658121453060431e+01  6.7212991705100478e+01  5.8413543821916456e+01  6.7466987636106182e+01  6.8019086797417216e+01  6.9779619214818609e+01  7.3329158523849443e+01  7.2903544512411941e+01  6.6328332712279746e+01  5.4571204097232354e+01  6.9571635610296383e+01  7.1151205081272877e+01  7.3719968814995966e+01  7.5591288967335856e+01  7.2758773485377858e+01  6.8337111115289233e+01  6.3704019009570402e+01  5.9748421341153630e+01  5.2874139509100132e+01  7.1849366949188820e+01  7.3834839452765479e+01  7.5893382709367046e+01  7.5399135127262696e+01  7.2283252599117546e+01  6.9093373485959447e+01  6.5442962217746114e+01  6.2440130954228451e+01  6.0368051864451353e+01  5.6789113690528787e+01  5.2275224927649610e+01  7.4019010997271849e+01  7.5673116781235763e+01  7.6171573047249851e+01  7.4620883507629628e+01  7.1832415189390190e+01  6.9133628106420929e+01  6.6323256432480960e+01  6.3690955872187324e+01  6.1376610145078232e+01  5.9916035736587155e+01  5.7837014914173032e+01  5.5063049918074505e+01  5.1583281352495334e+01  7.5624354333582815e+01  7.6492489760935896e+01  7.5953508661377100e+01  7.3970377638522706e+01  7.6622319917823702e+01  7.6623152581083744e+01  7.5507805852829947e+01  7.7112447735849656e+01  7.6550376923151504e+01  7.7263481840335288e+01  5.9271850070398663e+01  6.3158508359118599e+01  5.9541175998935891e+01  6.6375031468265334e+01  6.4433082407857228e+01  5.9719053828540311e+01  6.8939566807535059e+01  6.8420716125861347e+01  6.6931603345253379e+01  6.1010122531251653e+01  7.0933987475548932e+01  7.0952592735630191e+01  7.1270297354132353e+01  7.3069193885711911e+01  6.4516215779208792e+01  7.2702383428986693e+01  7.3427700082607942e+01  7.5422262666882787e+01  7.9247261649168394e+01  7.9093282384558705e+01  7.2723803987699839e+01  6.0839015827910011e+01  7.4768506396355718e+01  7.6561247334995045e+01  7.9395847810449567e+01  8.1568025401159176e+01  7.9074191445954938e+01  7.4896464601210624e+01  7.0494601051071825e+01  6.6344136616778243e+01  5.9316033095257723e+01  7.7005270533206058e+01  7.9236856862964700e+01  8.1597766053222642e+01  8.1444436510419138e+01  7.8760612338382217e+01  7.5868849957957778e+01  7.2477345489365845e+01  6.9688064069183639e+01  6.7345633991926249e+01  6.3554171543052526e+01  5.8863231400935497e+01  7.9132030374268425e+01  8.1067820523576486e+01  8.1906986982665885e+01  8.0770977098623817e+01  7.8516186401969335e+01  7.6164950579933134e+01  7.3657309812249736e+01  7.1264518622316118e+01  6.9106806379651616e+01  6.7311178303668186e+01  6.4953420785706058e+01  6.1948680979774551e+01  5.8276873095794862e+01  8.0675661267904133e+01  8.1864628792527540e+01  8.1725309879159653e+01  8.0247152265174620e+01  8.1602531397781476e+01  8.1979048015919432e+01  8.1334028689368267e+01  8.2007602109707520e+01  8.1879336967698094e+01  8.2069370887764393e+01  5.3644442389616401e+01  5.7839637994106106e+01  5.3733420913713310e+01  6.1382108439489379e+01  5.8955568314115908e+01  5.3697608437038824e+01  6.4285618279564972e+01  6.3313550537314612e+01  6.1276200209724223e+01  5.4747680996130946e+01  6.6623079598225402e+01  6.6227607064199319e+01  6.6020922083174625e+01  6.7191664348080067e+01  5.8017759854254940e+01  6.8380050343740280e+01  6.8629252939417256e+01  7.0016597901417654e+01  7.3150900302820901e+01  7.2321199329437093e+01  6.5505511407550657e+01  5.3975088922816191e+01  7.0428641189305637e+01  7.1659946839508706e+01  7.3819445986528208e+01  7.5245086261371881e+01  7.1904558816318811e+01  6.7216348519179661e+01  6.2324549232419031e+01  5.8680774444123536e+01  5.2055600278462990e+01  7.2641812197022574e+01  7.4239733895388852e+01  7.5841003271847910e+01  7.4832974647307211e+01  7.1072493546533963e+01  6.7585787083251063e+01  6.3671453820028262e+01  6.0448736429691969e+01  5.8765058296439058e+01  5.5502279666642259e+01  5.1250649231386475e+01  7.4735330248452897e+01  7.5953386813753468e+01  7.5929990379533535e+01  7.3743273387702885e+01  7.0164027808100727e+01  6.7148714869228201e+01  6.4073513475153689e+01  6.1233915984062598e+01  5.8772032106240104e+01  5.7749739730122045e+01  5.6046117411677884e+01  5.3590032024008188e+01  5.0379314861906991e+01  7.6265706372205699e+01  7.6633859970075662e+01  7.5463507435816112e+01  7.2688491606054669e+01  7.7171764722723893e+01  7.6569184737372538e+01  7.4679871865200155e+01  7.7547405399510481e+01  7.6250578684495991e+01  7.7530877539589255e+01  6.0463467128212159e+01  6.4371373699889745e+01  6.0734483555198054e+01  6.7596407897258302e+01  6.5641096178071237e+01  6.0915652892749193e+01  7.0158482817937823e+01  6.9628691616063065e+01  6.8133292359760773e+01  6.2210289244991536e+01  7.2141449310825109e+01  7.2149512898857907e+01  7.2463926828621453e+01  7.4266171758565250e+01  6.5719690489633294e+01  7.3876922471631573e+01  7.4598020284405948e+01  7.6598644622645793e+01  8.0437057666604574e+01  8.0298596758194975e+01  7.3935995256655758e+01  6.2038111362602315e+01  7.5905454039763441e+01  7.7702983506355324e+01  8.0551646298670960e+01  8.2747035499759960e+01  8.0277623562448099e+01  7.6122571483255015e+01  7.1709605868181015e+01  6.7532941551708362e+01  6.0481848136855106e+01  7.8098220551404992e+01  8.0340679693295897e+01  8.2723643479642320e+01  8.2597764123632061e+01  7.9952482908853142e+01  7.7113449550461254e+01  7.3728681844540404e+01  7.0879128221128354e+01  6.8490819739636834e+01  6.4667777125720022e+01  5.9952980398084634e+01  8.0172400523223217e+01  8.2123212926503342e+01  8.2986658839992188e+01  8.1883366506085707e+01  7.9680346737330453e+01  7.7417188955415952e+01  7.4950864469567975e+01  7.2518973751160416e+01  7.0200705651804611e+01  6.8352424529621899e+01  6.5958484770571161e+01  6.2928243314384879e+01  5.9236195906275242e+01  8.1645637291038682e+01  8.2848800494873217e+01  8.2730186557277435e+01  8.1285059061321661e+01  8.2481111157954544e+01  8.2864391085468327e+01  8.2229213478270609e+01  8.2763956580192314e+01  8.2622783061205311e+01  8.2664081909830813e+01  4.8490494224470112e+01  4.9523091858811917e+01  4.8830573565343421e+01  5.0221347924502417e+01  5.0917181939328536e+01  5.0489561140142989e+01  4.9186831257388775e+01  5.1827016367200478e+01  5.1937933945162492e+01  5.1380938012785720e+01  5.0280392526493493e+01  4.9571410928728660e+01  5.0949371940690064e+01  4.9964086272669562e+01  5.2351254534142633e+01  5.3286458089939742e+01  5.2683314149975040e+01  5.3379360458339740e+01  5.2427918235654083e+01  5.2134980147018631e+01  5.2061652347787913e+01  5.3057744665070899e+01  5.4072023220357863e+01  5.4861397092191858e+01  5.5036711152006362e+01  5.4221096586741496e+01  5.3493810827099274e+01  5.2780894052079688e+01  5.0334158387644429e+01  5.4074726862709149e+01  5.4260041162150124e+01  5.2518933165024855e+01  5.0775907456350367e+01  5.3998553385611196e+01  5.5336155930051284e+01  5.6645326048150508e+01  5.6400980686267573e+01  5.6800814534739906e+01  5.4949978699974025e+01  5.3566297725636360e+01  5.3278776911214543e+01  5.6010187886078626e+01  5.7667429447559556e+01  5.8302207783978879e+01  5.7913058256559516e+01  5.8017968721946339e+01  5.8176448051521071e+01  5.6295688360033793e+01  5.5240842713639474e+01  5.4302753152947353e+01  5.4006087150421550e+01  5.3633955349683511e+01  5.4026481111780122e+01  5.1142832798793862e+01  5.6909679949814048e+01  6.0084776126709741e+01  5.9050353818955294e+01  5.9942238977778985e+01  5.7762241726702186e+01  5.4928700875095899e+01  5.1661783743281461e+01  5.9489035444977702e+01  5.9315622532972277e+01  5.9395165923669687e+01  5.8845198860373046e+01  5.7308473478969525e+01  5.5876758693700509e+01  5.4659332177909825e+01  5.4264283398534680e+01  5.3857434002503098e+01  6.1378833236668299e+01  6.2017285057753440e+01  6.1326143966816687e+01  6.1067488495082465e+01  6.0198132550600960e+01  5.9623594287920888e+01  5.7860773974579899e+01  5.6112740152960832e+01  5.5308182230621505e+01  5.4978058693650944e+01  5.3951572491070820e+01  6.3688529013117517e+01  6.3699153684242745e+01  6.3853859890111522e+01  6.2738674888786740e+01  6.1773311945049635e+01  6.0864091256335179e+01  5.9446328084641188e+01  5.8175968922586613e+01  5.6884322883259799e+01  5.5748079250509477e+01  5.5326789572181859e+01  5.4542992090248106e+01  5.3916416941142600e+01  6.5453535872267892e+01  6.6249799643946233e+01  6.5713790857920642e+01  6.5356606894806035e+01  6.3878559539755948e+01  6.2308613597911240e+01  6.1083889246248610e+01  5.9736440875875616e+01  5.8319411131364113e+01  5.6821446062029437e+01  5.5910103448765589e+01  5.4941687843122658e+01  5.3770424505608055e+01  6.6366203596309376e+01  6.7455920007088011e+01  6.8606049157393841e+01  6.7477597366890294e+01  6.6815819834665319e+01  6.6562382011232842e+01  6.4635603290222363e+01  6.2891345231674116e+01  6.1845916563292640e+01  6.0548790129225772e+01  5.8721857386304421e+01  5.7735925171888724e+01  5.6705799177427082e+01  5.5301110814210134e+01  5.5882751579289021e+01  5.4419198028139071e+01  5.3520996068175819e+01  6.9182721926183802e+01  6.9439281055371097e+01  7.0988809216785370e+01  6.9878748541875467e+01  6.9618777414180641e+01  6.8693491960696363e+01  6.7760356736018309e+01  6.6837821205356533e+01  6.4731884978574712e+01  6.3254132531836873e+01  6.1760458741564413e+01  6.0228287300497676e+01  5.8653264864782855e+01  5.7477078207393305e+01  5.6088951459952170e+01  5.5774971251579323e+01  5.5034727984839904e+01  5.4177295754146733e+01  5.3178513938471397e+01  7.1789496635817741e+01  7.3154499700161196e+01  7.1514313314844699e+01  7.2072298688346820e+01  7.0498334371700409e+01  6.9308768235027117e+01  6.8983342946501111e+01  6.6985214827735902e+01  6.5507712151537120e+01  6.4305281251537110e+01  6.2764502084491717e+01  6.0930827455103511e+01  5.9799926481659305e+01  5.8837589079205820e+01  5.7288567751456810e+01  5.6207652414564151e+01  5.5360771433988511e+01  5.4523914087067268e+01  5.3629685141509455e+01  5.2766399542789621e+01  7.2680998433322927e+01  7.3955720023465133e+01  7.4292597501597157e+01  7.5468543931836763e+01  7.4333644889297958e+01  7.3082414989767230e+01  7.3612760895657559e+01  7.3485911137663280e+01  7.1022795214352612e+01  7.1726623526391123e+01  7.0809068621606940e+01  6.9232000457610312e+01  6.7679293962809297e+01  6.5739526522291015e+01  6.4986942318539903e+01  6.3130192810365116e+01  6.1362973270948252e+01  5.9881384336215994e+01  5.8530629712778186e+01  5.7426587820330468e+01  5.7405265767885282e+01  5.6373842484888996e+01  5.5362369882455745e+01  5.4634910987018394e+01  5.3763802530415752e+01  5.3002248599003714e+01  5.2280809883397346e+01  7.5340701205323811e+01  7.4987337546637193e+01  7.5338669175068844e+01  7.5223573040608329e+01  7.3182099552256034e+01  7.2216734676378394e+01  7.1421091224069727e+01  6.9689922592784427e+01  6.8353757185062562e+01  6.6560753659776935e+01  6.4070686349015901e+01  6.2523514953501220e+01  6.0232213895843003e+01  5.9148999856843695e+01  5.7801579299450680e+01  5.6748102522722014e+01  5.6196013225316946e+01  5.5542569112308811e+01  5.4589968736628315e+01  5.4363579648656604e+01  5.3788028891998927e+01  5.2545724216174065e+01  5.2141900537822245e+01  5.1733457559968592e+01  7.6514658409781902e+01  7.6737957052827298e+01  7.6259324092025636e+01  7.6682348800918433e+01  7.6653619560759807e+01  7.6365160298983895e+01  7.4958521800558941e+01  7.3153965484462660e+01  7.2186903288769670e+01  7.0090437264120908e+01  6.8252753782851499e+01  6.6026958200802937e+01  6.3566622722774511e+01  6.1500851192347710e+01  5.9588889456273591e+01  5.7505434155312876e+01  5.6018752483292623e+01  5.5606574357144261e+01  5.5156774309572548e+01  5.5712810315345749e+01  5.5244655610449918e+01  5.4283422454185448e+01  5.3839943127084759e+01  5.3411390949262113e+01  5.2975412870750937e+01  7.7282650682591935e+01  7.7331444147916471e+01  7.7529861274075301e+01  7.7502237022555619e+01  7.7845617109762372e+01  7.8079262076937653e+01  7.6319395293900854e+01  7.4646638807928014e+01  7.3223339634409655e+01  7.0976914581412288e+01  6.9101765360331797e+01  6.6386790810853611e+01  6.4723284135630337e+01  6.2661637657305270e+01  6.0763507714699294e+01  5.8292574402687755e+01  5.6449975213645622e+01  7.7472162824338412e+01  7.7791110040749047e+01  7.7601832773571473e+01  7.7085161055789129e+01  5.4714708400545426e+01  7.8102394821354125e+01  7.8199103691455818e+01  7.7927856226418527e+01  7.7409602374353000e+01  7.7041812490957213e+01  7.6588680860034231e+01  7.8081081122216844e+01  7.8156106813861683e+01  7.8831691133744840e+01  7.8710331758873451e+01  7.9328234360970526e+01  7.8951010921044713e+01  7.8682616262026400e+01  7.7424002883227487e+01  7.6208624130773316e+01  7.5999851589433987e+01  7.4197087132148440e+01  7.1298921260494893e+01  6.7309615800346393e+01  6.4301796490907535e+01  6.1126257487109505e+01  5.9637619337305743e+01  5.6832158352421445e+01  7.8800343488098619e+01  7.8554303183954076e+01  7.8951765991468150e+01  7.8155695611278347e+01  7.7696044392844811e+01  7.6562141785394601e+01  7.6396158614334425e+01  7.5606988776403341e+01  7.8795992653093336e+01  7.9390006431480273e+01  7.9697589283097699e+01  8.0134481261416809e+01  8.0106808952957209e+01  7.9966177512857215e+01  7.9639947812245822e+01  7.9263511365167773e+01  7.7517531569070044e+01  7.7555197708078950e+01  7.9519119081650175e+01  7.5721179444766065e+01  7.3705771902024765e+01  6.4898925855510853e+01  6.1714879956324658e+01  5.9563660297247935e+01  5.7236806573580644e+01  7.9269609809134124e+01  7.9700338570371173e+01  7.9425819190290298e+01  7.9072450432329887e+01  7.8514705814857265e+01  7.7998795973458371e+01  7.7382587073704826e+01  7.6708565767683723e+01  7.5866536475444491e+01  7.5483615358396591e+01  7.4877943146092264e+01  7.5386641347015313e+01  7.3984529391796002e+01  8.0228632090982927e+01  8.0254932236390118e+01  8.0789251659300803e+01  8.1045466846402050e+01  8.0710873693347267e+01  8.0987483814408449e+01  8.0558643919021165e+01  8.0460234278993411e+01  8.0242823745170824e+01  7.8519948288871930e+01  7.6208406214579199e+01  6.1810675170956046e+01  5.8041555457945051e+01  5.7630345825012860e+01  7.9865064006753130e+01  8.0134988533754665e+01  8.0686870762314840e+01  8.1090208768369862e+01  8.1452019835622622e+01  8.1320703640418373e+01  8.1683634312463823e+01  8.1439790934074367e+01  8.1319760242677063e+01  7.9617413286097346e+01  7.9523129857798097e+01  7.8999098121365449e+01  7.8205596667732451e+01  7.7468504383118045e+01  7.6601239676711288e+01  7.5561910035288321e+01  7.5033275882661044e+01  7.4566302271448819e+01  7.3015867049955133e+01  7.4154580310610129e+01  7.1923066373125963e+01  5.8351435801569075e+01  8.0154378279204735e+01  8.0501885719251305e+01  8.0918560576626675e+01  8.1300164926145584e+01  8.1605215242618897e+01  8.1759083089531103e+01  8.2029972983638544e+01  8.2064128332551036e+01  8.1875605891503568e+01  8.1854788333428218e+01  7.9985636250787422e+01  7.9386374861375316e+01  7.8632078909047380e+01  7.8076320208245889e+01  7.7263221748195605e+01  7.6386721113255035e+01  7.4979167030236098e+01  7.4278592362652802e+01  7.3720462097184111e+01  7.2882092705809086e+01  7.1222652240945905e+01  6.9610923785428824e+01  8.0466949587163271e+01  8.0493156707418080e+01  7.9806806888057068e+01  7.9019855802733844e+01  7.8473606333935393e+01  7.7923404873554801e+01  7.7223775823913144e+01  7.6662689181178507e+01  7.5892050000939832e+01  7.5049595080173518e+01  7.3942260555685920e+01  7.3903817600418733e+01  7.2479217888799042e+01  7.1511879477510206e+01  7.0308143782824288e+01  6.7500676700503533e+01  8.0888541987492985e+01  8.1299247019067607e+01  8.1617854061046089e+01  8.1882622705232663e+01  8.2032448124093250e+01  8.2120301792814075e+01  8.2139713649722893e+01  8.2072444917488511e+01  8.0929257858357616e+01  8.1318201478193899e+01  8.1721018349853651e+01  8.1875540934463970e+01  8.1982278772712462e+01  8.2068212815856285e+01  8.2090134747318203e+01  8.2021944681023655e+01  8.2041960204735631e+01  8.1993782279663975e+01  8.0614779634122016e+01  8.0211288061985243e+01  7.9600769603726178e+01  7.9085358847524631e+01  7.8539002153706548e+01  7.7893434983869696e+01  7.6759259731403688e+01  7.6172594542116244e+01  7.5453811535079538e+01  7.4249458077987782e+01  7.3374918468746969e+01  7.2182846324458453e+01  7.1104659786646650e+01  6.9728581160526616e+01  7.1157123948565527e+01  7.2831950936127370e+01  6.8314958678257355e+01  6.5676760028986493e+01  8.0910226086807683e+01  8.1442641518257830e+01  8.1508627525263535e+01  8.1785600966214375e+01  8.1864594739954001e+01  8.2005579930677598e+01  8.1958309937675054e+01  8.1896247884375555e+01  8.1962019453387825e+01  8.1732347228765420e+01  8.1769668372521494e+01  8.1693796484202039e+01  8.1746290060095134e+01  8.1587546292907504e+01  8.0351946393010195e+01  7.9818426828751839e+01  7.9042031452684569e+01  7.8361920757553960e+01  7.7445022902546512e+01  7.6386700572518095e+01  7.5735311755354928e+01  7.4901290598515374e+01  7.4313004760970770e+01  7.3149707039741358e+01  7.2001418575014867e+01  7.3011052395046150e+01  7.0691948145981883e+01  7.1402433483652246e+01  6.9646174143927013e+01  6.8129096562662042e+01  6.6648239672027188e+01  6.8236558828504442e+01  6.3357813002670277e+01  6.4991756421093044e+01  6.3502837507224669e+01  8.1123485218527847e+01  8.0738914075252609e+01  8.0588843952378070e+01  8.0069449496803770e+01  7.9460193813069921e+01  7.8980783078328571e+01  7.8288512621411925e+01  7.7661815793630197e+01  7.6506582412087852e+01  7.5405224827399621e+01  7.4541240963625953e+01  7.3323245940397456e+01  7.2073684724254065e+01  7.1115557197461513e+01  7.0470322873082026e+01  6.9164310392663225e+01  6.7535872836416729e+01  6.5847594339633503e+01  6.4824067933144875e+01  6.3674147988956818e+01  6.0865964273263252e+01  6.0000894276779398e+01  6.0738472310344235e+01  8.1625570246058402e+01  8.1452440519762646e+01  8.1269423853510276e+01  8.1677846010815387e+01  8.1890059758452466e+01  8.1858919934635878e+01  8.1817385748865178e+01  8.1676961703299895e+01  8.1769601912704275e+01  8.1459737748041306e+01  8.1065844112521376e+01  8.1366690448757524e+01  8.1125670920301062e+01  8.0932310509477674e+01  8.0833607413500090e+01  8.0671102196634024e+01  8.0945929804400720e+01  8.0500426557053231e+01  8.0059765834715876e+01  7.9697290833331806e+01  7.9370402286224845e+01  7.8883232843641210e+01  7.8399189482610211e+01  7.7850979954989427e+01  7.7239733130958911e+01  7.6665446927287505e+01  7.5702558552773198e+01  7.4496510822593322e+01  7.3759863642988407e+01  7.2710078353067999e+01  7.1630317640662767e+01  7.0573760564897555e+01  6.9804571088363318e+01  6.8807496634352063e+01  5.7375187653998523e+01  5.6630096627594774e+01  5.7314445925733125e+01  8.1217205936274965e+01  8.1509385424392718e+01  8.1596161777704609e+01  8.1808822822667963e+01  8.1759754773294304e+01  8.1592942562255317e+01  8.1253549100746625e+01  8.1434518951464455e+01  8.1065981953524201e+01  8.0553661051970906e+01  8.0102375793079105e+01  8.0647021443635424e+01  7.9881820068941948e+01  7.9951816126913158e+01  7.9098884380383922e+01  8.0946838667539822e+01  8.0720289179423261e+01  8.0281624369700182e+01  7.9792878640259588e+01  7.9368545311149134e+01  7.8608392238464376e+01  7.8014297503915145e+01  7.7400824490392992e+01  7.6783508163646530e+01  7.6453285244445482e+01  7.5844734085966493e+01  7.5301771217728145e+01  7.4773631696544911e+01  7.4003443643778326e+01  7.2913361719433183e+01  7.2131492958682273e+01  7.1170385484169557e+01  7.3528545540368924e+01  5.3368814872980657e+01  5.3470452849742685e+01  5.3528330900323631e+01  8.1278941172006469e+01  8.1027306475364767e+01  8.1690201189718010e+01  8.1638487020213418e+01  8.1545217190710957e+01  8.1341196522141814e+01  8.0905448103831461e+01  8