<?xml version="1.0"?>
<VTKFile type="UnstructuredGrid"  version="0.1"  >
<UnstructuredGrid>
<Piece  NumberOfPoints="17891" NumberOfCells="34480">
<Points>
<DataArray  type="Float64"  NumberOfComponents="3"  format="ascii">3 0.4505813909508334 0  2.858706694155233 0.4348267766209324 0  3 0.7083486900555757 0  2.697160447111943 0.3943208942238857 0  2.895262666184017 0.6857879985520519 0  3 0.9065018226950635 0  2.507383127572992 0.3431775034306555 0  2.753392185228413 0.6300882778426198 0  2.941422924974046 0.8828458499480929 0  3 0.990182154601809 0  2.292893218813706 0.292893218813706 0  2.565213330712254 0.565213330712254 0  2.822205042701531 0.8222050427015308 0  2.978182683361986 0.9781826833619861 0  3 1 0  2.343177503430655 0.5073831275729916 0  2.63008827784262 0.7533921852284131 0  2.882845849948093 0.9414229249740464 0  2.990182154601809 1 0  3 1.009817845398191 0  3.021817316638014 1.021817316638014 0  3.009817845398191 1 0  2.394320894223886 0.6971604471119428 0  2.685787998552052 0.8952626661840173 0  2.906501822695064 1 0  2.978182683361986 1.021817316638014 0  3 1.093498177304937 0  3.058577075025954 1.117154150051907 0  3.177794957298469 1.177794957298469 0  3.117154150051907 1.058577075025954 0  3.093498177304936 1 0  2.434826776620932 0.858706694155233 0  2.708348690055576 1 0  2.882845849948093 1.058577075025954 0  2.941422924974046 1.117154150051907 0  3 1.291651309944424 0  3.104737333815983 1.314212001447948 0  3.246607814771587 1.36991172215738 0  3.434786669287746 1.434786669287746 0  3.36991172215738 1.246607814771587 0  3.314212001447948 1.104737333815983 0  3.291651309944424 1 0  2.450581390950833 1 0  2.685787998552052 1.104737333815983 0  2.822205042701531 1.177794957298469 0  2.895262666184017 1.314212001447948 0  3 1.549418609049167 0  3.141293305844767 1.565173223379068 0  3.302839552888057 1.605679105776114 0  3.492616872427008 1.656822496569345 0  3.707106781186294 1.707106781186294 0  3.656822496569345 1.492616872427008 0  3.605679105776114 1.302839552888057 0  3.565173223379068 1.141293305844767 0  3.549418609049167 1 0  2.434826776620932 1.141293305844767 0  2.63008827784262 1.246607814771587 0  2.753392185228413 1.36991172215738 0  2.858706694155233 1.565173223379068 0  2.394320894223886 1.302839552888057 0  2.565213330712254 1.434786669287746 0  2.697160447111943 1.605679105776114 0  2.343177503430655 1.492616872427008 0  2.507383127572992 1.656822496569345 0  2.292893218813706 1.707106781186294 0  2 4.549418609049167 0  1.858706694155233 4.565173223379068 0  2 4.291651309944425 0  1.697160447111943 4.605679105776114 0  1.895262666184017 4.314212001447948 0  2 4.093498177304936 0  1.507383127572992 4.656822496569345 0  1.753392185228413 4.36991172215738 0  1.941422924974046 4.117154150051907 0  2 4.009817845398191 0  1.292893218813706 4.707106781186294 0  1.565213330712254 4.434786669287746 0  1.822205042701531 4.177794957298469 0  1.978182683361986 4.021817316638014 0  2 4 0  1.343177503430655 4.492616872427009 0  1.63008827784262 4.246607814771587 0  1.882845849948093 4.058577075025953 0  1.990182154601809 4 0  2 3.990182154601809 0  2.021817316638014 3.978182683361986 0  2.009817845398191 4 0  1.394320894223886 4.302839552888058 0  1.685787998552052 4.104737333815983 0  1.906501822695063 4 0  1.978182683361986 3.978182683361986 0  2 3.906501822695064 0  2.058577075025954 3.882845849948093 0  2.177794957298469 3.822205042701531 0  2.117154150051907 3.941422924974046 0  2.093498177304936 4 0  1.434826776620932 4.141293305844767 0  1.708348690055576 4 0  1.882845849948093 3.941422924974046 0  1.941422924974046 3.882845849948093 0  2 3.708348690055576 0  2.104737333815983 3.685787998552052 0  2.246607814771587 3.63008827784262 0  2.434786669287746 3.565213330712254 0  2.36991172215738 3.753392185228413 0  2.314212001447948 3.895262666184017 0  2.291651309944424 4 0  1.450581390950833 4 0  1.685787998552052 3.895262666184017 0  1.822205042701531 3.822205042701531 0  1.895262666184017 3.685787998552052 0  2 3.450581390950833 0  2.141293305844767 3.434826776620932 0  2.302839552888057 3.394320894223886 0  2.492616872427008 3.343177503430655 0  2.707106781186294 3.292893218813706 0  2.656822496569345 3.507383127572992 0  2.605679105776114 3.697160447111943 0  2.565173223379068 3.858706694155233 0  2.549418609049167 4 0  1.434826776620932 3.858706694155233 0  1.63008827784262 3.753392185228413 0  1.753392185228413 3.63008827784262 0  1.858706694155233 3.434826776620932 0  1.394320894223886 3.697160447111943 0  1.565213330712254 3.565213330712254 0  1.697160447111943 3.394320894223886 0  1.343177503430655 3.507383127572992 0  1.507383127572992 3.343177503430655 0  1.292893218813706 3.292893218813706 0  -6 5.549418609049167 0  -5.858706694155233 5.565173223379068 0  -6 5.291651309944425 0  -5.697160447111943 5.605679105776114 0  -5.895262666184017 5.314212001447948 0  -6 5.093498177304936 0  -5.507383127572992 5.656822496569345 0  -5.753392185228413 5.36991172215738 0  -5.941422924974047 5.117154150051907 0  -6 5.009817845398191 0  -5.292893218813706 5.707106781186294 0  -5.565213330712254 5.434786669287746 0  -5.822205042701531 5.177794957298469 0  -5.978182683361986 5.021817316638014 0  -6 5 0  -5.343177503430655 5.492616872427009 0  -5.63008827784262 5.246607814771587 0  -5.882845849948093 5.058577075025953 0  -5.990182154601809 5 0  -6 4.990182154601809 0  -6.021817316638014 4.978182683361986 0  -6.009817845398191 5 0  -5.394320894223886 5.302839552888058 0  -5.685787998552052 5.104737333815983 0  -5.906501822695064 5 0  -5.978182683361986 4.978182683361986 0  -6 4.906501822695064 0  -6.058577075025953 4.882845849948093 0  -6.177794957298469 4.822205042701531 0  -6.117154150051907 4.941422924974047 0  -6.093498177304936 5 0  -5.434826776620932 5.141293305844767 0  -5.708348690055575 5 0  -5.882845849948093 4.941422924974047 0  -5.941422924974047 4.882845849948093 0  -6 4.708348690055575 0  -6.104737333815983 4.685787998552052 0  -6.246607814771587 4.63008827784262 0  -6.434786669287746 4.565213330712254 0  -6.36991172215738 4.753392185228413 0  -6.314212001447948 4.895262666184017 0  -6.291651309944425 5 0  -5.450581390950833 5 0  -5.685787998552052 4.895262666184017 0  -5.822205042701531 4.822205042701531 0  -5.895262666184017 4.685787998552052 0  -6 4.450581390950833 0  -6.141293305844767 4.434826776620932 0  -6.302839552888058 4.394320894223886 0  -6.492616872427009 4.343177503430655 0  -6.707106781186294 4.292893218813706 0  -6.656822496569345 4.507383127572991 0  -6.605679105776114 4.697160447111942 0  -6.565173223379068 4.858706694155233 0  -6.549418609049167 5 0  -5.434826776620932 4.858706694155233 0  -5.63008827784262 4.753392185228413 0  -5.753392185228413 4.63008827784262 0  -5.858706694155233 4.434826776620932 0  -5.394320894223886 4.697160447111942 0  -5.565213330712254 4.565213330712254 0  -5.697160447111942 4.394320894223886 0  -5.343177503430655 4.507383127572991 0  -5.507383127572991 4.343177503430655 0  -5.292893218813706 4.292893218813706 0  -5 2.450581390950833 0  -4.858706694155233 2.434826776620932 0  -5 2.708348690055576 0  -4.697160447111943 2.394320894223886 0  -4.895262666184017 2.685787998552052 0  -5 2.906501822695064 0  -4.507383127572992 2.343177503430655 0  -4.753392185228413 2.63008827784262 0  -4.941422924974047 2.882845849948093 0  -5 2.990182154601809 0  -4.292893218813706 2.292893218813706 0  -4.565213330712254 2.565213330712254 0  -4.822205042701531 2.822205042701531 0  -4.978182683361986 2.978182683361986 0  -5 3 0  -4.343177503430655 2.507383127572992 0  -4.63008827784262 2.753392185228413 0  -4.882845849948093 2.941422924974046 0  -4.990182154601809 3 0  -5 3.009817845398191 0  -5.021817316638014 3.021817316638014 0  -5.009817845398191 3 0  -4.394320894223886 2.697160447111943 0  -4.685787998552052 2.895262666184017 0  -4.906501822695064 3 0  -4.978182683361986 3.021817316638014 0  -5 3.093498177304936 0  -5.058577075025953 3.117154150051907 0  -5.177794957298469 3.177794957298469 0  -5.117154150051907 3.058577075025954 0  -5.093498177304936 3 0  -4.434826776620932 2.858706694155233 0  -4.708348690055575 3 0  -4.882845849948093 3.058577075025954 0  -4.941422924974047 3.117154150051907 0  -5 3.291651309944424 0  -5.104737333815983 3.314212001447948 0  -5.246607814771587 3.36991172215738 0  -5.434786669287746 3.434786669287746 0  -5.36991172215738 3.246607814771587 0  -5.314212001447948 3.104737333815983 0  -5.291651309944425 3 0  -4.450581390950833 3 0  -4.685787998552052 3.104737333815983 0  -4.822205042701531 3.177794957298469 0  -4.895262666184017 3.314212001447948 0  -5 3.549418609049167 0  -5.141293305844767 3.565173223379068 0  -5.302839552888058 3.605679105776114 0  -5.492616872427009 3.656822496569345 0  -5.707106781186294 3.707106781186294 0  -5.656822496569345 3.492616872427008 0  -5.605679105776114 3.302839552888057 0  -5.565173223379068 3.141293305844767 0  -5.549418609049167 3 0  -4.434826776620932 3.141293305844767 0  -4.63008827784262 3.246607814771587 0  -4.753392185228413 3.36991172215738 0  -4.858706694155233 3.565173223379068 0  -4.394320894223886 3.302839552888057 0  -4.565213330712254 3.434786669287746 0  -4.697160447111942 3.605679105776114 0  -4.343177503430655 3.492616872427008 0  -4.507383127572991 3.656822496569345 0  -4.292893218813706 3.707106781186294 0  5 1 0  5 1.1875 0  4.825709888222015 1.037854944111007 0  4.786264867164171 1.260115678616865 0  4.651419776444029 1.075709888222014 0  5 1.375 0  4.644818160953175 1.436037744007759 0  4.465641823823532 1.303565771594816 0  4.302839552888058 1.151419776444029 0  5 1.5625 0  4.421294993849391 1.718733939153952 0  4.746742394938785 1.678619710993132 0  5 1.75 0  4.296598959349347 1.448746669899425 0  4.128549441110072 1.189274720555036 0  4.699672700402207 1.9375 0  5 2.125 0  4.410658553323315 2.018768213700664 0  4.267130272717368 1.863474356104607 0  4.220399009241286 1.64772992213087 0  4.023462850188271 1.566385491943431 0  4.078391068383893 1.37849469453
[...]
<PointData  Scalars="u"> 
<DataArray  type="Float64"  Name="u"  format="ascii">5.3501084707610389e+01  5.7328940557544357e+01  5.3566049342062222e+01  6.0708535163637954e+01  5.8386694138856264e+01  5.3704048334347640e+01  6.3469855120983901e+01  6.2365263539551691e+01  6.0263197703084472e+01  5.5889096955762724e+01  6.5647047875585841e+01  6.5285255624626799e+01  6.4769808371436582e+01  6.4466912768548596e+01  4.9973148489097028e+01  6.7425327529214115e+01  6.7575804141849034e+01  6.8416115564664651e+01  7.2758676348624306e+01  7.2726691436517370e+01  6.4695173923615357e+01  5.5859566251353939e+01  6.9450915769240495e+01  7.0317872107603151e+01  7.2538058561989260e+01  7.5506992869225684e+01  7.2253271501884569e+01  6.7885885928155190e+01  6.3747388013943684e+01  5.9740253665327238e+01  5.3427130720256173e+01  7.1610389726169174e+01  7.3002451533101976e+01  7.5025961108968758e+01  7.4829083592422663e+01  7.2101496131531945e+01  6.9032533596108777e+01  6.5697919219621127e+01  6.2673925814824798e+01  6.0541953252709696e+01  5.7149613498967767e+01  5.2722823444524799e+01  7.3647343187587310e+01  7.4942937890474056e+01  7.5614692724817445e+01  7.4288735480167105e+01  7.1903164293017738e+01  6.9385628646600892e+01  6.6613548173488041e+01  6.3877463649542570e+01  6.1359471330573733e+01  6.0072788072680147e+01  5.8078305053187179e+01  5.5318809517038929e+01  5.1965786663170306e+01  7.5242758981494376e+01  7.5936606767112806e+01  7.5545626642470140e+01  7.3885354650686736e+01  7.6306360404733866e+01  7.6310697772511361e+01  7.5329238711817069e+01  7.6924547040780141e+01  7.6394388147864959e+01  7.7252498043604504e+01  5.9364062899386347e+01  6.3075120759271847e+01  5.9525397011191117e+01  6.6313541782175676e+01  6.4233930282515715e+01  5.9756400825153456e+01  6.8913944050145176e+01  6.8053153113088044e+01  6.6235470444103356e+01  6.1987078343062400e+01  7.0921431054175116e+01  7.0773815774128266e+01  7.0578595327147099e+01  7.0530862860372835e+01  5.6076702598406861e+01  7.2695260715338208e+01  7.3141270076342835e+01  7.4341235558699452e+01  7.8851221558862321e+01  7.8834514359617501e+01  7.0839061963402301e+01  6.1975252051127548e+01  7.4736849794968037e+01  7.5970984760490012e+01  7.8518607652154699e+01  8.1595136569688520e+01  7.8415088790760109e+01  7.4140527101399726e+01  7.0203638957808423e+01  6.6025797171464433e+01  5.9643422801399602e+01  7.6920646108068581e+01  7.8707506814352769e+01  8.0985538967467093e+01  8.0939578836461521e+01  7.8400935031849343e+01  7.5514406772764715e+01  7.2439740694824678e+01  6.9724904392018800e+01  6.7286302194335065e+01  6.3690481113314583e+01  5.9147718838624399e+01  7.8961776794178391e+01  8.0637370452053403e+01  8.1555634928990656e+01  8.0428491218560254e+01  7.8437840172250972e+01  7.6203833604436895e+01  7.3752172354721125e+01  7.1344749707843931e+01  6.9090999027050088e+01  6.7395618955533237e+01  6.5090448746847215e+01  6.2104830472480529e+01  5.8591033275911755e+01  8.0512342597668535e+01  8.1564243138106946e+01  8.1451247060395332e+01  8.0135674089905876e+01  8.1472583993355045e+01  8.1838973908906382e+01  8.1225137788100710e+01  8.1932471219644711e+01  8.1809057085556091e+01  8.2055482632981509e+01  5.3612317068026719e+01  5.7610359564774456e+01  5.3475151560364978e+01  6.1195569182368807e+01  5.8449995055656196e+01  5.3416063737683899e+01  6.4188483751186723e+01  6.2653852548454530e+01  6.0084406557826092e+01  5.5504282125289500e+01  6.6604266162729019e+01  6.5850248042764846e+01  6.4819971292405171e+01  6.4129067970254951e+01  4.9576235920970014e+01  6.8281122801180857e+01  6.7952878041448358e+01  6.8262810735687964e+01  7.2377899500531171e+01  7.2316404445320117e+01  6.4238328994950905e+01  5.5447977390837899e+01  7.0182531822699787e+01  7.0510864788771201e+01  7.2284085332927745e+01  7.5116101715964064e+01  7.1736064087064250e+01  6.7244963626370662e+01  6.2835749804475093e+01  5.9094959406316491e+01  5.2894170395659728e+01  7.2213958476029489e+01  7.3068456507857022e+01  7.4741507877903629e+01  7.4373256914634169e+01  7.1282083679288988e+01  6.7997082115695278e+01  6.4339117978119646e+01  6.0939088922417902e+01  5.9255798281793886e+01  5.6170347342995129e+01  5.1926422207058430e+01  7.4146907648325183e+01  7.4944425570490225e+01  7.5284098928958898e+01  7.3621415755623076e+01  7.0566167630415151e+01  6.7754741615473989e+01  6.4637554432604858e+01  6.1554755253718184e+01  5.8755315494795802e+01  5.8002513748724724e+01  5.6436196256344950e+01  5.4000331122981699e+01  5.0882027434140248e+01  7.5677144972964953e+01  7.5889349600122529e+01  7.5073272475453436e+01  7.2811191611100796e+01  7.6699413316240310e+01  7.6169498627135098e+01  7.4561437874487893e+01  7.7272312479008576e+01  7.6063696098596907e+01  7.7520801573536019e+01  6.0556269616652102e+01  6.4282624043179354e+01  6.0722011147303398e+01  6.7528760852993216e+01  6.5435761150704479e+01  6.0957213059203589e+01  7.0129429119283714e+01  6.9254975211674719e+01  6.7435855185250688e+01  6.3189220630247974e+01  7.2129009579666018e+01  7.1967477804715699e+01  7.1774012466859830e+01  7.1732233461007226e+01  5.7279259611551979e+01  7.3869755218447182e+01  7.4319631579096324e+01  7.5537499286657479e+01  8.0049582694160961e+01  8.0041062334712890e+01  7.2042957239375284e+01  6.3178349540688039e+01  7.5881660715733915e+01  7.7140780081905405e+01  7.9716707061794864e+01  8.2797009084393210e+01  7.9616482498359687e+01  7.5347503879579477e+01  7.1414355054943186e+01  6.7229818440410398e+01  6.0845074570879262e+01  7.8037979291799445e+01  7.9867533317057777e+01  8.2194224007667231e+01  8.2117518780331210e+01  7.9603628271193074e+01  7.6735056154777411e+01  7.3670875515988513e+01  7.0928735888855599e+01  6.8470619368028693e+01  6.4867663073578839e+01  6.0316753517635021e+01  8.0046410360517825e+01  8.1773434112250143e+01  8.2721565607924816e+01  8.1600697054423264e+01  7.9622068601000237e+01  7.7442380269223506e+01  7.5023763011365276e+01  7.2594178115052145e+01  7.0179627984397868e+01  6.8465853681760876e+01  6.6156744076686223e+01  6.3168668325357096e+01  5.9643155132851739e+01  8.1544844236289379e+01  8.2645462193808029e+01  8.2553939512688331e+01  8.1238637484761810e+01  8.2417030045005220e+01  8.2814709056581876e+01  8.2201614329783453e+01  8.2735882198390740e+01  8.2608517206850053e+01  8.2648105145596148e+01  4.8493059002027842e+01  4.9525016275657400e+01  4.9093587967896418e+01  5.0586513838808841e+01  4.9776592387493245e+01  5.0491426575867941e+01  5.2208521940856315e+01  5.2105183400970517e+01  5.1483992465675364e+01  5.1371423311763486e+01  5.5078682059540071e+01  5.3025742940335157e+01  5.2134979350231085e+01  5.4090764866152355e+01  5.2595244405924227e+01  5.4334431736187902e+01  5.3271115003492639e+01  5.6458139589629127e+01  5.6898753989793960e+01  5.6040390495442892e+01  5.6998036570998451e+01  5.4861972586395893e+01  5.3965822048532786e+01  5.4671211919336024e+01  5.6634975405417578e+01  5.8299134679272960e+01  5.8948531163310335e+01  5.8828099713497416e+01  5.9102360222908757e+01  5.7440704088667715e+01  5.5722739758138722e+01  5.3631570911256432e+01  5.5831696332898673e+01  5.7250907269867632e+01  5.8446039035938540e+01  6.0021080800539139e+01  6.0875470847293990e+01  6.0974561885149541e+01  6.1361036858362709e+01  6.0071716012763346e+01  5.8074010492984193e+01  5.4788692293103757e+01  5.3855364086800947e+01  5.6337385551571401e+01  5.6636395737959589e+01  5.7917060851321565e+01  5.9411405603303088e+01  6.1280341983861732e+01  6.2172028592022485e+01  6.4203139832871486e+01  6.3282051107034945e+01  6.4620634710599489e+01  6.3876119577543008e+01  5.5228356846955990e+01  5.3915030362882852e+01  5.7464130847769113e+01  5.6200541087241497e+01  5.5228578942112364e+01  5.4663685430810773e+01  5.3767954545337915e+01  6.0776699665903017e+01  5.8981150356712909e+01  6.3020576534391900e+01  6.4692651772591248e+01  6.6663576882756516e+01  6.5969381691141450e+01  6.7670046681402809e+01  6.6623409740514631e+01  5.6504508687114736e+01  5.5521451958055401e+01  5.4394326745481763e+01  5.3520283371345897e+01  5.7247940234768585e+01  5.8506972830245473e+01  6.0225229379200442e+01  6.2379515866064537e+01  6.4898952438703276e+01  6.5207530333877642e+01  6.7041804411026789e+01  6.9974847798400148e+01  7.1640488266814984e+01  6.8699429917861153e+01  7.0198931215478297e+01  7.1854936365543168e+01  5.5791373395783154e+01  5.4518845390012324e+01  5.5786576967102924e+01  5.7272584270673796e+01  5.8731722394751941e+01  6.0988136404853798e+01  6.2575097573474373e+01  6.4265418120518760e+01  6.7178308986925018e+01  6.7518743504951431e+01  6.9945192981477661e+01  7.2151068424774110e+01  7.4930330352108257e+01  7.5336711776885352e+01  7.3584238720912410e+01  5.3612786673719420e+01  5.2758209996771512e+01  5.4429857657713612e+01  5.3478202554778782e+01  5.2271331784060344e+01  5.5062546980637201e+01  5.5001737442698769e+01  5.6337348171606052e+01  5.7844110009175083e+01  6.1065031658333943e+01  6.2020716537574543e+01  6.4713166860344245e+01  6.6545244322686386e+01  6.8859588851754950e+01  7.0138173719005124e+01  7.2185642952521746e+01  7.4117855758543769e+01  7.6260825341149641e+01  7.6585408373179163e+01  7.6395714799442416e+01  5.2716876559953924e+01  5.1732987705219735e+01  5.3801697852227967e+01  5.9611248665579275e+01  6.0647518441519637e+01  6.1848601727065308e+01  6.7394889798309109e+01  6.9090173050279972e+01  6.8878769631557049e+01  7.1267416224671763e+01  7.0911888439526294e+01  7.3386329302432699e+01  7.5819838896142727e+01  7.7806210322902530e+01  7.7670494714770257e+01  7.7254052981065684e+01  7.5121663173945251e+01  6.5082354645853528e+01  7.3000610884362260e+01  7.4021387965303489e+01  7.6535296825217344e+01  7.8151217575687895e+01  7.8970040067972889e+01  7.8800661155078870e+01  7.8301817265147747e+01  7.7553246636090037e+01  7.6924195256556303e+01  7.1344050718998332e+01  7.5898470989713644e+01  7.3757098582564325e+01  7.8775276301082116e+01  7.9724999341238288e+01  7.9874569206891366e+01  7.9881342457700825e+01  7.9505216309772678e+01  7.8871917618397489e+01  7.7929867457458627e+01  7.6726438068382279e+01  7.6307705938557774e+01  7.7619795952848236e+01  7.8450449399397598e+01  7.9096294377109047e+01  8.0110903282252337e+01  8.0902795001965842e+01  8.0482918850862021e+01  8.0549204097696276e+01  8.0476464087001972e+01  7.9929506716631408e+01  7.9163722534337523e+01  7.8564377907745040e+01  7.7063917624971339e+01  7.4783838855490174e+01  7.5522077093936161e+01  7.3787117122330727e+01  8.0125995043881829e+01  8.1227195106707640e+01  8.0958049405574272e+01  8.1515899966575873e+01  8.1474035434449007e+01  8.1152683348041180e+01  8.1318513908941554e+01  8.0612030980686441e+01  8.0178230940234386e+01  7.9236665864182697e+01  7.8088274849264224e+01  7.7174017424778029e+01  7.6000627011427838e+01  7.4881936474689027e+01  7.2974774010417420e+01  7.1444716759883192e+01  7.2738963047359519e+01  6.9458923663135081e+01  8.1810169475704129e+01  8.2057783532561842e+01  8.1898388798090195e+01  8.1793749526150719e+01  8.1659507720887916e+01  8.0990191787924815e+01  8.0523913058161170e+01  7.9855639066976124e+01  7.9495975619617340e+01  7.8369831511733551e+01  7.7042702087514357e+01  7.5365029961531519e+01  7.4680498760641200e+01  7.2934788611050678e+01  7.1757796461370603e+01  7.0178299482122569e+01  6.9084719703236189e+01  6.7423739034528865e+01  8.2104664612695231e+01  8.2111013233687629e+01  8.2033005621023193e+01  8.1933210903882795e+01  8.1904599602281095e+01  8.1955417070227369e+01  8.1773779835015304e+01  8.1492929625135829e+01  8.1282420426483810e+01  8.0777064254184182e+01  7.9898628186992127e+01  7.8932221768426729e+01  7.8612330904138190e+01  7.7338699743231942e+01  7.6535175042516343e+01  7.5452797617482332e+01  7.4240874151978204e+01  7.3602298242242597e+01  7.1841855423029472e+01  7.0130070854874077e+01  6.8273067977047546e+01  6.6283323514401943e+01  6.5643679226602217e+01  8.1761403245707328e+01  8.1226859983713723e+01  8.1480247965281350e+01  8.1988728360733163e+01  8.1953417080561053e+01  8.1811659128342143e+01  8.1491943121051506e+01  8.1084305477399298e+01  8.0496450898073078e+01  7.9986780761183013e+01  7.9194345697397367e+01  7.8376091069220621e+01  7.7910848097845204e+01  7.7529659847808162e+01  7.6367084808705854e+01  7.5113308132848019e+01  7.3974862902776792e+01  7.2578905777356709e+01  7.1906665293931610e+01  7.0373624006066194e+01  6.8758879831297151e+01  6.7469686546659503e+01  6.5797763945995925e+01  6.3619593600422185e+01  6.0814462254754545e+01  6.3465690559889126e+01  7.3237288407062451e+01  8.0790025446870644e+01  8.1303400198183567e+01  8.1760105148322396e+01  8.1828593806623473e+01  8.1732429147161199e+01  8.1579281150743782e+01  8.1185599278216429e+01  8.0696101721791621e+01  8.0068311649876946e+01  7.9385798525794584e+01  7.8727916963658330e+01  7.7721511590574366e+01  7.7466281635113091e+01  7.6688384204965516e+01  7.5715610072250286e+01  7.4019855318344256e+01  7.2794324627258305e+01  7.1709493734265934e+01  7.1245249174097978e+01  6.9760625386871908e+01  7.9405462036481410e+01  7.9983723901164538e+01  7.9020232081606395e+01  7.7180074973729901e+01  5.7348345227634532e+01  6.0167107882298900e+01  6.0706311563204984e+01  8.0662662577271590e+01  8.1445525181524417e+01  8.1589233134238739e+01  8.1626559639627288e+01  8.1543303851996711e+01  8.1305187664852369e+01  8.0848730197973296e+01  8.0769280909783660e+01  8.0282898343112208e+01  7.9665306327970939e+01  7.8636443542567449e+01  7.9463912849347906e+01  7.9867159865514026e+01  7.8471136489483598e+01  7.7977598078739675e+01  7.7702511334329657e+01  7.4737090407702368e+01  7.7964800876336298e+01  7.7047241102213661e+01  7.6624656838358149e+01  7.5731028812926681e+01  7.4705715927702798e+01  7.3730251137748724e+01  7.2786384527575251e+01  7.1138900736970072e+01  7.0538648917908077e+01  5.6432026781498919e+01  5.3404623788857087e+01  8.0814203174990652e+01  8.1326725726210682e+01  8.1336637211285037e+01  8.1434117749452909e+01  8.1277820075060205e+01  8.0875347036705847e+01  8.0407348575630323e+01  8.0362405582340955e+01  7.9783545346599183e+01  7.8870783700957602e+01  7.8124849274079480e+01  7.7807535936922235e+01  7.6919987209588101e+01  7.6215830647274544e+01  7.6251095163030115e+01  7.4887346121491802e+01  7.3694462946843672e+01  7.2916349482317813e+01  7.1922271901231582e+01  7.1592245982439280e+01  7.9927823190562549e+01  7.9029065997488146e+01  7.8054054213296709e+01  7.6954347678720339e+01  7.6180665856650322e+01  7.4744515987593857e+01  7.2693199706385485e+01  8.0890452493745016e+01  8.0996632757584123e+01  8.1176266725624060e+01  8.1324808199284831e+01  8.1192082450235816e+01  8.0967400672394604e+01  8.0583550970951308e+01  8.0102893839564004e+01  7.9902114964723793e+01  7.9141094388926930e+01  7.8470199717828322e+01  7.7786438279459020e+01  7.7413056679231914e+01  7.6310132063606162e+01  7.5956236677274191e+01  7.5417114814118776e+01  7.4196728091656112e+01  7.3242688318373681e+01  7.2144538282010231e+01  8.0371307665305764e+01  7.9858429565587713e+01  7.9020311260730750e+01  7.7747242713329882e+01  7.6770673971190121e+01  7.4968965936815451e+01  7.3636699531688777e+01  7.0920719501858031e+01  8.0586537731464475e+01  8.0800997074310303e+01  8.1038090056547773e+01  8.1200128350374385e+01  8.1144645798528785e+01  8.1061315721170516e+01  8.0974105076387076e+01  8.0625062233564719e+01  8.0115843396394837e+01  7.9326764672811308e+01  7.9614112259496409e+01  7.9400132874715780e+01  7.8450645430358648e+01  7.7761621619464279e+01  7.6760634295908716e+01  7.5631179655282509e+01  7.4988359897479256e+01  7.4680511445194355e+01  7.3343239941152973e+01  7.2271001146999694e+01  7.9325924668759242e+01  7.8067327148673442e+01  7.6414784742007171e+01  7.5155709761503019e+01  7.2864658399623778e+01  7.1830872059801251e+01  6.9671707873879072e+01  6.6433136045944224e+01  6.8917430176237403e+01  7.9912429763335027e+01  8.0096361144545924e+01  8.0266202610678661e+01  8.0536839641939181e+01  8.0851612923766339e+01  8.1053189399686872e+01  8.1031356363251163e+01  8.0885984392580525e+01  8.0623837046832861e+01  8.0274956539808244e+01  7.9807829690342857e+01  7.9407812214631107e+01  7.8613804523730963e+01  7.8587139410358219e+01  7.9053328851920099e+01  7.8402135646680037e+01  7.7279101846642249e+01  7.6460895970248444e+01  7.6109904058369850e+01  7.4962870076600097e+01  7.4442131042964363e+01  7.3852374138093552e+01  7.2310679796970433e+01  7.8636262618159478e+01  7.9014175985639952e+01  7.7765749615400821e+01  7.6960929558686232e+01  7.5427168477333808e+01  7.3741684929644478e+01  7.2085346044711898e+01  6.9941151623314752e+01  6.7633176634193276e+01  6.6909199322773134e+01  6.3866231502398932e+01  6.2804406420421742e+01  6.6301694275503905e+01  7.9517257757795406e+01  7.8694942291408168e+01  7.9804196623495429e+01  8.0218767907165301e+01  8.0404373334717775e+01  8.0762589944983375e+01  8.0911850016999935e+01  8.0957231011849331e+01  8.0799524875680092e+01  8.0377564165219340e+01  7.9900957534062130e+01  7.9452324940892069e+01  7.8937319485538481e+01  7.8187351172432074e+01  7.7487785692548471e+01  7.7106544991874699e+01  7.5899942901280355e+01  7.5445515262414972e+01  7.4237564252483011e+01  7.3770485862639944e+01  7.3330182783564794e+01  7.2269618301601170e+01  7.7940810215368415e+01  7.8259178601220640e+01  7.6997526841968238e+01  7.6139268665322533e+01  7.5580623679213573e+01  7.4087239061444862e+01  7.2586783773421573e+01  7.0472500930673178e+01  6.7812196993759869e+01  6.5637086018331445e+01  6.2549348237332808e+01  6.0812211253454414e+01  7.8503276715053701e+01  7.9271444665149090e+01  7.9802876428856123e+01  7.9957656946184258e+01  8.0357614228113462e+01  8.0635294215992957e+01  8.0881391993613903e+01  8.0924432019670917e+01  8.0900721191716670e+01  8.0775403649497250e+01  8.0558347311109657e+01  8.0206300997873797e+01  7.9782143480040716e+01  7.9192652574278526e+01  7.8623632027451663e+01  7.7979456390316997e+01  7.7232641139353021e+01  7.6317837728824088e+01  7.6586544554710059e+01  7.5782374742299424e+01  7.4965787280432835e+01  7.4964299928178704e+01  7.3954893844938823e+01  7.3116569197855128e+01  7.2151574647252502e+01  7.8063593800102424e+01  7.7510979579046833e+01  7.6541712858689095e+01  7.5552328752440403e+01  7.4923961659524153e+01  7.4359494231499482e+01  7.2683912008336861e+01  7.1046912585352061e+01  6.9205016966478055e+01  6.8602197036597019e+01  6.5849338747270593e+01  6.5647287473815709e+01  6.3648807793030365e+01  6.2016394530638230e+01  5.9477458873184148e+01  6.0088513479752166e+01  7.8992895392967938e+01  7.8324182241120340e+01  7.7865758624959014e+01  7.7362306840222672e+01  7.6031925359086173e+01  7.5254323091303078e+01  7.4370754559536081e+01  7.3854389240496118e+01  7.3277578716297427e+01  7.2175853861636810e+01  7.1057029939447190e+01  6.9471698597944467e+01  6.8259838903834520e+01  6.5960846934069380e+01  6.7302099495079659e+01  7.9461015620186913e+01  8.0060177837113372e+01  8.0318025638058458e+01  8.0558892800439352e+01  8.0776764442559184e+01  8.0924551110174690e+01  8.0867518040532005e+01  8.0636699122449315e+01  8.0349673302244113e+01  7.9888822803839901e+01  7.8956905383882486e+01  7.8289613664322403e+01  7.7347905918810383e+01  7.6450988428817524e+01  7.5408123362614333e+01  7.5242428890503291e+01  7.4418855278254213e+01  7.3684379353106621e+01  7.4429489452081498e+01  7.2737188311512256e+01  7.3205505829684185e+01  7.1957070837615149e+01  6.4318140415881530e+01  6.2496319288437761e+01  6.0528508890587219e+01  5.8941156200826804e+01  6.3897096999425706e+01  7.8871228277784837e+01  7.8226318314427019e+01  7.7438301056650957e+01  7.7197883351510669e+01  7.6681052808610360e+01  7.5792475749628906e+01  7.4978178114182612e+01  7.4243953841285645e+01  7.3471474154519825e+01  7.2516473068530061e+01  7.1545109162474816e+01  7.0022059467091424e+01  6.8673131540873698e+01  6.7410926513772154e+01  7.9244311789541769e+01  7.9743428488514127e+01  8.0043093947595779e+01  8.0599055063926528e+01  8.0804241989524613e+01  8.0947861794268519e+01  8