<?xml version="1.0"?>
<VTKFile type="UnstructuredGrid"  version="0.1"  >
<UnstructuredGrid>
<Piece  NumberOfPoints="7625" NumberOfCells="14472">
<Points>
<DataArray  type="Float64"  NumberOfComponents="3"  format="ascii">3 0.3378215821452335 0  2.833441594912761 0.3337663796510457 0  3 0.5329865384474093 0  2.661503918807094 0.3230078376141886 0  2.842489777594233 0.5274693327827005 0  3 0.7176341807104085 0  2.481388254524131 0.3085176726988411 0  2.675936639001904 0.5139049585028559 0  2.854783967522197 0.709567935044394 0  3 0.8839527516772595 0  2.292893218813257 0.2928932188132569 0  2.497472710738964 0.4974727107389642 0  2.692797973444407 0.6927979734444063 0  2.871431999438945 0.8714319994389447 0  3 1 0  2.308517672698841 0.4813882545241308 0  2.513904958502856 0.6759366390019039 0  2.709567935044394 0.854783967522197 0  2.883952751677259 1 0  3 1.116047248322741 0  3.128568000561055 1.128568000561055 0  3.116047248322741 1 0  2.323007837614188 0.6615039188070941 0  2.5274693327827 0.8424897775942335 0  2.717634180710409 1 0  2.871431999438945 1.128568000561055 0  3 1.282365819289591 0  3.145216032477803 1.290432064955606 0  3.307202026555593 1.307202026555594 0  3.290432064955606 1.145216032477803 0  3.282365819289591 1 0  2.333766379651045 0.8334415949127614 0  2.53298653844741 1 0  2.709567935044394 1.145216032477803 0  2.854783967522197 1.290432064955606 0  3 1.467013461552591 0  3.157510222405767 1.4725306672173 0  3.324063360998096 1.486095041497144 0  3.502527289261036 1.502527289261036 0  3.486095041497144 1.324063360998096 0  3.4725306672173 1.157510222405767 0  3.46701346155259 1 0  2.337821582145233 1 0  2.5274693327827 1.157510222405767 0  2.692797973444407 1.307202026555594 0  2.842489777594233 1.4725306672173 0  3 1.662178417854766 0  3.166558405087239 1.666233620348955 0  3.338496081192906 1.676992162385812 0  3.518611745475869 1.691482327301159 0  3.707106781186743 1.707106781186743 0  3.691482327301159 1.518611745475869 0  3.676992162385812 1.338496081192906 0  3.666233620348955 1.166558405087239 0  3.662178417854767 1 0  2.333766379651045 1.166558405087239 0  2.513904958502856 1.324063360998096 0  2.675936639001904 1.486095041497144 0  2.833441594912761 1.666233620348955 0  2.323007837614188 1.338496081192906 0  2.497472710738964 1.502527289261036 0  2.661503918807094 1.676992162385812 0  2.308517672698841 1.518611745475869 0  2.481388254524131 1.691482327301159 0  2.292893218813257 1.707106781186743 0  2 4.662178417854767 0  1.833441594912761 4.666233620348955 0  2 4.46701346155259 0  1.661503918807094 4.676992162385812 0  1.842489777594233 4.472530667217299 0  2 4.282365819289591 0  1.481388254524131 4.691482327301159 0  1.675936639001904 4.486095041497144 0  1.854783967522197 4.290432064955606 0  2 4.11604724832274 0  1.292893218813257 4.707106781186743 0  1.497472710738964 4.502527289261036 0  1.692797973444406 4.307202026555593 0  1.871431999438945 4.128568000561056 0  2 4 0  1.308517672698841 4.518611745475869 0  1.513904958502856 4.324063360998096 0  1.709567935044394 4.145216032477803 0  1.883952751677259 4 0  2 3.883952751677259 0  2.128568000561055 3.871431999438945 0  2.116047248322741 4 0  1.323007837614188 4.338496081192906 0  1.5274693327827 4.157510222405767 0  1.717634180710409 4 0  1.871431999438945 3.871431999438945 0  2 3.717634180710409 0  2.145216032477803 3.709567935044394 0  2.307202026555593 3.692797973444407 0  2.290432064955606 3.854783967522197 0  2.282365819289591 4 0  1.333766379651045 4.166558405087239 0  1.532986538447409 4 0  1.709567935044394 3.854783967522197 0  1.854783967522197 3.709567935044394 0  2 3.53298653844741 0  2.157510222405767 3.5274693327827 0  2.324063360998096 3.513904958502856 0  2.502527289261036 3.497472710738964 0  2.486095041497144 3.675936639001904 0  2.4725306672173 3.842489777594233 0  2.46701346155259 4 0  1.337821582145234 4 0  1.5274693327827 3.842489777594233 0  1.692797973444406 3.692797973444407 0  1.842489777594233 3.5274693327827 0  2 3.337821582145233 0  2.166558405087239 3.333766379651045 0  2.338496081192906 3.323007837614188 0  2.518611745475869 3.308517672698841 0  2.707106781186743 3.292893218813257 0  2.691482327301159 3.481388254524131 0  2.676992162385812 3.661503918807094 0  2.666233620348955 3.833441594912761 0  2.662178417854767 4 0  1.333766379651045 3.833441594912761 0  1.513904958502856 3.675936639001904 0  1.675936639001904 3.513904958502856 0  1.833441594912761 3.333766379651045 0  1.323007837614188 3.661503918807094 0  1.497472710738964 3.497472710738964 0  1.661503918807094 3.323007837614188 0  1.308517672698841 3.481388254524131 0  1.481388254524131 3.308517672698841 0  1.292893218813257 3.292893218813257 0  -6 5.662178417854767 0  -5.833441594912761 5.666233620348955 0  -6 5.46701346155259 0  -5.661503918807094 5.676992162385812 0  -5.842489777594234 5.472530667217299 0  -6 5.282365819289591 0  -5.481388254524131 5.691482327301159 0  -5.675936639001904 5.486095041497144 0  -5.854783967522197 5.290432064955606 0  -6 5.11604724832274 0  -5.292893218813257 5.707106781186743 0  -5.497472710738964 5.502527289261036 0  -5.692797973444407 5.307202026555593 0  -5.871431999438944 5.128568000561056 0  -6 5 0  -5.308517672698841 5.518611745475869 0  -5.513904958502856 5.324063360998096 0  -5.709567935044394 5.145216032477803 0  -5.88395275167726 5 0  -6 4.88395275167726 0  -6.128568000561056 4.871431999438944 0  -6.11604724832274 5 0  -5.323007837614188 5.338496081192906 0  -5.527469332782701 5.157510222405767 0  -5.717634180710409 5 0  -5.871431999438944 4.871431999438944 0  -6 4.717634180710409 0  -6.145216032477803 4.709567935044394 0  -6.307202026555593 4.692797973444407 0  -6.290432064955606 4.854783967522197 0  -6.282365819289591 5 0  -5.333766379651045 5.166558405087239 0  -5.53298653844741 5 0  -5.709567935044394 4.854783967522197 0  -5.854783967522197 4.709567935044394 0  -6 4.53298653844741 0  -6.157510222405766 4.527469332782701 0  -6.324063360998096 4.513904958502856 0  -6.502527289261036 4.497472710738964 0  -6.486095041497144 4.675936639001904 0  -6.472530667217299 4.842489777594234 0  -6.46701346155259 5 0  -5.337821582145233 5 0  -5.527469332782701 4.842489777594234 0  -5.692797973444407 4.692797973444407 0  -5.842489777594234 4.527469332782701 0  -6 4.337821582145233 0  -6.166558405087239 4.333766379651045 0  -6.338496081192906 4.323007837614188 0  -6.518611745475869 4.308517672698841 0  -6.707106781186743 4.292893218813257 0  -6.691482327301159 4.481388254524131 0  -6.676992162385812 4.661503918807094 0  -6.666233620348955 4.833441594912761 0  -6.662178417854767 5 0  -5.333766379651045 4.833441594912761 0  -5.513904958502856 4.675936639001904 0  -5.675936639001904 4.513904958502856 0  -5.833441594912761 4.333766379651045 0  -5.323007837614188 4.661503918807094 0  -5.497472710738964 4.497472710738964 0  -5.661503918807094 4.323007837614188 0  -5.308517672698841 4.481388254524131 0  -5.481388254524131 4.308517672698841 0  -5.292893218813257 4.292893218813257 0  -5 2.337821582145233 0  -4.833441594912761 2.333766379651045 0  -5 2.53298653844741 0  -4.661503918807094 2.323007837614189 0  -4.842489777594234 2.5274693327827 0  -5 2.717634180710409 0  -4.481388254524131 2.308517672698841 0  -4.675936639001904 2.513904958502856 0  -4.854783967522197 2.709567935044394 0  -5 2.883952751677259 0  -4.292893218813257 2.292893218813257 0  -4.497472710738964 2.497472710738964 0  -4.692797973444407 2.692797973444407 0  -4.871431999438944 2.871431999438945 0  -5 3 0  -4.308517672698841 2.481388254524131 0  -4.513904958502856 2.675936639001904 0  -4.709567935044394 2.854783967522197 0  -4.88395275167726 3 0  -5 3.116047248322741 0  -5.128568000561056 3.128568000561055 0  -5.11604724832274 3 0  -4.323007837614188 2.661503918807094 0  -4.527469332782701 2.842489777594233 0  -4.717634180710409 3 0  -4.871431999438944 3.128568000561055 0  -5 3.282365819289591 0  -5.145216032477803 3.290432064955606 0  -5.307202026555593 3.307202026555593 0  -5.290432064955606 3.145216032477803 0  -5.282365819289591 3 0  -4.333766379651045 2.833441594912761 0  -4.53298653844741 3 0  -4.709567935044394 3.145216032477803 0  -4.854783967522197 3.290432064955606 0  -5 3.46701346155259 0  -5.157510222405766 3.4725306672173 0  -5.324063360998096 3.486095041497144 0  -5.502527289261036 3.502527289261036 0  -5.486095041497144 3.324063360998096 0  -5.472530667217299 3.157510222405767 0  -5.46701346155259 3 0  -4.337821582145233 3 0  -4.527469332782701 3.157510222405767 0  -4.692797973444407 3.307202026555593 0  -4.842489777594234 3.4725306672173 0  -5 3.662178417854767 0  -5.166558405087239 3.666233620348955 0  -5.338496081192906 3.676992162385812 0  -5.518611745475869 3.691482327301159 0  -5.707106781186743 3.707106781186743 0  -5.691482327301159 3.518611745475869 0  -5.676992162385812 3.338496081192906 0  -5.666233620348955 3.166558405087239 0  -5.662178417854767 3 0  -4.333766379651045 3.166558405087239 0  -4.513904958502856 3.324063360998096 0  -4.675936639001904 3.486095041497144 0  -4.833441594912761 3.666233620348955 0  -4.323007837614188 3.338496081192906 0  -4.497472710738964 3.502527289261036 0  -4.661503918807094 3.676992162385812 0  -4.308517672698841 3.518611745475869 0  -4.481388254524131 3.691482327301159 0  -4.292893218813257 3.707106781186743 0  5 4 0  5 3.8125 0  4.853886151115923 4 0  5 3.625 0  4.80632430795117 3.775436298854279 0  4.707772302231846 4 0  4.79366141355045 3.578587735402333 0  4.673383251713283 3.680732660129706 0  4.561658453347769 3.792168701394072 0  4.56165845334777 4 0  5 3.4375 0  4.600014989010139 3.541027542505437 0  4.789717798409911 3.381371727615638 0  5 3.25 0  4.458472067662114 3.674611746363634 0  4.342487680021653 3.850039194045292 0  4.415544604463692 4 0  4.407847296295088 3.526611069368785 0  4.609194292726674 3.359404168011995 0  4.643840673849824 3.180879833384543 0  4.832283973092349 3.162038632311764 0  5 3.0625 0  4.302631777076505 3.688060601225307 0  4.165321303746107 3.816637485
[...]
<PointData  Scalars="u"> 
<DataArray  type="Float64"  Name="u"  format="ascii">5.3466460725729448e+01  5.7366189089736487e+01  5.3561794721076510e+01  6.0755820644114330e+01  5.8568914626800485e+01  5.3627926763960296e+01  6.3500548963186155e+01  6.2603429151317492e+01  6.0755441616473711e+01  5.4011417002032417e+01  6.5650542479982548e+01  6.5440783583250607e+01  6.5285652331048951e+01  6.5568877819790274e+01  5.8159495814352987e+01  6.7474977573030529e+01  6.7913437638968574e+01  6.9238699897930474e+01  7.3738315855216868e+01  7.3386365003300853e+01  6.4953670710785417e+01  5.3668725772254021e+01  6.9580939130598210e+01  7.0886125068868111e+01  7.3525077925066270e+01  7.6034897486153696e+01  7.2653321459654848e+01  6.7911321031778797e+01  6.3477528128341206e+01  5.9471630664211084e+01  5.2810689651315649e+01  7.1831560614661029e+01  7.3680747518537444e+01  7.5830832161192802e+01  7.5376666885039072e+01  7.2210806521448688e+01  6.8925919871557099e+01  6.5427777697571202e+01  6.2425432884298175e+01  6.0215794014943896e+01  5.6723143898115744e+01  5.2241669529368458e+01  7.3950128192076420e+01  7.5598375500385302e+01  7.6190750805195776e+01  7.4581437155591843e+01  7.1822562172991880e+01  6.9181470887910166e+01  6.6389050631771070e+01  6.3731674495616055e+01  6.1363299644891569e+01  5.9926635821114552e+01  5.7828500985771413e+01  5.5020201289004874e+01  5.1641466183075650e+01  7.5536030209212328e+01  7.6414344523645042e+01  7.5894570334800832e+01  7.3921319271517433e+01  7.6539414648831368e+01  7.6589484022886339e+01  7.5443358358408048e+01  7.7053270452017188e+01  7.6495708219115841e+01  7.7254417362441913e+01  5.9294167015798742e+01  6.3071637702876352e+01  5.9452675952337053e+01  6.6326228855109733e+01  6.4322680293713731e+01  5.9591077668215590e+01  6.8925549938927077e+01  6.8199626193377057e+01  6.6567474606119319e+01  6.0051968824011645e+01  7.0924483917266159e+01  7.0865124977896116e+01  7.0918417092788573e+01  7.1453615478598238e+01  6.4262869114692478e+01  7.2716781152071434e+01  7.3341616835614474e+01  7.4915680563479768e+01  7.9690371098804505e+01  7.9560491279248694e+01  7.1307259963774797e+01  5.9910580951432244e+01  7.4791317119694284e+01  7.6323831199123106e+01  7.9243196923884028e+01  8.2030045556856379e+01  7.8945953323617005e+01  7.4428663102662142e+01  7.0223224905558538e+01  6.6027283391900482e+01  5.9226620233888163e+01  7.7009256099067883e+01  7.9121629090808483e+01  8.1574006465122764e+01  8.1430509096978881e+01  7.8662906029640112e+01  7.5659093972227211e+01  7.2421488024677373e+01  6.9644941517430212e+01  6.7164950643628416e+01  6.3461432934913354e+01  5.8812011390593021e+01  7.9089358649879884e+01  8.1031464678861397e+01  8.1953436486008911e+01  8.0728715664072922e+01  7.8484506543025390e+01  7.6183978203974846e+01  7.3696066808427844e+01  7.1289651130930039e+01  6.9094593745393951e+01  6.7311610303584089e+01  6.4931315013307994e+01  6.1893733357649729e+01  5.8327048569496782e+01  8.0619002704228095e+01  8.1822765935953697e+01  8.1685755974685847e+01  8.0196499848223567e+01  8.1548167817894253e+01  8.1968041757863503e+01  8.1282170601335025e+01  8.1967815364345469e+01  8.1840113955299103e+01  8.2057907085536371e+01  5.3650924848353291e+01  5.7732346957282154e+01  5.3614649798886823e+01  6.1314152079524327e+01  5.8811981826330971e+01  5.3529016251105929e+01  6.4258286111356071e+01  6.3056983603482927e+01  6.0854156528349556e+01  5.3748402330391635e+01  6.6608321249922682e+01  6.6116879053991582e+01  6.5614084024105338e+01  6.5502765289051126e+01  5.7762804653571131e+01  6.8377696463437275e+01  6.8494124129342666e+01  6.9428205718432395e+01  7.3520236310547901e+01  7.2838143339949099e+01  6.4190183809305736e+01  5.3104486080153016e+01  7.0418728775396701e+01  7.1358497985631175e+01  7.3576370552343604e+01  7.5681518618001149e+01  7.1849289332468771e+01  6.6855901801999451e+01  6.2158520379456796e+01  5.8458140097285565e+01  5.2026183101860028e+01  7.2596879359252355e+01  7.4042421162498172e+01  7.5745634417297211e+01  7.4824489582883857e+01  7.1056860619078222e+01  6.7483526466339057e+01  6.3712415169354223e+01  6.0469029173604333e+01  5.8651597322492449e+01  5.5472915767370793e+01  5.1243130435322435e+01  7.4637722422399349e+01  7.5843403223895407e+01  7.5937680912761564e+01  7.3735882907211149e+01  7.0200696561095455e+01  6.7244936375405089e+01  6.4177464698310331e+01  6.1294712563409817e+01  5.8759079698129803e+01  5.7774057509699496e+01  5.6057173514692565e+01  5.3566489823859854e+01  5.0452000302725423e+01  7.6145922138339884e+01  7.6526884751059981e+01  7.5406429122950286e+01  7.2666273236438300e+01  7.7062165857962341e+01  7.6524571482195867e+01  7.4619464550851603e+01  7.7469175841063688e+01  7.6185286333086879e+01  7.7522667376063737e+01  6.0487924635528742e+01  6.4282203282409725e+01  6.0643497621924467e+01  6.7546740884018661e+01  6.5433627161086278e+01  6.0779179048034059e+01  7.0145181741451921e+01  6.9294916892557467e+01  6.7479338477115036e+01  6.1186397121974281e+01  7.2133535677351489e+01  7.1996913664362779e+01  7.1815140012923095e+01  7.1780130589643036e+01  6.4716800172048892e+01  7.3893241144331839e+01  7.4353466271800727e+01  7.5474095026729557e+01  7.8580659512304635e+01  7.8461923677036566e+01  7.1622790292170805e+01  6.1044807235607557e+01  7.5931760333137504e+01  7.7168211134090456e+01  7.9439156241267526e+01  8.1514738185607229e+01  7.9182649552547687e+01  7.5030663922330319e+01  7.1137280551622169e+01  6.6928326596574493e+01  6.0389601547271198e+01  7.8107161579934839e+01  7.9827128727945293e+01  8.1802730753135606e+01  8.1683877600034435e+01  7.9450507797324107e+01  7.6598176792955101e+01  7.3508785547892558e+01  7.0772563754718206e+01  6.8205023683108422e+01  6.4491501757627276e+01  5.9909284396067868e+01  8.0132997469982868e+01  8.1707354389177596e+01  8.2459416772910274e+01  8.1462244194113637e+01  7.9648113333536358e+01  7.7435187672859726e+01  7.4987282105650749e+01  7.2542485971477291e+01  7.0185640740965766e+01  6.8355793725981229e+01  6.5943762711561618e+01  6.2882997416074510e+01  5.9301520196767321e+01  8.1595919759243372e+01  8.2547620732853360e+01  8.2432597582830368e+01  8.1242565598286873e+01  8.2434000623727229e+01  8.2739603904829309e+01  8.2187309490080949e+01  8.2729067188684624e+01  8.2589937776112151e+01  8.2651681107622238e+01  5.1733141194384480e+01  5.2274128785997760e+01  5.2141535720202960e+01  5.2759695324860438e+01  5.3013085032278020e+01  5.2555340499008217e+01  5.3642734717370367e+01  5.3790081998059584e+01  5.3803153794347374e+01  5.2984106884449126e+01  5.3177464374810086e+01  5.4538283244345720e+01  5.4165007996848793e+01  5.3518891986857689e+01  5.4649482822188681e+01  5.4339596298192021e+01  5.3416959167992417e+01  5.5429796681859337e+01  5.5031139412394808e+01  5.5289860835567076e+01  5.4409201337000439e+01  5.3768325390006758e+01  5.5224073464606555e+01  5.5152499542227240e+01  5.3854322009719439e+01  5.6392701435014679e+01  5.6126382049757417e+01  5.6668964391380712e+01  5.5777738403516381e+01  5.4918790221708406e+01  5.5933858376835204e+01  5.3914603856338807e+01  5.6214783025465017e+01  5.6270505868445852e+01  5.5819776658779396e+01  5.4743260869353627e+01  5.4296369181404451e+01  5.7310459604262199e+01  5.7397276143030787e+01  5.7470306160505118e+01  5.6919717196709435e+01  5.5182970706828058e+01  5.7443948325585609e+01  5.7731314982169252e+01  5.6811371762333337e+01  5.5879770132809490e+01  5.5327751591235177e+01  5.4540003269983544e+01  5.3947494366600033e+01  5.8843069339965837e+01  5.8655223990045286e+01  5.8731167124030947e+01  5.8225672765909714e+01  5.7577684646306011e+01  5.6420046765288262e+01  5.5714132576978059e+01  5.4969170819234435e+01  5.3856642137383332e+01  5.8527592149269218e+01  5.7728583015223627e+01  5.5625547668911373e+01  5.9658066735218959e+01  6.0242293578220924e+01  6.0502906909238540e+01  5.9650599277096049e+01  5.9443081888388924e+01  5.8586701118019761e+01  5.7318995541019980e+01  5.6110330835296658e+01  5.5545229445404580e+01  5.4664572826094734e+01  5.3633806627720006e+01  5.9893775590359368e+01  6.0226382990495104e+01  5.9510059417698670e+01  5.7700248872947654e+01  5.6053097537170260e+01  6.0921836898631220e+01  6.2364447210082908e+01  6.1848546451191922e+01  6.1057608810931939e+01  6.0582821359352842e+01  6.0178877236193564e+01  5.9421710076216392e+01  5.8174658596239084e+01  5.6282163604173469e+01  5.5262415270319977e+01  5.4297061752830814e+01  5.3272492566796387e+01  6.1350798365121783e+01  6.2499782004078504e+01  6.1394958759081476e+01  6.1060877521092991e+01  5.9563997073241275e+01  5.6878310009540755e+01  5.6478896225260996e+01  6.3191828448254242e+01  6.4263666067665014e+01  6.3116225130739387e+01  6.3170387338678715e+01  6.2276534388927168e+01  6.1856974804357939e+01  6.0563378400977619e+01  5.9266148256357603e+01  5.8004573486288237e+01  5.6793544587029700e+01  5.4957701514344954e+01  5.3484784280357822e+01  5.2772934987335297e+01  6.3365095422265128e+01  6.4047973274208147e+01  6.2458621584381333e+01  5.9528775172155264e+01  5.7288685855683482e+01  6.5010735173894588e+01  6.6628591181237937e+01  6.5852948142523729e+01  6.4607098883200194e+01  6.4149388773941155e+01  6.1585777911368481e+01  5.7658025904401470e+01  6.4538565922877794e+01  6.4592937449502386e+01  6.3490528788132060e+01  6.3421787462716203e+01  6.1220924739441003e+01  5.9444476243430110e+01  5.7847312794495096e+01  5.6289009034172167e+01  5.5023420656672762e+01  5.3369058443567411e+01  5.4221865991078154e+01  6.6453030301833877e+01  6.6078766589387584e+01  5.2134878964609165e+01  5.2423037320714826e+01  6.8238922887768069e+01  6.6269107946425450e+01  6.7316273937159949e+01  6.4933563083922493e+01  6.1868246339566525e+01  5.8028655583517491e+01  6.8457045850813813e+01  6.7661458440412062e+01  6.8713734432203211e+01  6.6711211186463814e+01  6.6449080469144874e+01  6.5237393327639154e+01  6.5607391962960918e+01  6.4220497623740471e+01  6.2676757724205068e+01  6.0111118529808870e+01  5.8335809964532352e+01  5.6634167641741264e+01  5.4855989871411069e+01  5.4069054774747194e+01  5.2703132901752447e+01  5.1934287502350834e+01  5.1373035900933488e+01  7.0229840464882898e+01  7.1616236916404461e+01  6.9090612398592555e+01  5.8377492891319982e+01  6.9289298646269344e+01  7.0282219845001819e+01  6.8590066204105781e+01  6.8520796270810749e+01  6.7429678063038679e+01  6.7287107024535757e+01  6.5737535990109734e+01  6.3795535760960831e+01  6.2176797724706823e+01  6.1349112879563890e+01  5.9059746502089311e+01  5.7666217532796871e+01  5.5335994429836411e+01  5.3034364291056420e+01  5.1825638731991823e+01  5.0905889539017480e+01  5.0492575735318461e+01  5.3265044745310412e+01  7.2077170420676566e+01  7.4224983657287439e+01  7.1304713443581704e+01  7.1307046352114639e+01  7.1018367103236002e+01  7.1836352652981631e+01  7.0928523536612460e+01  7.0404693536243613e+01  6.9454696211484801e+01  6.9775693282254252e+01  7.0751436472462700e+01  6.8706017796435731e+01  6.6387328381677065e+01  6.3727403010385814e+01  5.9929828485876079e+01  5.7014368443017013e+01  5.4350214197041673e+01  5.2096992382852548e+01  5.0934684312977552e+01  5.0211609969928745e+01  4.9524668772531761e+01  5.6040574830832632e+01  7.3368309249759150e+01  7.4903661300508631e+01  7.6513493330882127e+01  7.7098363288726944e+01  7.5622514844617115e+01  7.3704981880960702e+01  7.3269549287128228e+01  7.3406224140059209e+01  7.2036766869361429e+01  7.1387499888943154e+01  7.2602229676490779e+01  7.1800875249813501e+01  6.9183167932750862e+01  5.7815494946838314e+01  5.4111425413336491e+01  5.2570988779669172e+01  5.0371794075689884e+01  4.9973380379432932e+01  4.9574363916261845e+01  4.9202523059594292e+01  4.8838520547174909e+01  4.8491052340408181e+01  7.5351828841039264e+01  7.6765001670847155e+01  7.8288030634526052e+01  7.9049566317674746e+01  7.9222333525934204e+01  7.7856662956812556e+01  7.6197237876303561e+01  7.7691863798801037e+01  7.5226879348449913e+01  7.4980300787467669e+01  7.3528710140149016e+01  7.4213136822367431e+01  7.3038490877640484e+01  7.4211029660858259e+01  7.3920979040605033e+01  5.4994599747412693e+01  5.1216388540608172e+01  5.0798561143960896e+01  7.6666038470436874e+01  7.6643761610841693e+01  7.6171550559100822e+01  7.5236998048576865e+01  7.5439012736761228e+01  7.7810693148877078e+01  7.8650126604625854e+01  7.9349763107459665e+01  8.0178800195683095e+01  8.0158064983422207e+01  8.0522386359262754e+01  8.0199604134237390e+01  7.8462139912694880e+01  7.4852081284816407e+01  5.1681847372431001e+01  7.7410175083557434e+01  7.8084627447397139e+01  7.7250014482324573e+01  7.6647441995732265e+01  7.6488143783300458e+01  7.8964624655161273e+01  7.9611552554186801e+01  7.9470087759516403e+01  8.0213111653977705e+01  8.0828761808198109e+01  8.0897263282078455e+01  8.1098786176948295e+01  8.1381551458898940e+01  8.1278971242985563e+01  7.8085677796169861e+01  7.8765079933994713e+01  7.9183757692063807e+01  7.9847505382607167e+01  8.0643457711840327e+01  8.1184411482702359e+01  8.1426299957623144e+01  8.1830562971175283e+01  8.1872549350496556e+01  8.1834371307966236e+01  7.8034433039349608e+01  7.7406607750249321e+01  7.7260775185394252e+01  7.9304801460352365e+01  7.9020418175972821e+01  7.8551608675557759e+01  7.8208556624779618e+01  7.7551747139370050e+01  7.7046797075566701e+01  7.9952325567414917e+01  8.0602385060955115e+01  8.1105222381314874e+01  8.1446176508376567e+01  8.1703262428155142e+01  8.2022800510439723e+01  8.2071333682920397e+01  8.2061686926049106e+01  8.0273715993678309e+01  7.7801034424562133e+01  7.9464217872428378e+01  7.8840492165300347e+01  7.8391681699159761e+01  7.7884653631310073e+01  7.7085862354225824e+01  7.7003942962586649e+01  7.6534873100380437e+01  8.0170406648027068e+01  7.9701431684162344e+01  8.0729675408055130e+01  8.1357658416353331e+01  8.1693147549845534e+01  8.1898572987766883e+01  8.2033233573969653e+01  8.2105726296622777e+01  8.2119990801040515e+01  8.2101328537604317e+01  8.1972359456809642e+01  8.1961115834286815e+01  7.9270444346302043e+01  7.9705698430717945e+01  8.0213572270915890e+01  8.0620780842622466e+01  8.1018568512163483e+01  8.1359262521931427e+01  8.1663432334771244e+01  8.1871392986693650e+01  8.1905084194184553e+01  8.2025073127339596e+01  8.2060526714256810e+01  8.2042059137191714e+01  8.1850754025549932e+01  8.1506439944319681e+01  8.1359807025923203e+01  8.1728219472018210e+01  8.1545388618360462e+01  7.8729170646361226e+01  7.8155012764985358e+01  7.7388818005034963e+01  7.6385754170589024e+01  7.6367398569707547e+01  7.5537372414940961e+01  8.0167217532291190e+01  7.9243143592465344e+01  7.9173445617218192e+01  7.8727046360754159e+01  7.7842330818170353e+01  7.6985922288200513e+01  7.5441013606264747e+01  7.5172168202330042e+01  7.3939296619755353e+01  7.9720676443232364e+01  8.0031177383760507e+01  8.0483876494456879e+01  8.0897342365074721e+01  8.1324348166402288e+01  8.1613948684847145e+01  8.1757001493008119e+01  8.1872287838611953e+01  8.1935673950587088e+01  8.1893196662984650e+01  8.1737117531014789e+01  8.1443895773006005e+01  8.0890488191834763e+01  8.0695385685531903e+01  8.1229557588937425e+01  8.0617741945856423e+01  7.8878186461285395e+01  7.9462381697693317e+01  7.9891125401437989e+01  8.0381875330156092e+01  8.0788997630098692e+01  8.1136587876563098e+01  8.1563387357746478e+01  8.1665484857325978e+01  8.1811735422262615e+01  8.1847820648191316e+01  8.1739731510194630e+01  8.1553665539832537e+01  8.1154614277824479e+01  8.0685501569622431e+01  8.0256575711130097e+01  7.9708073428656618e+01  7.9855277820719721e+01  8.0476948895069967e+01  7.9058368446621500e+01  7.8648631973613618e+01  7.8062813193705722e+01  7.7485930521581622e+01  7.6874769125434611e+01  7.6151103378761405e+01  7.5090600245347702e+01  7.3944795996905953e+01  7.4104621634421719e+01  7.3202881207899040e+01  7.1843876652349962e+01  7.8623843423611689e+01  7.9290828003778344e+01  7.9662870851081337e+01  8.0202779672219791e+01  8.0645935944900103e+01  8.1116877407239940e+01  8.1389856432970589e+01  8.1496127173553802e+01  8.1656839048587045e+01  8.1694805417983673e+01  8.1715334398679332e+01  8.1641978368119155e+01  8.1490365908586170e+01  8.1205045818159377e+01  8.0819425125487854e+01  8.0119467104344594e+01  7.9680242758485804e+01  7.9368603043589843e+01  7.8596878017275714e+01  7.9026011671225874e+01  7.7012427170830520e+01  7.8210958182528174e+01  7.7628350165421992e+01  7.7014489294092670e+01  7.6001195401181619e+01  7.4983031987616528e+01  7.3869080501151387e+01  7.1842315243510853e+01  7.2401716665691609e+01  7.1520110079754716e+01  6.9586628494000593e+01  7.6041040488811959e+01  7.7755645905730717e+01  7.8383001205997786e+01  7.9043635257075351e+01  7.8867630309537219e+01  7.9510938406832040e+01  8.0074610520904884e+01  8.0586182454101817e+01  8.0964429283583513e+01  8.1235902322622096e+01  8.1295035417431805e+01  8.1503449314823342e+01  8.1529499755990415e+01  8.1594806278631410e+01  8.1488991920947555e+01  8.1503640879414164e+01  8.1096430734338284e+01  8.0629956599384386e+01  8.0312938257163623e+01  7.9521803480865131e+01  7.8965145153038677e+01  7.8554378348131465e+01  7.7479210761291725e+01  7.7146977837890816e+01  7.7451818618805277e+01  7.6495922066191795e+01  7.4797711224937714e+01  7.7886981036996602e+01  7.7209631322536296e+01  7.6204814773822861e+01  7.5091343203985716e+01  7.4194919716963042e+01  7.2825963832111029e+01  7.1305052818984038e+01  6.9599440281516564e+01  7.0677803768725511e+01  7.0137158970999380e+01  6.7477959726733602e+01  7.8488035677370263e+01  7.6502659307320954e+01  7.7094491497453092e+01  7.6013261323558552e+01  7.4902111897538731e+01  7.3622829467002489e+01  7.2539633626019565e+01  7.1393520926648094e+01  7.0518409986172088e+01  6.9826792550012186e+01  6.8035174333747150e+01  6.6657196315621732e+01  6.5652826425589751e+01  6.8358825141901619e+01  7.7345361901102947e+01  7.8162550158618956e+01  7.8082177991770635e+01  7.8738400838198700e+01  7.9306932018522687e+01  7.9758795966022447e+01  8.0345308789501274e+01  8.0742490933078955e+01  8.1040241920040430e+01  8.1324953305302870e+01  8.1380138782375568e+01  8.1388041440160748e+01  8.1511730900310980e+01  8.1445367909321533e+01  8.1313324452384563e+01  8.1217867360310663e+01  8.0885707911711677e+01  8.0519453071143772e+01  7.9985075543569806e+01  7.8981491564248870e+01  7.8363403152940506e+01  7.7653371669511202e+01  7.6614907173544708e+01  7.6132340256545888e+01  7.4677492470462624e+01  7.5166988779849561e+01  7.2711761040333144e+01  8.0961914736614048e+01  7.6438921516980017e+01  7.7132643937833024e+01  7.7148845803442043e+01  7.7837163897983089e+01  7.8452955467141535e+01  7.9081061631371554e+01  7.9663771256025427e+01  8.0115166375058379e+01  8.0559790433576808e+01  8.0827210762738389e+01  8.1006895941161645e+01  8.1133651949377622e+01  8.1225445248130285e+01  8.1310036759794627e+01  8.1408814599641801e+01  8.1330014090082912e+01  8.1328443431578577e+01  8.1192401298999101e+01  8.1057035353314006e+01  8.0656436269618553e+01  8.0253198245421160e+01  7.9509450663194698e+01  7.9006332428648776e+01  7.8419295382230345e+01  7.7751087704366100e+01  7.6919748521241459e+01  7.6197437303270078e+01  7.5407081507778287e+01  7.3379743545946468e+01  7.2702451773863032e+01  7.0919264711495913e+01  7.5405349301142309e+01  7.5760364417494031e+01  7.4209678178216095e+01  7.2924576517781347e+01  7.1879112246299840e+01  7.0379489798043707e+01  6.9602735594606045e+01  6.9002830503451690e+01  6.7515400797152523e+01  6.5848699030653762e+01  6.4981404798478110e+01  6.3307848479746710e+01  6.3507615870178931e+01  7.7613611269769919e+01  7.5317003352998611e+01  7.4969730073076462e+01  7.4612775250789554e+01  7.3178959777382019e+01  7.2106883873694755e+01  7.0974322943657299e+01  6.9799236209536218e+01  6.8800129206814518e+01  7.5846172247302306e+01  7.6505111356987399e+01  7.6529227731866769e+01  7.7105180295189200e+01  7.7602476418924184e+01  7.8261619598295766e+01  7.8778458029415347e+01  7.9488912793221971e+01  7.9937203029566106e+01  8