<?xml version="1.0"?>
<VTKFile type="UnstructuredGrid"  version="0.1"  >
<UnstructuredGrid>
<Piece  NumberOfPoints="1075" NumberOfCells="1839">
<Points>
<DataArray  type="Float64"  NumberOfComponents="3"  format="ascii">3 0.504901692839906 0  2.870592087154655 0.4823683486186197 0  3 0.801932550640429 0  2.712819609700631 0.425639219401261 0  2.923581848878968 0.7707455466369024 0  3 0.969048513443635 0  2.517702506464375 0.3569366752858338 0  2.793348253300635 0.6900223799509527 0  2.976138185262463 0.9522763705249254 0  3 0.9990234747496692 0  2.292893218813733 0.2928932188137324 0  2.596341378041969 0.5963413780419684 0  2.889665833804265 0.8896658338042651 0  2.996096130844971 0.996096130844971 0  3 1 0  2.356936675285834 0.5177025064643754 0  2.690022379950953 0.7933482533006351 0  2.952276370524925 0.9761381852624627 0  2.999023474749669 1 0  3 1.000976525250331 0  3.003903869155029 1.003903869155029 0  3.000976525250331 1 0  2.425639219401261 0.7128196097006305 0  2.770745546636902 0.9235818488789674 0  2.969048513443635 1 0  2.996096130844971 1.003903869155029 0  3 1.030951486556365 0  3.023861814737537 1.047723629475075 0  3.110334166195735 1.110334166195735 0  3.047723629475075 1.023861814737537 0  3.030951486556365 1 0  2.482368348618619 0.8705920871546549 0  2.801932550640429 1 0  2.952276370524925 1.023861814737537 0  2.976138185262463 1.047723629475075 0  3 1.198067449359571 0  3.076418151121032 1.229254453363098 0  3.206651746699365 1.309977620049047 0  3.403658621958031 1.403658621958032 0  3.309977620049047 1.206651746699365 0  3.229254453363098 1.076418151121032 0  3.198067449359571 1 0  2.504901692839906 1 0  2.770745546636902 1.076418151121032 0  2.889665833804265 1.110334166195735 0  2.923581848878968 1.229254453363098 0  3 1.495098307160094 0  3.129407912845345 1.517631651381381 0  3.287180390299369 1.574360780598739 0  3.482297493535625 1.643063324714166 0  3.707106781186268 1.707106781186268 0  3.643063324714166 1.482297493535625 0  3.574360780598739 1.287180390299369 0  3.517631651381381 1.129407912845345 0  3.495098307160094 1 0  2.482368348618619 1.129407912845345 0  2.690022379950953 1.206651746699365 0  2.793348253300635 1.309977620049047 0  2.870592087154655 1.517631651381381 0  2.425639219401261 1.287180390299369 0  2.596341378041969 1.403658621958032 0  2.712819609700631 1.574360780598739 0  2.356936675285834 1.482297493535625 0  2.517702506464375 1.643063324714166 0  2.292893218813732 1.707106781186268 0  2 4.495098307160094 0  1.870592087154655 4.517631651381381 0  2 4.198067449359571 0  1.712819609700631 4.574360780598739 0  1.923581848878968 4.229254453363097 0  2 4.030951486556365 0  1.517702506464375 4.643063324714166 0  1.793348253300635 4.309977620049048 0  1.976138185262463 4.047723629475074 0  2 4.000976525250331 0  1.292893218813733 4.707106781186267 0  1.596341378041968 4.403658621958032 0  1.889665833804265 4.110334166195734 0  1.996096130844971 4.003903869155029 0  2 4 0  1.356936675285834 4.482297493535625 0  1.690022379950953 4.206651746699364 0  1.952276370524925 4.023861814737537 0  1.999023474749669 4 0  2 3.999023474749669 0  2.003903869155029 3.996096130844971 0  2.000976525250331 4 0  1.425639219401261 4.28718039029937 0  1.770745546636902 4.076418151121032 0  1.969048513443635 4 0  1.996096130844971 3.996096130844971 0  2 3.969048513443635 0  2.023861814737537 3.952276370524925 0  2.110334166195735 3.889665833804265 0  2.047723629475075 3.976138185262463 0  2.030951486556365 4 0  1.482368348618619 4.129407912845346 0  1.801932550640429 4 0  1.952276370524925 3.976138185262463 0  1.976138185262463 3.952276370524925 0  2 3.801932550640429 0  2.076418151121032 3.770745546636902 0  2.206651746699365 3.690022379950953 0  2.403658621958031 3.596341378041969 0  2.309977620049047 3.793348253300635 0  2.229254453363098 3.923581848878968 0  2.198067449359571 4 0  1.504901692839906 4 0  1.770745546636902 3.923581848878968 0  1.889665833804265 3.889665833804265 0  1.923581848878968 3.770745546636902 0  2 3.504901692839906 0  2.129407912845345 3.482368348618619 0  2.287180390299369 3.425639219401261 0  2.482297493535625 3.356936675285834 0  2.707106781186268 3.292893218813732 0  2.643063324714166 3.517702506464375 0  2.574360780598739 3.712819609700631 0  2.517631651381381 3.870592087154655 0  2.495098307160094 4 0  1.482368348618619 3.870592087154655 0  1.690022379950953 3.793348253300635 0  1.793348253300635 3.690022379950953 0  1.870592087154655 3.482368348618619 0  1.425639219401261 3.712819609700631 0  1.596341378041968 3.596341378041969 0  1.712819609700631 3.425639219401261 0  1.356936675285834 3.517702506464375 0  1.517702506464375 3.356936675285834 0  1.292893218813732 3.292893218813732 0  -6 5.495098307160094 0  -5.870592087154655 5.517631651381381 0  -6 5.198067449359571 0  -5.712819609700631 5.574360780598739 0  -5.923581848878968 5.229254453363097 0  -6 5.030951486556365 0  -5.517702506464375 5.643063324714166 0  -5.793348253300636 5.309977620049048 0  -5.976138185262463 5.047723629475074 0  -6 5.000976525250331 0  -5.292893218813733 5.707106781186267 0  -5.596341378041968 5.403658621958032 0  -5.889665833804266 5.110334166195734 0  -5.996096130844971 5.003903869155029 0  -6 5 0  -5.356936675285834 5.482297493535625 0  -5.690022379950952 5.206651746699364 0  -5.952276370524926 5.023861814737537 0  -5.999023474749669 5 0  -6 4.999023474749669 0  -6.003903869155029 4.996096130844971 0  -6.000976525250331 5 0  -5.425639219401261 5.28718039029937 0  -5.770745546636903 5.076418151121032 0  -5.969048513443635 5 0  -5.996096130844971 4.996096130844971 0  -6 4.969048513443635 0  -6.023861814737537 4.952276370524926 0  -6.110334166195734 4.889665833804266 0  -6.047723629475074 4.976138185262463 0  -6.030951486556365 5 0  -5.482368348618619 5.129407912845346 0  -5.801932550640429 5 0  -5.952276370524926 4.976138185262463 0  -5.976138185262463 4.952276370524926 0  -6 4.801932550640429 0  -6.076418151121032 4.770745546636903 0  -6.206651746699364 4.690022379950952 0  -6.403658621958032 4.596341378041968 0  -6.309977620049048 4.793348253300636 0  -6.229254453363097 4.923581848878968 0  -6.198067449359571 5 0  -5.504901692839906 5 0  -5.770745546636903 4.923581848878968 0  -5.889665833804266 4.889665833804266 0  -5.923581848878968 4.770745546636903 0  -6 4.504901692839906 0  -6.129407912845346 4.482368348618619 0  -6.28718039029937 4.425639219401261 0  -6.482297493535625 4.356936675285834 0  -6.707106781186267 4.292893218813733 0  -6.643063324714166 4.517702506464375 0  -6.574360780598739 4.71281960970063 0  -6.517631651381381 4.870592087154654 0  -6.495098307160094 5 0  -5.482368348618619 4.870592087154654 0  -5.690022379950952 4.793348253300636 0  -5.793348253300636 4.690022379950952 0  -5.870592087154654 4.482368348618619 0  -5.425639219401261 4.71281960970063 0  -5.596341378041968 4.596341378041968 0  -5.71281960970063 4.425639219401261 0  -5.356936675285834 4.517702506464375 0  -5.517702506464375 4.356936675285834 0  -5.292893218813733 4.292893218813733 0  -5 2.504901692839906 0  -4.870592087154655 2.482368348618619 0  -5 2.801932550640429 0  -4.712819609700631 2.425639219401261 0  -4.923581848878968 2.770745546636902 0  -5 2.969048513443635 0  -4.517702506464375 2.356936675285834 0  -4.793348253300636 2.690022379950953 0  -4.976138185262463 2.952276370524925 0  -5 2.999023474749669 0  -4.292893218813733 2.292893218813732 0  -4.596341378041968 2.596341378041969 0  -4.889665833804266 2.889665833804265 0  -4.996096130844971 2.996096130844971 0  -5 3 0  -4.356936675285834 2.517702506464375 0  -4.690022379950952 2.793348253300635 0  -4.952276370524926 2.976138185262463 0  -4.999023474749669 3 0  -5 3.000976525250331 0  -5.003903869155029 3.003903869155029 0  -5.000976525250331 3 0  -4.425639219401261 2.712819609700631 0  -4.770745546636903 2.923581848878968 0  -4.969048513443635 3 0  -4.996096130844971 3.003903869155029 0  -5 3.030951486556365 0  -5.023861814737537 3.047723629475075 0  -5.110334166195734 3.110334166195735 0  -5.047723629475074 3.023861814737537 0  -5.030951486556365 3 0  -4.482368348618619 2.870592087154655 0  -4.801932550640429 3 0  -4.952276370524926 3.023861814737537 0  -4.976138185262463 3.047723629475075 0  -5 3.198067449359571 0  -5.076418151121032 3.229254453363098 0  -5.206651746699364 3.309977620049047 0  -5.403658621958032 3.403658621958031 0  -5.309977620049048 3.206651746699365 0  -5.229254453363097 3.076418151121032 0  -5.198067449359571 3 0  -4.504901692839906 3 0  -4.770745546636903 3.076418151121032 0  -4.889665833804266 3.110334166195735 0  -4.923581848878968 3.229254453363098 0  -5 3.495098307160094 0  -5.129407912845346 3.517631651381381 0  -5.28718039029937 3.574360780598739 0  -5.482297493535625 3.643063324714166 0  -5.707106781186267 3.707106781186268 0  -5.643063324714166 3.482297493535625 0  -5.574360780598739 3.287180390299369 0  -5.517631651381381 3.129407912845345 0  -5.495098307160094 3 0  -4.482368348618619 3.129407912845345 0  -4.690022379950952 3.206651746699365 0  -4.793348253300636 3.309977620049047 0  -4.870592087154654 3.517631651381381 0  -4.425639219401261 3.287180390299369 0  -4.596341378041968 3.403658621958031 0  -4.71281960970063 3.574360780598739 0  -4.356936675285834 3.482297493535625 0  -4.517702506464375 3.643063324714166 0  -4.292893218813733 3.707106781186268 0  5 1 0  4.83038291558927 1.060287186691953 0  5 1.1875 0  4.660765831178542 1.120574373383906 0  4.752051342018341 1.352229284786525 0  5 1.375 0  4.491148746767813 1.180861560075859 0  4.4322882905522 1.432262198034769 0  4.613242116355901 1.55893932648076 0  5 1.5625 0  4.321531662357083 1.241148746767812 0  4.219575161945451 1.491797959243029 0  4.23268619585246 1.762072368835434 0  4.493304945754296 1.792284526517738 0  4.746989430303032 1.775180020690435 0  5 1.75 0  3.982297493535625 1.361723120151718 0  3.966678612559707 1.765358815105942 0  4.001984264978835 2.029033512423678 0  4.337442301453079 2.02507858124129 0  4.620523510659621 2.0217
[...]
<PointData  Scalars="u"> 
<DataArray  type="Float64"  Name="u"  format="ascii">5.3531172598588661e+01  5.7285829881030828e+01  5.3484763692599373e+01  6.0795583949596029e+01  5.3847976763959323e+01  5.2606649074587125e+01  6.3739389378795806e+01  6.3499151762717979e+01  5.4437208698777148e+01  7.0363478095858525e+01  6.5729593233879200e+01  6.5187712366467252e+01  6.7162108339022438e+01  8.4597502167183094e+01  2.2300622776948664e+01  6.7457052409597480e+01  6.5934108192625260e+01  6.5407650073241030e+01  5.2187387124420063e+01  5.2184257145617174e+01  8.4575000455216554e+01  7.0360983035039396e+01  6.9623319203628014e+01  6.8840296331354239e+01  6.9211083560426218e+01  6.5986154840773224e+01  6.9119774075662050e+01  6.5195660549992681e+01  6.6500436059993319e+01  5.4221731479918738e+01  5.2513627085840454e+01  7.1472985588536403e+01  7.0693570863321938e+01  7.1840705042265299e+01  7.1769279825240076e+01  7.0090663597896963e+01  6.7907826518704823e+01  6.4365609841975953e+01  6.2758049909799659e+01  6.1967808335950366e+01  5.2948995271440339e+01  5.2901713848377561e+01  7.3635428864515205e+01  7.3269968792800270e+01  7.2983729441035976e+01  7.2798540593342040e+01  7.2072663287600889e+01  6.9446963715875597e+01  6.6944636916388347e+01  6.3992036725768394e+01  6.1446136134325656e+01  6.0410978573359934e+01  5.8293893489399458e+01  5.5434043859514205e+01  5.2133925652378430e+01  7.5148948873942999e+01  7.4979340472780578e+01  7.4653142998892505e+01  7.3912344231774000e+01  7.6267545608477334e+01  7.6002458376234102e+01  7.5343458485833352e+01  7.6919029171526432e+01  7.6400042732368178e+01  7.7266448475079912e+01  5.9412352162983318e+01  6.3051496726159456e+01  5.9478499220047617e+01  6.6411987227569767e+01  5.9758385023232186e+01  5.8687104778265208e+01  6.9182629428103752e+01  6.9241676087708854e+01  6.0477599121536670e+01  7.6465513367566416e+01  7.0993194687505351e+01  7.0715767296107742e+01  7.3077825151501955e+01  9.0691805096244593e+01  2.8402837508511745e+01  7.2729164635724956e+01  7.1577986501166450e+01  7.1432541194924625e+01  5.8286489441539580e+01  5.8285981153044837e+01  9.0682438941620958e+01  7.6464149992556074e+01  7.4939350508369898e+01  7.4616113381271461e+01  7.5270225059480708e+01  7.2084223440149088e+01  7.5234707467393861e+01  7.1349549770917420e+01  7.2821284501442889e+01  6.0398143101073536e+01  5.8652911755255154e+01  7.6846536802222616e+01  7.6528535522915234e+01  7.7894859330681342e+01  7.7867673948505796e+01  7.6313057401785500e+01  7.4279182717272235e+01  7.0989584246018111e+01  6.9737754000461550e+01  6.8608285259733151e+01  5.9379656770983090e+01  5.9237024390358833e+01  7.9038299470070058e+01  7.9092166109060130e+01  7.8996419126935933e+01  7.8932407078724310e+01  7.8555604100485240e+01  7.6181136357720916e+01  7.4001997439481343e+01  7.1412090748530076e+01  6.9173789677079100e+01  6.7711613445523312e+01  6.5268348177886551e+01  6.2178075123259276e+01  5.8729997730217974e+01  8.0505544025155331e+01  8.0708313399211676e+01  8.0611120663978042e+01  8.0151226945663353e+01  8.1502913059864071e+01  8.1598043666058260e+01  8.1263233552651769e+01  8.1964048957488600e+01  8.1842226320012287e+01  8.2077147026634066e+01  5.3607079152859143e+01  5.7527288093675658e+01  5.3315852765350314e+01  6.1256881328306569e+01  5.3797261283348135e+01  5.2254342593975899e+01  6.4453672176431851e+01  6.3693264164908115e+01  5.4142331474490682e+01  6.9968996418054971e+01  6.6699677752249201e+01  6.5690193700513035e+01  6.7049236235938181e+01  8.4213902327941284e+01  2.1905325980924268e+01  6.8305751129201852e+01  6.6196464355755907e+01  6.5118270205650418e+01  5.1796324915796923e+01  5.1789274877331664e+01  8.4171312320851712e+01  6.9964628776414486e+01  7.0312879018109228e+01  6.8874124845766943e+01  6.8867858936606936e+01  6.5594104190061358e+01  6.8692324133304766e+01  6.4712350275017258e+01  6.5784539574381355e+01  5.3724035835802617e+01  5.2073250894559237e+01  7.1999438991385134e+01  7.0611618829054734e+01  7.1490287438121072e+01  7.1352756059997105e+01  6.9430272004899152e+01  6.7056908311853206e+01  6.3176987143059307e+01  6.1122212301416425e+01  6.0823162740485756e+01  5.2118893204549202e+01  5.2221673221613720e+01  7.4040062158047206e+01  7.3150946882081286e+01  7.2624162216497865e+01  7.2214605119041678e+01  7.0859080067077315e+01  6.7956904123719539e+01  6.5081943562626918e+01  6.1723442617934971e+01  5.8839275985238658e+01  5.8369600961582158e+01  5.6706582328232841e+01  5.4179910866099988e+01  5.1102099251516364e+01  7.5501745153336884e+01  7.4859444204402877e+01  7.4185603095030572e+01  7.2918763746143256e+01  7.6605342244272677e+01  7.5825507190617927e+01  7.4603004613249254e+01  7.7243479756170004e+01  7.6066222830752523e+01  7.7528965953334392e+01  6.0606219772381834e+01  6.4257204688275081e+01  6.0676153768897009e+01  6.7624692198942370e+01  6.0959674353559421e+01  5.9888607932330459e+01  7.0396126711379893e+01  7.0441763558149717e+01  6.1677937963959877e+01  7.7668196508657275e+01  7.2199537544010909e+01  7.1910305735407036e+01  7.4275575382463757e+01  9.1894534802409979e+01  2.9605235135301605e+01  7.3902995838299006e+01  7.2760363859956740e+01  7.2633437274246091e+01  5.9489570330265430e+01  5.9489799948645746e+01  9.1885262076752142e+01  7.7666663495404663e+01  7.6087469349386282e+01  7.5798124364386254e+01  7.6472321245851276e+01  7.3287673939955269e+01  7.6438957610264609e+01  7.2554614317135673e+01  7.4031949542958756e+01  6.1606787793325765e+01  5.9857909551689403e+01  7.7974259004079869e+01  7.7708494258430349e+01  7.9096761345283966e+01  7.9071514030054416e+01  7.7516285838992630e+01  7.5494906832811154e+01  7.2214049086023010e+01  7.0943610402849671e+01  6.9803974943028066e+01  6.0573801280148324e+01  6.0435569123486808e+01  8.0143288687474737e+01  8.0259566425798965e+01  8.0185875821563144e+01  8.0122638956441932e+01  7.9750132099206311e+01  7.7415048792391218e+01  7.5265448145232924e+01  7.2662111673865169e+01  7.0277323974405903e+01  6.8805999429922736e+01  6.6363593440929776e+01  6.3274755979853943e+01  5.9820632281708406e+01  8.1563955619346387e+01  8.1826751166037326e+01  8.1747805491508146e+01  8.1277907851105596e+01  8.2473736245876268e+01  8.2608214270902351e+01  8.2270919178126064e+01  8.2785539766128494e+01  8.2663037660578865e+01  8.2673936797437193e+01  4.8488936018331415e+01  4.9223163265915382e+01  4.9532087565178735e+01  5.0068788685560499e+01  5.1242272359122097e+01  5.0500813035838426e+01  5.1073710773040716e+01  5.3170822326993104e+01  5.3067469204266452e+01  5.1371135976616650e+01  5.2199102039727165e+01  5.4867399957156266e+01  5.6636230494770643e+01  5.4983979208890929e+01  5.3464186799993954e+01  5.2136810086199432e+01  5.5410682902140998e+01  5.8968142916237937e+01  5.9834814129340899e+01  5.7013467050388677e+01  5.5070788763433619e+01  5.2779177571127477e+01  5.7515986547873744e+01  6.1436898303321797e+01  6.2264187624112523e+01  6.2863741103620001e+01  6.0645572496417479e+01  5.8394841360876548e+01  5.6833211538989040e+01  5.4702692099658059e+01  5.3280521412190502e+01  6.0153089426817601e+01  6.5068487455849436e+01  6.5466785010323918e+01  6.4371958465527570e+01  6.1781241773188299e+01  5.9634231685822257e+01  5.7654477235651754e+01  5.6121453303577944e+01  5.4948802015229887e+01  5.3880150527854724e+01  6.4002365385370425e+01  6.8353421887524107e+01  6.8958443251104541e+01  6.7921588014921795e+01  6.6886120672006285e+01  6.3673741622423293e+01  6.0906607251714377e+01  5.9106598877763453e+01  5.7970785050431807e+01  5.6535425960117955e+01  5.4977946951284181e+01  5.3946225260153653e+01  7.0401596231365971e+01  6.8548928897135113e+01  6.5404901451010758e+01  6.2700042937564895e+01  6.0433873164862327e+01  5.8421792281034712e+01  5.7601449382936586e+01  5.6900640731338477e+01  5.5441380946222928e+01  5.3557060577175513e+01  7.1389246505459397e+01  7.2079054767006014e+01  7.1910317512911817e+01  7.2663985249402046e+01  7.3836503911858230e+01  7.4807381111940074e+01  7.1615697170470938e+01  7.0858482465549343e+01  6.7213657587039947e+01  6.4010894372530544e+01  6.6399279240939734e+01  6.1052026888150756e+01  5.8865485482792131e+01  5.6977955473732074e+01  5.6451516677772297e+01  5.6243925789206251e+01  5.4496083310524774e+01  5.3744031918168538e+01  5.2766968430992833e+01  7.3956266666274331e+01  7.3908243980474623e+01  7.4283723064104109e+01  7.2396754387905872e+01  6.9138121337829105e+01  6.6412166700195485e+01  6.4189453506423135e+01  6.0840561108005119e+01  5.8690572972741961e+01  5.6867770574308814e+01  5.5339256614688388e+01  5.5046646892456089e+01  5.3977519146220864e+01  5.2801181370172841e+01  5.2264502931608213e+01  7.4504187298943719e+01  7.6320344399320589e+01  7.6407898852970092e+01  5.4901240709697930e+01  7.6353615272300132e+01  7.6906017869705494e+01  7.6603323114328930e+01  7.6609422483913917e+01  7.4950635221499653e+01  7.1391984625362753e+01  6.7450809015660667e+01  6.3602775179025237e+01  5.3956358197017394e+01  5.1726487831563105e+01  7.7298676323880116e+01  7.7762856234166563e+01  7.8470478021561419e+01  7.8582845209915931e+01  7.7938111626815470e+01  7.7740632488252984e+01  7.6914473307670789e+01  7.8580557753999713e+01  7.8557743966385672e+01  8.0051484309984048e+01  7.8468880403451550e+01  7.9832217372758961e+01  8.0058317983411797e+01  8.1104181910598825e+01  8.1754771594235180e+01  8.0890036178240038e+01  7.9555335960599919e+01  7.8570293097285230e+01  7.8282092243844076e+01  7.7490508553933424e+01  7.6564886422965316e+01  7.6843287702914665e+01  7.6074743843234245e+01  8.0485544347384348e+01  7.9547900881616087e+01  7.8441886816830063e+01  7.6811020889208663e+01  7.5450490182699895e+01  7.4142645561434747e+01  7.5472223908230006e+01  7.3987911481295995e+01  8.1020673340296000e+01  8.1664205365676537e+01  8.2076434331078090e+01  8.2090610794347654e+01  8.1826092163099148e+01  8.0191483607029483e+01  7.9210722752594407e+01  7.8466976174819607e+01  7.7482446347616630e+01  7.6244008642255437e+01  7.4686532246822679e+01  7.3523659219915444e+01  7.1044213023297161e+01  7.0763398801183371e+01  7.3368265582925332e+01  7.0626420861751129e+01  8.1111571161283919e+01  8.1791401485400897e+01  8.2036387894561145e+01  8.2126062658924297e+01  8.2059171802527345e+01  8.1957345164603936e+01  8.0748315204571796e+01  7.9814951801111746e+01  7.9193967126688719e+01  7.7676019821837457e+01  7.6478165013222792e+01  7.4706938487380768e+01  7.3514409910352555e+01  7.2533045167619207e+01  7.0242016638280930e+01  6.7968409845373770e+01  6.5637510226900218e+01  6.7416314987712028e+01  8.0558944687914916e+01  8.1167320194872872e+01  8.1512275732094480e+01  8.1758992272548966e+01  8.1967325124653968e+01  8.2074469251718014e+01  8.1953034392085314e+01  8.1558837004244126e+01  8.1561457984624482e+01  8.1173805661900175e+01  8.0254799930718008e+01  7.9394359136147116e+01  7.8478097995604045e+01  7.7345154564542483e+01  7.6106361885565477e+01  7.5201455658293256e+01  7.3863823278053729e+01  7.2657764902590628e+01  7.0779660664140849e+01  6.8827776338429189e+01  6.7221840905072298e+01  6.5081514348259361e+01  6.2228735933650832e+01  6.3372714645389188e+01  8.0819317602748839e+01  8.1306946241009811e+01  8.1501291420136710e+01  8.1770846042398986e+01  8.1770868065690635e+01  8.1896426193548152e+01  8.1912860123845562e+01  8.1586956034924484e+01  8.0630287104381424e+01  8.0220156560827590e+01  7.9046034048504396e+01  7.9740757464435262e+01  8.0452956855944791e+01  8.0996372961235394e+01  8.1006777616400129e+01  8.1504131522971520e+01  8.1539499660438196e+01  8.1557107747287787e+01  8.1709425704877859e+01  8.1528724426166050e+01  8.1369469899229870e+01  8.0355010719720966e+01  7.9222134551881354e+01  7.7022705377600417e+01  7.5943285560400327e+01  7.8691059048258751e+01  7.7906303025752251e+01  7.6837177486666675e+01  7.5246922082430530e+01  7.4616873558171889e+01  7.2499268901652655e+01  7.1402226941299716e+01  6.9986751399105913e+01  5.7942868981277250e+01  5.8175819475038409e+01  8.0330973304344354e+01  8.0858774219702795e+01  8.1247266320833731e+01  8.1414463812236264e+01  8.1333231879114123e+01  8.1407423560193322e+01  8.1441570627794974e+01  8.1178055754587632e+01  8.0696770687333625e+01  7.9525121395019028e+01  8.0341515430554793e+01  7.9057534177022887e+01  7.8361895193411485e+01  7.7718814818531499e+01  7.6854765855811635e+01  7.5944803831096607e+01  7.4890227670200076e+01  7.3705953081376364e+01  7.3277020136690410e+01  7.2039777361189266e+01  7.0840316039904266e+01  7.9411736694735808e+01  7.8556868847342841e+01  7.6495613421829276e+01  7.4422404182412450e+01  7.2743731238000805e+01  5.3360790808891274e+01  7.9820371557621513e+01  8.0556083740119590e+01  8.1000611147904266e+01  8.1135194748576495e+01  8.0933115631585395e+01  8.1050323637599647e+01  8.1242956428815504e+01  8.1264756918793580e+01  8.1265599909282614e+01  8.1009538519307000e+01  8.0574227964228967e+01  7.9944238164556864e+01  7.9144066532311541e+01  7.8455100320046540e+01  7.7196140512448594e+01  7.5631015108498332e+01  7.3287378112510282e+01  7.1471343719532697e+01  7.0946201334539396e+01  7.7282287728565578e+01  7.8128859831618598e+01  7.8469731918581559e+01  7.9182814061746384e+01  7.4578866733172049e+01  7.5715226502146152e+01  7.6393795527161416e+01  7.2714829851116392e+01  7.2937109620094475e+01  7.1462353260260159e+01  8.0057918032543995e+01  8.0308159146417410e+01  8.0724218019766340e+01  8.0648366418768674e+01  8.0925533763211888e+01  8.1095606009471510e+01  8.1134855261199760e+01  8.1111570787172255e+01  8.0845901821405221e+01  8.0434831076155049e+01  7.9620280514416677e+01  7.8594932703327729e+01  7.8106380120456691e+01  7.6448144789127582e+01  7.4670716370167810e+01  7.2660686325585644e+01  7.0535448387211432e+01  6.8079287347846019e+01  6.8796036753160195e+01  7.7683186100411618e+01  7.6891602938151777e+01  7.6030500508445172e+01  7.5198395051774469e+01  7.3642034285508629e+01  7.3345508388035711e+01  7.2164747195591019e+01  7.1892369034092923e+01  7.7751106430595200e+01  7.8579976954622410e+01  7.9157972931370310e+01  7.9729521302016764e+01  8.0051099062951224e+01  8.0009687811247503e+01  8.0563465388235954e+01  8.0709266852122610e+01  8.0955626600864946e+01  8.1048666232981148e+01  8.0885685484414694e+01  8.0985507876167432e+01  8.0734824586268417e+01  8.0150214628091149e+01  7.9736143620103149e+01  7.8825663068717162e+01  7.7874873554910124e+01  7.7254743566172039e+01  7.6388566565425606e+01  7.3847814214415735e+01  7.1679195225833155e+01  7.0608953350317549e+01  6.8544965824819386e+01  6.7466030864048264e+01  6.4860845102222697e+01  6.4546391456857577e+01  7.6445448667260749e+01  7.5180215212358576e+01  7.4284297558463621e+01  7.3332565757654194e+01  7.2309287509163852e+01  7.2300793071531245e+01  7.7645183043973702e+01  7.8443548039913537e+01  7.9211479360788488e+01  7.9382258744034999e+01  7.8626674004591990e+01  7.9025424335110714e+01  7.9806035799964107e+01  8.0445956147409987e+01  8.0759855142424612e+01  8.0967517269619108e+01  8.0950365534278518e+01  8.0821507288682653e+01  8.0404290267167909e+01  7.9931543658012259e+01  7.9339773398185315e+01  7.8886165942826338e+01  7.7987155546027566e+01  7.6816809390579493e+01  7.5972097077633862e+01  7.5318714093494592e+01  7.3982722893597526e+01  7.2343427603157934e+01  7.0824587042497484e+01  6.9885505183619642e+01  6.9437097658809833e+01  6.7313129471127823e+01  6.6309855877189406e+01  6.3544676484443102e+01  6.1813054311599657e+01  8.0420171601155729e+01  7.6288316278729724e+01  7.7008717023643683e+01  7.7393361900955142e+01  7.7860808916129088e+01  7.4715243983144219e+01  7.5498679882636864e+01  7.3952145225209776e+01  7.3992628055737256e+01  7.3063137516972759e+01  7.2203255432706968e+01  7.7972087217111465e+01  7.6917105877736773e+01  7.5848553783034745e+01  7.6676212656480146e+01  7.8168851549779518e+01  7.9059080113509324e+01  7.9612521768689518e+01  8.0178413835683884e+01  8.0625762723273780e+01  8.0913017772617195e+01  8.0925555378326081e+01  8.0845787133110676e+01  8.0667486833328127e+01  8.0084200074040567e+01  7.9559745891731225e+01  7.8981087694168096e+01  7.8333069499342372e+01  7.7114996721788316e+01  7.6773143614817528e+01  7.5990254037993324e+01  7.5197043719167823e+01  7.3298793713505660e+01  7.1654858157685240e+01  6.9922338098131888e+01  6.9090706063167758e+01  6.8161236312339241e+01  6.8176371256809986e+01  6.5930122377120654e+01  6.5298076750697589e+01  6.4150197026138429e+01  6.1876258398557205e+01  6.0808043543790582e+01  7.4085981523115393e+01  7.4187651420144732e+01  7.5041782896534684e+01  7.3302674298543309e+01  7.1990210359247740e+01  7.3025036473631644e+01  7.7416356550500609e+01  7.7136970787751892e+01  7.7785862879647865e+01  7.8661592084555238e+01  7.9094549748655112e+01  7.9680894978058902e+01  8.0357376849836442e+01  8.0692732398393517e+01  8.0801250083088959e+01  8.0928871297104962e+01  8.0819738353725370e+01  8.0632898458494324e+01  8.0228023895142570e+01  7.9659635202517592e+01  7.8876933954985688e+01  7.8109755974051112e+01  7.6720977170173597e+01  7.5518829725525123e+01  7.5616195267652444e+01  7.4723809179333827e+01  7.4000223450253429e+01  7.2660777389777962e+01  7.0671242122237174e+01  7.6251646819151290e+01  7.5246267954950056e+01  7.4330361714722571e+01  7.3445597066905080e+01  7.2360637131136201e+01  7.1666736961007899e+01  6.7101751624048447e+01  6.4638862302000831e+01  6.3216890843444027e+01  6.1714212064889153e+01  6.0119867344637264e+01  5.9140195392097027e+01  5.9906500945961149e+01  7.6490366028264845e+01  7.5509572371407174e+01  7.4608172103658106e+01  7.3505862013118033e+01  7.2321912015402589e+01  7.1238235691024784e+01  7.6780989969064294e+01  7.7482033251097917e+01  7.8419980063801205e+01  7.9050277601857346e+01  7.9781842263026803e+01  8.0387291213140159e+01  8.0590587801775200e+01  8.0912871913933941e+01  8.0951216351847464e+01  8.0686403204119614e+01  8.0383010893011999e+01  7.9871746397194968e+01  7.9271723502096592e+01  7.8482933800619421e+01  7.7805262935629955e+01  7.6746341439962166e+01  7.5662703169805880e+01  7.4313703473385573e+01  7.3761768561246512e+01  7.4708276199150731e+01  7.5832545916258695e+01  8.0917847932252556e+01  7.2993097664614737e+01  7.1871968031074957e+01  5.8462264021904872e+01  7.3461160117709483e+01  7.2087685157619006e+01  7.1517466513100686e+01  7.0887198960348499e+01  7.4498749786572361e+01  7.5499371700361593e+01  7.6301408548479927e+01  7.6971987391517899e+01  7.7800055302394597e+01  7.8312641279444676e+01  7.9108045202296978e+01  8.0210793108336432e+01  7.9745766682668460e+01  8.0663667302927735e+01  8.0965563550958507e+01  8.1086828335750269e+01  8.0852917049692508e+01  8.0566499582998631e+01  8.0180405430270909e+01  7.9695878911080499e+01  7.9025971108012911e+01  7.8142062388203627e+01  7.6686606977948642e+01  7.7540784945708197e+01  7.5891774196917311e+01  7.4749700026618285e+01  7.3469309688543092e+01  7.2788300703422578e+01  7.3376311420455252e+01  7.4403749159706180e+01  7.5462514208085906e+01  7.5369624717572222e+01  7.2205601297388725e+01  7.0845492892140584e+01  7.0492848815703297e+01  7.6608586452668106e+01  7.7363353735699135e+01  7.8242025601618138e+01  7.9246883071859855e+01  7.9717366000981514e+01  8.0593110734842313e+01  8.1187097914123768e+01  8.1263269818672853e+01  8.1069314138876067e+01  8.0758042257494012e+01  8.0393454397547742e+01  7.9727451337470043e+01  7.9334558560520705e+01  7.8612796821840789e+01  7.7265845906770764e+01  7.6417079222050361e+01  7.5299322937731830e+01  7.3847415207114850e+01  7.5080733765795571e+01  7.2968696221139339e+01  7.2073051943745980e+01  7.1061293837103079e+01  7.0259128639733945e+01  6.9537896232769555e+01  7.4154145631802976e+01  7.4557141863300288e+01  7.5596884753868153e+01  7.6844549775558747e+01  7.7696062847711048e+01  7.8399903041579833e+01  7.9413388170821307e+01  8.0158992903423254e+01  8.0816493275082635e+01  8.1433159087121894e+01  8.1463996837956842e+01  8.1275268912446009e+01  8.0881472982689573e+01  8.0474139331208420e+01  7.9906429682210430e+01  7.8997814062749271e+01  7