<?xml version="1.0"?>
<VTKFile type="UnstructuredGrid"  version="0.1"  >
<UnstructuredGrid>
<Piece  NumberOfPoints="32685" NumberOfCells="63808">
<Points>
<DataArray  type="Float64"  NumberOfComponents="3"  format="ascii">3 0.3207336731613248 0  2.829563040797541 0.3182521631901648 0  3 0.5085110656648704 0  2.655821106513804 0.3116422130276078 0  2.835061318114777 0.5051839543443308 0  3 0.6897344810094523 0  2.477003082583512 0.3026707767780156 0  2.664647711840426 0.4969715677606382 0  2.842448462936374 0.6848969258727482 0  3 0.8601728169611075 0  2.292893218813282 0.2928932188132819 0  2.486940241264027 0.4869402412640268 0  2.674832775912863 0.6748327759128629 0  2.852474570368216 0.8524745703682164 0  3 1 0  2.302670776778016 0.4770030825835117 0  2.496971567760638 0.6646477118404255 0  2.684896925872748 0.8424484629363741 0  2.860172816961108 1 0  3 1.139827183038892 0  3.147525429631784 1.147525429631784 0  3.139827183038892 1 0  2.311642213027608 0.655821106513804 0  2.505183954344331 0.8350613181147769 0  2.689734481009452 1 0  2.852474570368216 1.147525429631784 0  3 1.310265518990548 0  3.157551537063626 1.315103074127252 0  3.325167224087137 1.325167224087137 0  3.315103074127252 1.157551537063626 0  3.310265518990548 1 0  2.318252163190165 0.8295630407975412 0  2.50851106566487 1 0  2.684896925872748 1.157551537063626 0  2.842448462936374 1.315103074127252 0  3 1.49148893433513 0  3.164938681885223 1.494816045655669 0  3.335352288159574 1.503028432239362 0  3.513059758735973 1.513059758735973 0  3.503028432239362 1.335352288159575 0  3.494816045655669 1.164938681885223 0  3.49148893433513 1 0  2.320733673161325 1 0  2.505183954344331 1.164938681885223 0  2.674832775912863 1.325167224087137 0  2.835061318114777 1.494816045655669 0  3 1.679266326838675 0  3.170436959202459 1.681747836809835 0  3.344178893486196 1.688357786972392 0  3.522996917416489 1.697329223221984 0  3.707106781186718 1.707106781186718 0  3.697329223221984 1.522996917416488 0  3.688357786972392 1.344178893486196 0  3.681747836809835 1.170436959202459 0  3.679266326838675 1 0  2.318252163190165 1.170436959202459 0  2.496971567760638 1.335352288159575 0  2.664647711840426 1.503028432239362 0  2.829563040797541 1.681747836809835 0  2.311642213027608 1.344178893486196 0  2.486940241264027 1.513059758735973 0  2.655821106513804 1.688357786972392 0  2.302670776778016 1.522996917416488 0  2.477003082583511 1.697329223221984 0  2.292893218813282 1.707106781186718 0  2 4.679266326838675 0  1.829563040797541 4.681747836809835 0  2 4.49148893433513 0  1.655821106513804 4.688357786972392 0  1.835061318114777 4.494816045655669 0  2 4.310265518990548 0  1.477003082583512 4.697329223221985 0  1.664647711840425 4.503028432239362 0  1.842448462936374 4.315103074127252 0  2 4.139827183038893 0  1.292893218813282 4.707106781186718 0  1.486940241264027 4.513059758735973 0  1.674832775912863 4.325167224087137 0  1.852474570368216 4.147525429631783 0  2 4 0  1.302670776778016 4.522996917416489 0  1.496971567760638 4.335352288159575 0  1.684896925872748 4.157551537063626 0  1.860172816961108 4 0  2 3.860172816961108 0  2.147525429631784 3.852474570368216 0  2.139827183038892 4 0  1.311642213027608 4.344178893486196 0  1.505183954344331 4.164938681885223 0  1.689734481009452 4 0  1.852474570368216 3.852474570368216 0  2 3.689734481009452 0  2.157551537063626 3.684896925872748 0  2.325167224087137 3.674832775912863 0  2.315103074127252 3.842448462936374 0  2.310265518990548 4 0  1.318252163190165 4.170436959202459 0  1.50851106566487 4 0  1.684896925872748 3.842448462936374 0  1.842448462936374 3.684896925872748 0  2 3.50851106566487 0  2.164938681885223 3.505183954344331 0  2.335352288159574 3.496971567760638 0  2.513059758735973 3.486940241264027 0  2.503028432239362 3.664647711840426 0  2.494816045655669 3.835061318114777 0  2.49148893433513 4 0  1.320733673161325 4 0  1.505183954344331 3.835061318114777 0  1.674832775912863 3.674832775912863 0  1.835061318114777 3.505183954344331 0  2 3.320733673161325 0  2.170436959202459 3.318252163190165 0  2.344178893486196 3.311642213027608 0  2.522996917416489 3.302670776778016 0  2.707106781186718 3.292893218813282 0  2.697329223221984 3.477003082583511 0  2.688357786972392 3.655821106513804 0  2.681747836809835 3.829563040797541 0  2.679266326838675 4 0  1.318252163190165 3.829563040797541 0  1.496971567760638 3.664647711840426 0  1.664647711840425 3.496971567760638 0  1.829563040797541 3.318252163190165 0  1.311642213027608 3.655821106513804 0  1.486940241264027 3.486940241264027 0  1.655821106513804 3.311642213027608 0  1.302670776778016 3.477003082583511 0  1.477003082583512 3.302670776778016 0  1.292893218813282 3.292893218813282 0  -6 5.679266326838675 0  -5.829563040797542 5.681747836809835 0  -6 5.49148893433513 0  -5.655821106513804 5.688357786972392 0  -5.835061318114777 5.494816045655669 0  -6 5.310265518990548 0  -5.477003082583511 5.697329223221985 0  -5.664647711840425 5.503028432239362 0  -5.842448462936374 5.315103074127252 0  -6 5.139827183038893 0  -5.292893218813282 5.707106781186718 0  -5.486940241264027 5.513059758735973 0  -5.674832775912863 5.325167224087137 0  -5.852474570368217 5.147525429631783 0  -6 5 0  -5.302670776778015 5.522996917416489 0  -5.496971567760638 5.335352288159575 0  -5.684896925872748 5.157551537063626 0  -5.860172816961107 5 0  -6 4.860172816961107 0  -6.147525429631783 4.852474570368217 0  -6.139827183038893 5 0  -5.311642213027608 5.344178893486196 0  -5.505183954344331 5.164938681885223 0  -5.689734481009452 5 0  -5.852474570368217 4.852474570368217 0  -6 4.689734481009452 0  -6.157551537063626 4.684896925872748 0  -6.325167224087137 4.674832775912863 0  -6.315103074127252 4.842448462936374 0  -6.310265518990548 5 0  -5.318252163190165 5.170436959202459 0  -5.50851106566487 5 0  -5.684896925872748 4.842448462936374 0  -5.842448462936374 4.684896925872748 0  -6 4.50851106566487 0  -6.164938681885223 4.505183954344331 0  -6.335352288159575 4.496971567760638 0  -6.513059758735973 4.486940241264027 0  -6.503028432239362 4.664647711840425 0  -6.494816045655669 4.835061318114777 0  -6.49148893433513 5 0  -5.320733673161325 5 0  -5.505183954344331 4.835061318114777 0  -5.674832775912863 4.674832775912863 0  -5.835061318114777 4.505183954344331 0  -6 4.320733673161325 0  -6.170436959202458 4.318252163190165 0  -6.344178893486196 4.311642213027608 0  -6.522996917416489 4.302670776778015 0  -6.707106781186718 4.292893218813282 0  -6.697329223221985 4.477003082583511 0  -6.688357786972392 4.655821106513804 0  -6.681747836809835 4.829563040797541 0  -6.679266326838675 5 0  -5.318252163190165 4.829563040797542 0  -5.496971567760638 4.664647711840425 0  -5.664647711840425 4.496971567760638 0  -5.829563040797542 4.318252163190165 0  -5.311642213027608 4.655821106513804 0  -5.486940241264027 4.486940241264027 0  -5.655821106513804 4.311642213027608 0  -5.302670776778015 4.477003082583511 0  -5.477003082583511 4.302670776778015 0  -5.292893218813282 4.292893218813282 0  -5 2.320733673161325 0  -4.829563040797542 2.318252163190165 0  -5 2.50851106566487 0  -4.655821106513804 2.311642213027608 0  -4.835061318114777 2.505183954344331 0  -5 2.689734481009452 0  -4.477003082583511 2.302670776778016 0  -4.664647711840425 2.496971567760638 0  -4.842448462936374 2.684896925872748 0  -5 2.860172816961108 0  -4.292893218813282 2.292893218813282 0  -4.486940241264027 2.486940241264027 0  -4.674832775912863 2.674832775912863 0  -4.852474570368217 2.852474570368216 0  -5 3 0  -4.302670776778015 2.477003082583511 0  -4.496971567760638 2.664647711840426 0  -4.684896925872748 2.842448462936374 0  -4.860172816961107 3 0  -5 3.139827183038892 0  -5.147525429631783 3.147525429631784 0  -5.139827183038893 3 0  -4.311642213027608 2.655821106513804 0  -4.505183954344331 2.835061318114777 0  -4.689734481009452 3 0  -4.852474570368217 3.147525429631784 0  -5 3.310265518990548 0  -5.157551537063626 3.315103074127252 0  -5.325167224087137 3.325167224087137 0  -5.315103074127252 3.157551537063626 0  -5.310265518990548 3 0  -4.318252163190165 2.829563040797541 0  -4.50851106566487 3 0  -4.684896925872748 3.157551537063626 0  -4.842448462936374 3.315103074127252 0  -5 3.49148893433513 0  -5.164938681885223 3.494816045655669 0  -5.335352288159575 3.503028432239362 0  -5.513059758735973 3.513059758735973 0  -5.503028432239362 3.335352288159574 0  -5.494816045655669 3.164938681885223 0  -5.49148893433513 3 0  -4.320733673161325 3 0  -4.505183954344331 3.164938681885223 0  -4.674832775912863 3.325167224087137 0  -4.835061318114777 3.494816045655669 0  -5 3.679266326838675 0  -5.170436959202458 3.681747836809835 0  -5.344178893486196 3.688357786972392 0  -5.522996917416489 3.697329223221984 0  -5.707106781186718 3.707106781186718 0  -5.697329223221985 3.522996917416489 0  -5.688357786972392 3.344178893486196 0  -5.681747836809835 3.170436959202459 0  -5.679266326838675 3 0  -4.318252163190165 3.170436959202459 0  -4.496971567760638 3.335352288159574 0  -4.664647711840425 3.503028432239362 0  -4.829563040797542 3.681747836809835 0  -4.311642213027608 3.344178893486196 0  -4.486940241264027 3.513059758735973 0  -4.655821106513804 3.688357786972392 0  -4.302670776778015 3.522996917416489 0  -4.477003082583511 3.697329223221984 0  -4.292893218813282 3.707106781186718 0  5 1 0  5 1.1875 0  4.834908290854834 1 0  4.777127948738723 1.195499924639372 0  4.839086815232164 1.346682114508668 0  5 1.375 0  4.669816581709669 1 0  4.632764363488562 1.365485527798476 0  4.794926146457388 1.50398688558759 0  5 1.5625 0  4.642258798879609 1.142328639834177 0  4.504724872564504 1 0  4.500247074421719 1.171475564681439 0  4.339633163419338 1 0  4.498775742703332 1.356177489340095 0  4.497705853685118 1.490484769177636 0  4.645521174961488 1.514732206813389 0  4.689691594422786 1.689472084520371 0  4.856231811549666 1.66136337359662 0  5 1.75 0  4.25035262013317 1.188684954713487 0  4.364655839949951 1.363349780835463 0  4.363585
[...]
<PointData  Scalars="u"> 
<DataArray  type="Float64"  Name="u"  format="ascii">5.3486241159413538e+01  5.7354211846938057e+01  5.3528789032747689e+01  6.0753384978785860e+01  5.8464608437274947e+01  5.3549273332482237e+01  6.3502921904842026e+01  6.2480278306039132e+01  6.0430476954041858e+01  5.3612766898560800e+01  6.5646415273149728e+01  6.5392563054768843e+01  6.5022522172309067e+01  6.4556497261859079e+01  5.7708247010481976e+01  6.7483144715134799e+01  6.7799746168360983e+01  6.8697361235151760e+01  7.2000633016146168e+01  7.1575532012652971e+01  6.3703469725292067e+01  5.3201030202773488e+01  6.9604044444691908e+01  7.0646862424167779e+01  7.2773525109295903e+01  7.4906772469337042e+01  7.1812887382311843e+01  6.7254587101815588e+01  6.3076638112741094e+01  5.9039785115829524e+01  5.2654443800168785e+01  7.1867087612278041e+01  7.3389330246040217e+01  7.5178613003091485e+01  7.4684270180481292e+01  7.1838480831195753e+01  6.8590336226012028e+01  6.5224811785793975e+01  6.2300351253165516e+01  6.0010465146118314e+01  5.6559334197457737e+01  5.2144017225951487e+01  7.3971199856078925e+01  7.5318221890358572e+01  7.5784012155192841e+01  7.4263850906736423e+01  7.1785111881399459e+01  6.9150401378350523e+01  6.6354757573608737e+01  6.3706448543868021e+01  6.1358774104851115e+01  5.9899256987753510e+01  5.7779077292496325e+01  5.4957443499590319e+01  5.1620531920222206e+01  7.5571145543224048e+01  7.6240006661929058e+01  7.5701512000156697e+01  7.3916435186108004e+01  7.6564676003839992e+01  7.6520521222965840e+01  7.5449596631001000e+01  7.7063948233982288e+01  7.6501714954123614e+01  7.7252651721833743e+01  5.9308260536436727e+01  6.3054180771651303e+01  5.9411285528792817e+01  6.6319059305413546e+01  6.4206470818414488e+01  5.9500990726219484e+01  6.8925320271269129e+01  6.8064788649043976e+01  6.6223129670372188e+01  5.9641805960221888e+01  7.0921043489444259e+01  7.0807432628285952e+01  7.0633152869041112e+01  7.0411626584652979e+01  6.3811743429881574e+01  7.2720957745490125e+01  7.3209815550798766e+01  7.4340996276183972e+01  7.7920807631297663e+01  7.7765441714602972e+01  7.0095809461448525e+01  5.9469886276665804e+01  7.4803482187703594e+01  7.6054984394487505e+01  7.8451128171223431e+01  8.0881756500512395e+01  7.8127507579375887e+01  7.3814014190789905e+01  6.9863892363821734e+01  6.5632911623293197e+01  5.9096494106822462e+01  7.7025532245138550e+01  7.8793004587125438e+01  8.0883730744491274e+01  8.0730393384449258e+01  7.8314103974081803e+01  7.5361229548917933e+01  7.2256676584989819e+01  6.9546051152172126e+01  6.6989309197190437e+01  6.3322594196374183e+01  5.8731420955890698e+01  7.9083028735468019e+01  8.0710971118193740e+01  8.1517095123900532e+01  8.0410116726178572e+01  7.8466071805943500e+01  7.6183791398231904e+01  7.3690165480118935e+01  7.1280077924319926e+01  6.9090254423911531e+01  6.7294060841294140e+01  6.4895356012632021e+01  6.1842891369931166e+01  5.8312823559429440e+01  8.0625184077345850e+01  8.1613922401012260e+01  8.1473485417624758e+01  8.0195963281805476e+01  8.1548097369256084e+01  8.1873389528969597e+01  8.1279108681973000e+01  8.1963187718719752e+01  8.1834680668014570e+01  8.2055425911334666e+01  5.3680974541308501e+01  5.7732272293183563e+01  5.3599622434038508e+01  6.1321882667254521e+01  5.8793860992013165e+01  5.3476020804634885e+01  6.4266152364423888e+01  6.3031093063397726e+01  6.0754282620833472e+01  5.3385612422057555e+01  6.6603121261843000e+01  6.6129845182021683e+01  6.5585293593574448e+01  6.5102686433656231e+01  5.8029581777601720e+01  6.8392448058763847e+01  6.8517781261222368e+01  6.9345347788083458e+01  7.3242637715810616e+01  7.2416608688306226e+01  6.3454363940913524e+01  5.2614558765064380e+01  7.0456868371900370e+01  7.1356312005221596e+01  7.3501519990855186e+01  7.5678330928728784e+01  7.1592027850757191e+01  6.6547039229104001e+01  6.1899222862794716e+01  5.8165543272362676e+01  5.1836690337267882e+01  7.2655218946815211e+01  7.4060269916155463e+01  7.5724931189058523e+01  7.4716638683034802e+01  7.0901125726245638e+01  6.7286240656658677e+01  6.3566910994568708e+01  6.0354385296461516e+01  5.8481732865294674e+01  5.5336172972553932e+01  5.1119941112424627e+01  7.4687450268019916e+01  7.5860755947425034e+01  7.5939326099871948e+01  7.3651452869169447e+01  7.0117561840057462e+01  6.7163227664546611e+01  6.4104088982847443e+01  6.1249989184256243e+01  5.8754621184616504e+01  5.7733223585015523e+01  5.5987919574773777e+01  5.3484208880125010e+01  5.0415973396271369e+01  7.6207555355520824e+01  7.6562681883484231e+01  7.5397184760594570e+01  7.2630180949186212e+01  7.7107696174449629e+01  7.6558479224637196e+01  7.4615439937028839e+01  7.7490004904726362e+01  7.6193393282545344e+01  7.7521029748119020e+01  6.0499056519573955e+01  6.4266626189259370e+01  6.0604240350733278e+01  6.7540159056331447e+01  6.5411964102849126e+01  6.0697233004989215e+01  7.0144150305454403e+01  6.9270184995826284e+01  6.7419446917134351e+01  6.0841442571372880e+01  7.2128668961933215e+01  7.2002183229929415e+01  7.1820278553781165e+01  7.1591081124800056e+01  6.5017654754402741e+01  7.3895542127775002e+01  7.4377002140668978e+01  7.5505573498524285e+01  7.9072868275094265e+01  7.8924393530368278e+01  7.1287813138826351e+01  6.0667531402320257e+01  7.5940459626968689e+01  7.7190120175457437e+01  7.9589907038549711e+01  8.2033290993605661e+01  7.9312330370700394e+01  7.5026764973848003e+01  7.1070259951289799e+01  6.6812267780403019e+01  6.0259841916678937e+01  7.8118432257902356e+01  7.9889420911697528e+01  8.1993984149987611e+01  8.1867935302749515e+01  7.9497595706364393e+01  7.6596716945190352e+01  7.3501459276772991e+01  7.0733482752142891e+01  6.8131336312133513e+01  6.4432676231931666e+01  5.9817612493154343e+01  8.0122088607910868e+01  8.1758137960350254e+01  8.2585102210469898e+01  8.1513618177324744e+01  7.9626343167620092e+01  7.7434687089814801e+01  7.4981400283244795e+01  7.2530120586573048e+01  7.0178314608947900e+01  6.8330043075320432e+01  6.5896364483449190e+01  6.2819378095036484e+01  5.9270422011360061e+01  8.1594822605493292e+01  8.2592503420266667e+01  8.2473562349315571e+01  8.1233067262962592e+01  8.2426107650083239e+01  8.2754661189817639e+01  8.2173610266431112e+01  8.2718805364129068e+01  8.2577560070953865e+01  8.2647969927481881e+01  4.8492773417002809e+01  4.9525027174189738e+01  4.8834756707850190e+01  5.0216768491210438e+01  5.0906813451693658e+01  5.0493162062922210e+01  4.9191151809769131e+01  5.1821113586380193e+01  5.1934563522905940e+01  5.1371144730095473e+01  5.0275439797971501e+01  4.9563228795518341e+01  5.0949345904207547e+01  4.9949637101545179e+01  5.2343822622493789e+01  5.3267253475242740e+01  5.2673313218328175e+01  5.3367624057750689e+01  5.2421130023983920e+01  5.2134818449782685e+01  5.2048863636791147e+01  5.3045804015945919e+01  5.4060538693712992e+01  5.4847941050074212e+01  5.5018405935622432e+01  5.4217004102514260e+01  5.3482845134257005e+01  5.2771607735849919e+01  5.0348009637853593e+01  5.4068580708832272e+01  5.4262031186133015e+01  5.2513308449359712e+01  5.0763463527095197e+01  5.3990739938307115e+01  5.5318854868932995e+01  5.6628458456703612e+01  5.6388184357840345e+01  5.6785814173462079e+01  5.4954576056952732e+01  5.3564283681455670e+01  5.3271182531477095e+01  5.5972194808491182e+01  5.7625901763931118e+01  5.8298964301683100e+01  5.7897875468636293e+01  5.8016251147560709e+01  5.8168760102782407e+01  5.6280193172840718e+01  5.5234070835032703e+01  5.4292973514091273e+01  5.3998181023627481e+01  5.3631354898583332e+01  5.3962069913514732e+01  5.1186351084963725e+01  5.6880868719734067e+01  6.0070422692903648e+01  5.9014687503928279e+01  5.9900789929177201e+01  5.7775538802585764e+01  5.4952151028293571e+01  5.1632128704717843e+01  5.9477999467115680e+01  5.9304143911463136e+01  5.9385170266463547e+01  5.8839194042995082e+01  5.7296676859575790e+01  5.5873364731006298e+01  5.4652630593251487e+01  5.4257244644428667e+01  5.3854730162555498e+01  6.1358201511370034e+01  6.2009857465903480e+01  6.1296957161912367e+01  6.1061514592242339e+01  6.0186578006570940e+01  5.9618670588739519e+01  5.7849290747624664e+01  5.6103713195990082e+01  5.5294833413408099e+01  5.4966105941558503e+01  5.3946518149619138e+01  6.3671773421681593e+01  6.3705367082649637e+01  6.3846430368943352e+01  6.2721466879537950e+01  6.1771132388709439e+01  6.0852319556815061e+01  5.9440396378748495e+01  5.8162918572833988e+01  5.6879995235696867e+01  5.5742043314921403e+01  5.5320146869889165e+01  5.4535083141052041e+01  5.3914191788360093e+01  6.5456422398054372e+01  6.6239510376383649e+01  6.5704399011985885e+01  6.5346476698817000e+01  6.3868410353261417e+01  6.2299157194640536e+01  6.1073203035683569e+01  5.9733851359430027e+01  5.8311111771446150e+01  5.6806614015061278e+01  5.5895872874840926e+01  5.4923858961236377e+01  5.3767885680101571e+01  6.6355265740194781e+01  6.7462624547852201e+01  6.8594195425720471e+01  6.7471663787449501e+01  6.6802081416776147e+01  6.6551738229450734e+01  6.4610376759751460e+01  6.2884947927449623e+01  6.1840829276428551e+01  6.0544855776347482e+01  5.8716267258559256e+01  5.7723370404276878e+01  5.6698803618434901e+01  5.5295357026982032e+01  5.5882892428606510e+01  5.4410988533003582e+01  5.3518340259222370e+01  6.9154458715535682e+01  6.9441886129785303e+01  7.0965627178818764e+01  6.9871949526187436e+01  6.9619273278511642e+01  6.8675080934091056e+01  6.7754478520039200e+01  6.6829419424260095e+01  6.4715952267852614e+01  6.3245351290570014e+01  6.1744850880060149e+01  6.0225378055198817e+01  5.8640750437815321e+01  5.7466098032757188e+01  5.6087737441642624e+01  5.5771357331747716e+01  5.5035585494531553e+01  5.4168939715750213e+01  5.3177263523696013e+01  7.1780486487267893e+01  7.3139841778149474e+01  7.1509498423244111e+01  7.2049728560272257e+01  7.0496590748876741e+01  6.9304058998538963e+01  6.8960942895517704e+01  6.6976472751051190e+01  6.5503959659148506e+01  6.4281520012976102e+01  6.2755308972569658e+01  6.0932992772834915e+01  5.9787668339979462e+01  5.8833828742305755e+01  5.7284407558056600e+01  5.6199901281456590e+01  5.5355259430722782e+01  5.4517257533689374e+01  5.3622294932511018e+01  5.2757999487163779e+01  7.2659940206312072e+01  7.3917091753738063e+01  7.4271205521093691e+01  7.5448046281851305e+01  7.4319235032190008e+01  7.3066545464380198e+01  7.3596294837859787e+01  7.3464971397740300e+01  7.1008896602686093e+01  7.1712109931935956e+01  7.0798686617982270e+01  6.9225691385443255e+01  6.7662960458536276e+01  6.5735073255354365e+01  6.4984604787965637e+01  6.3113557413536036e+01  6.1354857209624015e+01  5.9862334877872094e+01  5.8520699128076124e+01  5.7419297985816613e+01  5.7400349992759566e+01  5.6370995801319573e+01  5.5361717789868791e+01  5.4633846608806294e+01  5.3764124673438076e+01  5.3001573234425734e+01  5.2272463682448404e+01  7.5311971631065717e+01  7.4977336421039212e+01  7.5312848774767033e+01  7.5197042262436327e+01  7.3169581997146636e+01  7.2210774564734677e+01  7.1413126035630071e+01  6.9683735263353938e+01  6.8341706711616538e+01  6.6547178949604188e+01  6.4060595511803811e+01  6.2509962921485162e+01  6.0218063678652811e+01  5.9134773476165201e+01  5.7800324729208000e+01  5.6745743714439598e+01  5.6187022239417033e+01  5.5538947315564343e+01  5.4592318790349324e+01  5.4362971782728167e+01  5.3790695909857554e+01  5.2550075771757363e+01  5.2137470060383933e+01  5.1733679000242716e+01  7.6500212215036385e+01  7.6724552752884307e+01  7.6249809808074318e+01  7.6660279801019442e+01  7.6649919311087842e+01  7.6342602034582384e+01  7.4939665294517752e+01  7.3146952660451078e+01  7.2168431792218087e+01  7.0077201547736237e+01  6.8247215621312066e+01  6.5998472378396812e+01  6.3528659155899696e+01  6.1504102114131733e+01  5.9585541882017694e+01  5.7503128810397619e+01  5.6022543394775241e+01  5.5593820078200018e+01  5.5156877334457597e+01  5.5708903613561965e+01  5.5249672934920248e+01  5.4277136290076164e+01  5.3837824436472829e+01  5.3402656871272278e+01  5.2973005477409778e+01  7.7253822611747282e+01  7.7311045100014368e+01  7.7520745171530493e+01  7.7491920956311176e+01  7.7834133448315796e+01  7.8049058770969737e+01  7.6298592758384487e+01  7.4641895157738347e+01  7.3209113247909286e+01  7.0981666178173185e+01  6.9089418680015726e+01  6.6357369941276175e+01  6.4700952819348061e+01  6.2647179915913021e+01  6.0743442749408864e+01  5.8290397686792041e+01  5.6443753653363380e+01  7.7467007774215404e+01  7.7784629796436278e+01  7.7581483055166288e+01  7.7062816548736706e+01  5.4716983709845906e+01  7.8077871646443157e+01  7.8185679260294464e+01  7.7919178923916604e+01  7.7379618989060504e+01  7.7020655505787317e+01  7.6563814065378821e+01  7.8068976083100083e+01  7.8152135242358909e+01  7.8808721479631075e+01  7.8699642253841688e+01  7.9314756317927362e+01  7.8942745403893781e+01  7.8653044649443544e+01  7.7420191691128096e+01  7.6192492912424385e+01  7.6001122727496934e+01  7.4203768900783928e+01  7.1280990329799096e+01  6.7293635524716237e+01  6.4249772521766133e+01  6.1110812461157700e+01  5.9626963267744728e+01  5.6850907116248699e+01  7.8789212549243643e+01  7.8540498443988568e+01  7.8929034564215812e+01  7.8134702622600727e+01  7.7674915813530319e+01  7.6537420971937905e+01  7.6361474077154639e+01  7.5571727395316685e+01  7.8789369099107518e+01  7.9366636259763581e+01  7.9688430685393001e+01  8.0116455431413499e+01  8.0100515760295778e+01  7.9935470595153873e+01  7.9627692708892425e+01  7.9247592245256030e+01  7.7504537339154723e+01  7.7536290302923305e+01  7.9506091458046797e+01  7.5714986679221781e+01  7.3691273715811434e+01  6.4892989121651553e+01  6.1669609069865558e+01  5.9563795603587778e+01  5.7245471043440709e+01  7.9256308748628641e+01  7.9688984652174824e+01  7.9413748968364828e+01  7.9054845398324844e+01  7.8500316655627373e+01  7.7979138651214001e+01  7.7377644567333064e+01  7.6700113196569163e+01  7.5853371636188299e+01  7.5466105526309761e+01  7.4862734848254760e+01  7.5368276340800662e+01  7.3965680838545651e+01  8.0215630208895831e+01  8.0253471811626014e+01  8.0778244191918716e+01  8.1024316232143136e+01  8.0689877251699698e+01  8.0959881084990315e+01  8.0544743905864649e+01  8.0426214736827589e+01  8.0197346282134532e+01  7.8463995299000928e+01  7.6185721167135512e+01  6.1837182753226863e+01  5.7985170972053432e+01  5.7624038261849961e+01  7.9858889542601915e+01  8.0121502822452470e+01  8.0670916110849262e+01  8.1069877560767168e+01  8.1442504558195793e+01  8.1299068573725407e+01  8.1648129441298423e+01  8.1416104027814626e+01  8.1279182012124053e+01  7.9605962421321692e+01  7.9512629361938352e+01  7.8987003206208456e+01  7.8191523237270474e+01  7.7451254697123545e+01  7.6588712298468565e+01  7.5547055807638543e+01  7.5025199846485762e+01  7.4548357604692697e+01  7.3015989289701253e+01  7.4129421812172566e+01  7.1870570320404624e+01  5.8323757497100068e+01  8.0138937768251850e+01  8.0488502069805833e+01  8.0908431194673454e+01  8.1286958876722423e+01  8.1588008433756684e+01  8.1738886954209860e+01  8.2003873787694758e+01  8.2048987735321845e+01  8.1865858032258700e+01  8.1833718081098695e+01  7.9968740453043480e+01  7.9368922876687449e+01  7.8623697128438835e+01  7.8062912107632158e+01  7.7249262227637516e+01  7.6369115061167577e+01  7.4961193922945071e+01  7.4263899568185508e+01  7.3714067235347983e+01  7.2878126842074252e+01  7.1225340396268564e+01  6.9604604346131666e+01  8.0456248339932486e+01  8.0474591381997655e+01  7.9791220417106246e+01  7.9007968255247093e+01  7.8462871452773157e+01  7.7910618618290542e+01  7.7211279788361452e+01  7.6653327088193819e+01  7.5882736104092842e+01  7.5039382642732662e+01  7.3926737195577047e+01  7.3892500885730698e+01  7.2477192357988656e+01  7.1512428348345381e+01  7.0304600170193154e+01  6.7483987865975067e+01  8.0871268789961434e+01  8.1287799826100553e+01  8.1599688879358894e+01  8.1865242867275924e+01  8.2014355174012621e+01  8.2102286043845510e+01  8.2116118922236225e+01  8.2055452460448905e+01  8.0913889319805733e+01  8.1304597796542467e+01  8.1701315801078280e+01  8.1857726861953083e+01  8.1973716231163792e+01  8.2047936872528453e+01  8.2062383533317615e+01  8.2008494694929539e+01  8.2022932354931029e+01  8.1962692369716123e+01  8.0601797887692797e+01  8.0199755116917331e+01  7.9589280785443734e+01  7.9079543535878400e+01  7.8525520668714606e+01  7.7882241193767015e+01  7.6748023957315056e+01  7.6160222438051534e+01  7.5443363558026405e+01  7.4240937850984025e+01  7.3368768026827141e+01  7.2159181193274719e+01  7.1086073142794518e+01  6.9730668727231034e+01  7.1156758557390901e+01  7.2829984873403404e+01  6.8311466921067264e+01  6.5646645162672428e+01  8.0895187500918297e+01  8.1432476350431600e+01  8.1496855902174616e+01  8.1774412488021127e+01  8.1847650998562386e+01  8.1991883507961646e+01  8.1945513433070914e+01  8.1883574563874262e+01  8.1951963026525902e+01  8.1707516688343020e+01  8.1755588556455123e+01  8.1665235523629093e+01  8.1708292545333421e+01  8.1548473307576444e+01  8.0337917970896484e+01  7.9806522627655596e+01  7.9029190220632785e+01  7.8349079760795590e+01  7.7428450594401596e+01  7.6377326567205571e+01  7.5728391343389632e+01  7.4894751406878811e+01  7.4302571437906366e+01  7.3141759218273350e+01  7.1995800227658421e+01  7.2999222829657867e+01  7.0690974310653317e+01  7.1395835135015929e+01  6.9644036368879867e+01  6.8121860957229046e+01  6.6645457792918521e+01  6.8233642420838649e+01  6.3308259956379992e+01  6.4971835799052485e+01  6.3501700569855785e+01  8.1109829821628580e+01  8.0732486497315136e+01  8.0575349882968808e+01  8.0057386232846994e+01  7.9448581714612232e+01  7.8972170617203489e+01  7.8277502328181498e+01  7.7652549324407019e+01  7.6494202847372719e+01  7.5390885969839886e+01  7.4528696324059638e+01  7.3311554929921556e+01  7.2060350780617810e+01  7.1105945606366021e+01  7.0454598881339066e+01  6.9142116921163876e+01  6.7511059829630128e+01  6.5839095491503301e+01  6.4821495082513039e+01  6.3661755577449391e+01  6.0851218184975231e+01  5.9951440921413521e+01  6.0750119911952233e+01  8.1619500328878487e+01  8.1443627315603152e+01  8.1260024073397162e+01  8.1664034232216210e+01  8.1875382035156704e+01  8.1851455987471539e+01  8.1804961474775496e+01  8.1665489620108829e+01  8.1756452395788912e+01  8.1449056040489651e+01  8.1041943127236848e+01  8.1357546997958025e+01  8.1118207180444386e+01  8.0899342328144115e+01  8.0815941345420327e+01  8.0626485404149449e+01  8.0933963305398265e+01  8.0485896043220563e+01  8.0045867874208867e+01  7.9691357705076896e+01  7.9361750761692235e+01  7.8874293253465339e+01  7.8391713838720264e+01  7.7844355729861590e+01  7.7231802612802710e+01  7.6657206106081034e+01  7.5690621833089580e+01  7.4489032677617629e+01  7.3755331250860436e+01  7.2702172793898882e+01  7.1620255493038385e+01  7.0569027483818161e+01  6.9795258641226994e+01  6.8797475309472091e+01  5.7367261026472924e+01  5.6591233835561908e+01  5.7348182561728080e+01  8.1205778472259041e+01  8.1500466600773308e+01  8.1583226258166178e+01  8.1796097718249811e+01  8.1743717067811275e+01  8.1578876981946209e+01  8.1244909108524183e+01  8.1428497862812094e+01  8.1054145404098179e+01  8.0539765773904918e+01  8.0090930570281628e+01  8.0629312891325739e+01  7.9846270882175972e+01  7.9904892653140010e+01  7.9078451207000512e+01  8.0937765390944378e+01  8.0710244061896120e+01  8.0271674272401896e+01  7.9783611418525908e+01  7.9358170383257061e+01  7.8598720068638684e+01  7.8006448133352237e+01  7.7392500222839345e+01  7.6777791262254127e+01  7.6447246218975138e+01  7.5835253532090832e+01  7.5295985744499887e+01  7.4767144675082761e+01  7.3998656449993931e+01  7.2905675768901233e+01  7.2123956032206110e+01  7.1164859055466422e+01  7.3524917469187770e+01  5.3405128382466572e+01  5.3456140900683017e+01  5.3497725541803717e+01  8.1268215947744821e+01  8.1019594734919423e+01  8.1681263876059688e+01  8.1630343171143025e+01  8.1533246487247027e+01  8.1324352288804931e+01  8.0886526543539418e+01  8