<?xml version="1.0"?>
<VTKFile type="UnstructuredGrid"  version="0.1"  >
<UnstructuredGrid>
<Piece  NumberOfPoints="8369" NumberOfCells="15952">
<Points>
<DataArray  type="Float64"  NumberOfComponents="3"  format="ascii">3 0.3207336731613248 0  2.829563040797541 0.3182521631901648 0  3 0.5085110656648704 0  2.655821106513804 0.3116422130276078 0  2.835061318114777 0.5051839543443308 0  3 0.6897344810094523 0  2.477003082583512 0.3026707767780156 0  2.664647711840426 0.4969715677606382 0  2.842448462936374 0.6848969258727482 0  3 0.8601728169611075 0  2.292893218813282 0.2928932188132819 0  2.486940241264027 0.4869402412640268 0  2.674832775912863 0.6748327759128629 0  2.852474570368216 0.8524745703682164 0  3 1 0  2.302670776778016 0.4770030825835117 0  2.496971567760638 0.6646477118404255 0  2.684896925872748 0.8424484629363741 0  2.860172816961108 1 0  3 1.139827183038892 0  3.147525429631784 1.147525429631784 0  3.139827183038892 1 0  2.311642213027608 0.655821106513804 0  2.505183954344331 0.8350613181147769 0  2.689734481009452 1 0  2.852474570368216 1.147525429631784 0  3 1.310265518990548 0  3.157551537063626 1.315103074127252 0  3.325167224087137 1.325167224087137 0  3.315103074127252 1.157551537063626 0  3.310265518990548 1 0  2.318252163190165 0.8295630407975412 0  2.50851106566487 1 0  2.684896925872748 1.157551537063626 0  2.842448462936374 1.315103074127252 0  3 1.49148893433513 0  3.164938681885223 1.494816045655669 0  3.335352288159574 1.503028432239362 0  3.513059758735973 1.513059758735973 0  3.503028432239362 1.335352288159575 0  3.494816045655669 1.164938681885223 0  3.49148893433513 1 0  2.320733673161325 1 0  2.505183954344331 1.164938681885223 0  2.674832775912863 1.325167224087137 0  2.835061318114777 1.494816045655669 0  3 1.679266326838675 0  3.170436959202459 1.681747836809835 0  3.344178893486196 1.688357786972392 0  3.522996917416489 1.697329223221984 0  3.707106781186718 1.707106781186718 0  3.697329223221984 1.522996917416488 0  3.688357786972392 1.344178893486196 0  3.681747836809835 1.170436959202459 0  3.679266326838675 1 0  2.318252163190165 1.170436959202459 0  2.496971567760638 1.335352288159575 0  2.664647711840426 1.503028432239362 0  2.829563040797541 1.681747836809835 0  2.311642213027608 1.344178893486196 0  2.486940241264027 1.513059758735973 0  2.655821106513804 1.688357786972392 0  2.302670776778016 1.522996917416488 0  2.477003082583511 1.697329223221984 0  2.292893218813282 1.707106781186718 0  2 4.679266326838675 0  1.829563040797541 4.681747836809835 0  2 4.49148893433513 0  1.655821106513804 4.688357786972392 0  1.835061318114777 4.494816045655669 0  2 4.310265518990548 0  1.477003082583512 4.697329223221985 0  1.664647711840425 4.503028432239362 0  1.842448462936374 4.315103074127252 0  2 4.139827183038893 0  1.292893218813282 4.707106781186718 0  1.486940241264027 4.513059758735973 0  1.674832775912863 4.325167224087137 0  1.852474570368216 4.147525429631783 0  2 4 0  1.302670776778016 4.522996917416489 0  1.496971567760638 4.335352288159575 0  1.684896925872748 4.157551537063626 0  1.860172816961108 4 0  2 3.860172816961108 0  2.147525429631784 3.852474570368216 0  2.139827183038892 4 0  1.311642213027608 4.344178893486196 0  1.505183954344331 4.164938681885223 0  1.689734481009452 4 0  1.852474570368216 3.852474570368216 0  2 3.689734481009452 0  2.157551537063626 3.684896925872748 0  2.325167224087137 3.674832775912863 0  2.315103074127252 3.842448462936374 0  2.310265518990548 4 0  1.318252163190165 4.170436959202459 0  1.50851106566487 4 0  1.684896925872748 3.842448462936374 0  1.842448462936374 3.684896925872748 0  2 3.50851106566487 0  2.164938681885223 3.505183954344331 0  2.335352288159574 3.496971567760638 0  2.513059758735973 3.486940241264027 0  2.503028432239362 3.664647711840426 0  2.494816045655669 3.835061318114777 0  2.49148893433513 4 0  1.320733673161325 4 0  1.505183954344331 3.835061318114777 0  1.674832775912863 3.674832775912863 0  1.835061318114777 3.505183954344331 0  2 3.320733673161325 0  2.170436959202459 3.318252163190165 0  2.344178893486196 3.311642213027608 0  2.522996917416489 3.302670776778016 0  2.707106781186718 3.292893218813282 0  2.697329223221984 3.477003082583511 0  2.688357786972392 3.655821106513804 0  2.681747836809835 3.829563040797541 0  2.679266326838675 4 0  1.318252163190165 3.829563040797541 0  1.496971567760638 3.664647711840426 0  1.664647711840425 3.496971567760638 0  1.829563040797541 3.318252163190165 0  1.311642213027608 3.655821106513804 0  1.486940241264027 3.486940241264027 0  1.655821106513804 3.311642213027608 0  1.302670776778016 3.477003082583511 0  1.477003082583512 3.302670776778016 0  1.292893218813282 3.292893218813282 0  -6 5.679266326838675 0  -5.829563040797542 5.681747836809835 0  -6 5.49148893433513 0  -5.655821106513804 5.688357786972392 0  -5.835061318114777 5.494816045655669 0  -6 5.310265518990548 0  -5.477003082583511 5.697329223221985 0  -5.664647711840425 5.503028432239362 0  -5.842448462936374 5.315103074127252 0  -6 5.139827183038893 0  -5.292893218813282 5.707106781186718 0  -5.486940241264027 5.513059758735973 0  -5.674832775912863 5.325167224087137 0  -5.852474570368217 5.147525429631783 0  -6 5 0  -5.302670776778015 5.522996917416489 0  -5.496971567760638 5.335352288159575 0  -5.684896925872748 5.157551537063626 0  -5.860172816961107 5 0  -6 4.860172816961107 0  -6.147525429631783 4.852474570368217 0  -6.139827183038893 5 0  -5.311642213027608 5.344178893486196 0  -5.505183954344331 5.164938681885223 0  -5.689734481009452 5 0  -5.852474570368217 4.852474570368217 0  -6 4.689734481009452 0  -6.157551537063626 4.684896925872748 0  -6.325167224087137 4.674832775912863 0  -6.315103074127252 4.842448462936374 0  -6.310265518990548 5 0  -5.318252163190165 5.170436959202459 0  -5.50851106566487 5 0  -5.684896925872748 4.842448462936374 0  -5.842448462936374 4.684896925872748 0  -6 4.50851106566487 0  -6.164938681885223 4.505183954344331 0  -6.335352288159575 4.496971567760638 0  -6.513059758735973 4.486940241264027 0  -6.503028432239362 4.664647711840425 0  -6.494816045655669 4.835061318114777 0  -6.49148893433513 5 0  -5.320733673161325 5 0  -5.505183954344331 4.835061318114777 0  -5.674832775912863 4.674832775912863 0  -5.835061318114777 4.505183954344331 0  -6 4.320733673161325 0  -6.170436959202458 4.318252163190165 0  -6.344178893486196 4.311642213027608 0  -6.522996917416489 4.302670776778015 0  -6.707106781186718 4.292893218813282 0  -6.697329223221985 4.477003082583511 0  -6.688357786972392 4.655821106513804 0  -6.681747836809835 4.829563040797541 0  -6.679266326838675 5 0  -5.318252163190165 4.829563040797542 0  -5.496971567760638 4.664647711840425 0  -5.664647711840425 4.496971567760638 0  -5.829563040797542 4.318252163190165 0  -5.311642213027608 4.655821106513804 0  -5.486940241264027 4.486940241264027 0  -5.655821106513804 4.311642213027608 0  -5.302670776778015 4.477003082583511 0  -5.477003082583511 4.302670776778015 0  -5.292893218813282 4.292893218813282 0  -5 2.320733673161325 0  -4.829563040797542 2.318252163190165 0  -5 2.50851106566487 0  -4.655821106513804 2.311642213027608 0  -4.835061318114777 2.505183954344331 0  -5 2.689734481009452 0  -4.477003082583511 2.302670776778016 0  -4.664647711840425 2.496971567760638 0  -4.842448462936374 2.684896925872748 0  -5 2.860172816961108 0  -4.292893218813282 2.292893218813282 0  -4.486940241264027 2.486940241264027 0  -4.674832775912863 2.674832775912863 0  -4.852474570368217 2.852474570368216 0  -5 3 0  -4.302670776778015 2.477003082583511 0  -4.496971567760638 2.664647711840426 0  -4.684896925872748 2.842448462936374 0  -4.860172816961107 3 0  -5 3.139827183038892 0  -5.147525429631783 3.147525429631784 0  -5.139827183038893 3 0  -4.311642213027608 2.655821106513804 0  -4.505183954344331 2.835061318114777 0  -4.689734481009452 3 0  -4.852474570368217 3.147525429631784 0  -5 3.310265518990548 0  -5.157551537063626 3.315103074127252 0  -5.325167224087137 3.325167224087137 0  -5.315103074127252 3.157551537063626 0  -5.310265518990548 3 0  -4.318252163190165 2.829563040797541 0  -4.50851106566487 3 0  -4.684896925872748 3.157551537063626 0  -4.842448462936374 3.315103074127252 0  -5 3.49148893433513 0  -5.164938681885223 3.494816045655669 0  -5.335352288159575 3.503028432239362 0  -5.513059758735973 3.513059758735973 0  -5.503028432239362 3.335352288159574 0  -5.494816045655669 3.164938681885223 0  -5.49148893433513 3 0  -4.320733673161325 3 0  -4.505183954344331 3.164938681885223 0  -4.674832775912863 3.325167224087137 0  -4.835061318114777 3.494816045655669 0  -5 3.679266326838675 0  -5.170436959202458 3.681747836809835 0  -5.344178893486196 3.688357786972392 0  -5.522996917416489 3.697329223221984 0  -5.707106781186718 3.707106781186718 0  -5.697329223221985 3.522996917416489 0  -5.688357786972392 3.344178893486196 0  -5.681747836809835 3.170436959202459 0  -5.679266326838675 3 0  -4.318252163190165 3.170436959202459 0  -4.496971567760638 3.335352288159574 0  -4.664647711840425 3.503028432239362 0  -4.829563040797542 3.681747836809835 0  -4.311642213027608 3.344178893486196 0  -4.486940241264027 3.513059758735973 0  -4.655821106513804 3.688357786972392 0  -4.302670776778015 3.522996917416489 0  -4.477003082583511 3.697329223221984 0  -4.292893218813282 3.707106781186718 0  5 1 0  5 1.1875 0  4.834908290854834 1 0  4.777127948738723 1.195499924639372 0  4.839086815232164 1.346682114508668 0  5 1.375 0  4.669816581709669 1 0  4.632764363488562 1.365485527798476 0  4.794926146457388 1.50398688558759 0  5 1.5625 0  4.642258798879609 1.142328639834177 0  4.504724872564504 1 0  4.500247074421719 1.171475564681439 0  4.339633163419338 1 0  4.498775742703332 1.356177489340095 0  4.497705853685118 1.490484769177636 0  4.645521174961488 1.514732206813389 0  4.689691594422786 1.689472084520371 0  4.856231811549666 1.66136337359662 0  5 1.75 0  4.25035262013317 1.188684954713487 0  4.364655839949951 1.363349780835463 0  4.3635859
[...]
<PointData  Scalars="u"> 
<DataArray  type="Float64"  Name="u"  format="ascii">5.3465013238663921e+01  5.7368059490785122e+01  5.3554577310694462e+01  6.0760882066474998e+01  5.8584587846322755e+01  5.3611243340125192e+01  6.3504991346889206e+01  6.2626583224172045e+01  6.0788994186558455e+01  5.3871558475585182e+01  6.5650049210278112e+01  6.5462679819880890e+01  6.5336971076433713e+01  6.5602368675324314e+01  5.8418772747186672e+01  6.7483268859653336e+01  6.7956369036131903e+01  6.9314590649370473e+01  7.3834945292306060e+01  7.3409715691145209e+01  6.4861439528083238e+01  5.3459842550768577e+01  6.9601815694415876e+01  7.0946757129291413e+01  7.3618271919115827e+01  7.6090454968109100e+01  7.2657506800973636e+01  6.7871933324386831e+01  6.3417432629688228e+01  5.9398011105739442e+01  5.2716425192485559e+01  7.1865362156643727e+01  7.3754447109288648e+01  7.5911912192332110e+01  7.5417592519250576e+01  7.2203480626791276e+01  6.8889860201800175e+01  6.5381217518338829e+01  6.2381861531767996e+01  6.0157018706963854e+01  5.6658794652568368e+01  5.2169800582666177e+01  7.3991196426619439e+01  7.5668127836816339e+01  7.6249136715120272e+01  7.4602673595408106e+01  7.1804746746866954e+01  6.9148972006530258e+01  6.6352820977860361e+01  6.3706818819369111e+01  6.1362773783666661e+01  5.9901293936852227e+01  5.7786524453548047e+01  5.4971234792207511e+01  5.1597371025656550e+01  7.5579841400257706e+01  7.6473406270518382e+01  7.5934841025745058e+01  7.3925359695889128e+01  7.6575648833735841e+01  7.6628495466201045e+01  7.5460718514033616e+01  7.7073935653235367e+01  7.6511791310806814e+01  7.7254351070353081e+01  5.9287578500538849e+01  6.3067794388345220e+01  5.9436845365157083e+01  6.6326250065019522e+01  6.4326767973774267e+01  5.9562696162912296e+01  6.8927036488972448e+01  6.8210860391474952e+01  6.6581210448318373e+01  5.9900280701930697e+01  7.0924108881674385e+01  7.0877788239351958e+01  7.0947806349946333e+01  7.1457610419284038e+01  6.4522124494703576e+01  7.2720645287716621e+01  7.3366047624881418e+01  7.4957904437893092e+01  7.9754696964062504e+01  7.9599616280680578e+01  7.1254323577392370e+01  5.9728438811682956e+01  7.4800786060527884e+01  7.6355210641143628e+01  7.9295488196986284e+01  8.2065812316148865e+01  7.8972297681223708e+01  7.4431167144679932e+01  7.0205139249499183e+01  6.5991634982259185e+01  5.9158372109243153e+01  7.7023338317874973e+01  7.9157705488196214e+01  8.1616908242764353e+01  8.1463557583946283e+01  7.8679392300937195e+01  7.5662064296464976e+01  7.2413707780921612e+01  6.9627781238869517e+01  6.7135620352474092e+01  6.3422835180541817e+01  5.8757248706449950e+01  7.9103716971035993e+01  8.1061523674983533e+01  8.1982675398889540e+01  8.0749886934110307e+01  7.8487228624478590e+01  7.6181837338846918e+01  7.3687845668051551e+01  7.1280324370895585e+01  6.9094063449734648e+01  6.7296521507536767e+01  6.4903112019399174e+01  6.1856911239870769e+01  5.8290392018307600e+01  8.0633389133402559e+01  8.1846984671895157e+01  8.1706757220036636e+01  8.0204260964455500e+01  8.1558429880293104e+01  8.1981998970872382e+01  8.1289544400342507e+01  8.1972375643630102e+01  8.1843930095308977e+01  8.2057733072580902e+01  5.3659913117090071e+01  5.7746363560045189e+01  5.3625425199434794e+01  6.1329926635618619e+01  5.8850584809758651e+01  5.3537085631463455e+01  6.4268987171004142e+01  6.3102304121197861e+01  6.0923082513339438e+01  5.3633790732394928e+01  6.6607699635968430e+01  6.6155099193915191e+01  6.5700848547946734e+01  6.5581660165094149e+01  5.8022115967588114e+01  6.8393517441451138e+01  6.8564836146849743e+01  6.9550599730661460e+01  7.3654553289040777e+01  7.2827752127443105e+01  6.4041303036159960e+01  5.2862657849136873e+01  7.0455721993756569e+01  7.1456830297641744e+01  7.3715979630564362e+01  7.5745149079000811e+01  7.1805373113369484e+01  6.6752082913054892e+01  6.2040502144023463e+01  5.8332855623413728e+01  5.1897550783150606e+01  7.2654532652131081e+01  7.4157508068659681e+01  7.5858731192603955e+01  7.4850495014573156e+01  7.0996825634559499e+01  6.7385291366663807e+01  6.3612247650762328e+01  6.0391175828425752e+01  5.8553047650988951e+01  5.5372314672185546e+01  5.1145430013545329e+01  7.4706924992804531e+01  7.5949629166286030e+01  7.6009266834623190e+01  7.3729281649654055e+01  7.0136079266029896e+01  6.7162662489317000e+01  6.4102784437794313e+01  6.1250609766048150e+01  5.8758656493277840e+01  5.7735123565222793e+01  5.5995231415208721e+01  5.3497760020895008e+01  5.0393010740690571e+01  7.6216979019620510e+01  7.6611521395713638e+01  7.5445096092264478e+01  7.2640075699889010e+01  7.7119654562727362e+01  7.6576772615037058e+01  7.4627550546867766e+01  7.7501518686347097e+01  7.6204968000667449e+01  7.7522710645553119e+01  6.0481232557265024e+01  6.4279095390174660e+01  6.0627413815782859e+01  6.7547558748869946e+01  6.5434645517469136e+01  6.0751406932969459e+01  7.0147085033377749e+01  6.9300284359753064e+01  6.7485793457438930e+01  6.1050647027373742e+01  7.2133350602804754e+01  7.2003831309129183e+01  7.1831635621355119e+01  7.1781869573289569e+01  6.5016844552782231e+01  7.3897057996891846e+01  7.4367097810750053e+01  7.5495523159537143e+01  7.8656701330564374e+01  7.8516217486550957e+01  7.1570681860193829e+01  6.0876891290837811e+01  7.5940080494044793e+01  7.7183625454369249e+01  7.9461111964763788e+01  8.1547891188670903e+01  7.9184682159339332e+01  7.5017759963051546e+01  7.1106021852880119e+01  6.6880415743154870e+01  6.0314459138976332e+01  7.8118089609899101e+01  7.9841630089555636e+01  8.1811174981214819e+01  8.1685070650121460e+01  7.9450863561697844e+01  7.6592000708032145e+01  7.3493484700280561e+01  7.0746595701020212e+01  6.8162157387016194e+01  6.4438119465951843e+01  5.9841530270698676e+01  8.0141354896120774e+01  8.1710313210250291e+01  8.2452615600603494e+01  8.1457914285908345e+01  7.9647073883532684e+01  7.7434892833323374e+01  7.4981874841007027e+01  7.2533084011234067e+01  7.0185050230788988e+01  6.8335214875174046e+01  6.5905417483535814e+01  6.2833022004990134e+01  5.9251048081859160e+01  8.1601610537859983e+01  8.2542312740305007e+01  8.2423379611386039e+01  8.1240174517642401e+01  8.2434440484299429e+01  8.2729175533530551e+01  8.2182080233907314e+01  8.2726134693528152e+01  8.2584883963639399e+01  8.2651674696696347e+01  4.8491091135983154e+01  4.9524670430367621e+01  4.8833988043132351e+01  5.0217234362436514e+01  5.0908934917350265e+01  5.0492568926785523e+01  4.9190291006151945e+01  5.1822306753127080e+01  5.1935167919163824e+01  5.1373032768617819e+01  5.0276497800475937e+01  4.9564846720218263e+01  5.0949707706656419e+01  4.9952673824947468e+01  5.2345123001749499e+01  5.3271346510851480e+01  5.2677161475618533e+01  5.3369990474172226e+01  5.2422691039698066e+01  5.2134890088497272e+01  5.2051280727255140e+01  5.3048902339343563e+01  5.4063506975449229e+01  5.4851039279340029e+01  5.5022407176510477e+01  5.4218555894457978e+01  5.3485122191733659e+01  5.2773462207664750e+01  5.0345496384701008e+01  5.4069687504884790e+01  5.4261149287592993e+01  5.2514634098794794e+01  5.0765760185048642e+01  5.3992485021046342e+01  5.5322557852394723e+01  5.6632123386414570e+01  5.6391760146255763e+01  5.6788578145821013e+01  5.4953405701878019e+01  5.3564952404011564e+01  5.3272760915343682e+01  5.5979448384727171e+01  5.7632322904681168e+01  5.8300243386668626e+01  5.7901239117275360e+01  5.8018456881713746e+01  5.8170216191124020e+01  5.6284324228579649e+01  5.5235591645494374e+01  5.4295137382049596e+01  5.4000691523601574e+01  5.3631904003420452e+01  5.3973865282167772e+01  5.1177607591221658e+01  5.6888318939286769e+01  6.0073356447326979e+01  5.9023216035345513e+01  5.9908951167773608e+01  5.7773000188705986e+01  5.4946858632627865e+01  5.1647160730612782e+01  5.9479881838885781e+01  5.9306387106888920e+01  5.9387028806708614e+01  5.8840460198456860e+01  5.7298974445624999e+01  5.5874075129378681e+01  5.4654034476734033e+01  5.4258912224703153e+01  5.3855288071751978e+01  6.1362039688486320e+01  6.2011927889753281e+01  6.1303211783844127e+01  6.1062864462215323e+01  6.0188962220381136e+01  5.9619379923463939e+01  5.7851047839108752e+01  5.6105409948561075e+01  5.5297723239907320e+01  5.4968441054617941e+01  5.3947515982735034e+01  6.3678539711184690e+01  6.3703763165955067e+01  6.3848073151097857e+01  6.2726153764141280e+01  6.1771267704344396e+01  6.0854782532034228e+01  5.9442240340511162e+01  5.8165280332944036e+01  5.6881121762717939e+01  5.5743179337064383e+01  5.5322961374931580e+01  5.4538362563717193e+01  5.3914598862480993e+01  6.5455978588260436e+01  6.6241774040662747e+01  6.5706963326331106e+01  6.5348371249598188e+01  6.3871710446133278e+01  6.2303148074576036e+01  6.1075094636565353e+01  5.9734524658792260e+01  5.8313514926264176e+01  5.6810013445873324e+01  5.5898496862183819e+01  5.4927410480055698e+01  5.3768310472764277e+01  6.6356988523341215e+01  6.7461383323817671e+01  6.8596435590220267e+01  6.7473254512809973e+01  6.6805467853716578e+01  6.6552944623075135e+01  6.4615645400371136e+01  6.2886426965971609e+01  6.1840736590298448e+01  6.0545811446134572e+01  5.8717493259638637e+01  5.7725486445614010e+01  5.6700424005779610e+01  5.5296393398820591e+01  5.5882478933894994e+01  5.4412663828710102e+01  5.3518878014316549e+01  6.9166119641737268e+01  6.9441369885203940e+01  7.0969524402383513e+01  6.9873170113439755e+01  6.9620438061717735e+01  6.8678799850849614e+01  6.7756164105489717e+01  6.6831060050271660e+01  6.4718011219887785e+01  6.3247312393429176e+01  6.1747938505795254e+01  6.0226756843117890e+01  5.8643728149105662e+01  5.7468085562554819e+01  5.6087956704883602e+01  5.5772544562604359e+01  5.5035490665917393e+01  5.4170611046792509e+01  5.3177463041051617e+01  7.1783142943295289e+01  7.3144555750010142e+01  7.1513922201955054e+01  7.2054145472867532e+01  7.0498533879217817e+01  6.9305344649096966e+01  6.8965370556837044e+01  6.6978682715069965e+01  6.5505799502711582e+01  6.4286706933135974e+01  6.2757637128797512e+01  6.0932609679460775e+01  5.9790058235387029e+01  5.8834077095255978e+01  5.7285050108835478e+01  5.6201403251844020e+01  5.5356568397345953e+01  5.4518717431736832e+01  5.3623617625631027e+01  5.2759695249153467e+01  7.2667407118616566e+01  7.3925360004183560e+01  7.4274724949844838e+01  7.5451575458766570e+01  7.4322414587239635e+01  7.3071744331083266e+01  7.3599716520758662e+01  7.3470306986310135e+01  7.1013278037675590e+01  7.1715263972065003e+01  7.0801927819125993e+01  6.9226748391178717e+01  6.7666726467827417e+01  6.5737654657715851e+01  6.4985217985291740e+01  6.3116505810936665e+01  6.1356680486555966e+01  5.9866060306279500e+01  5.8522575030388055e+01  5.7422107766234376e+01  5.7402156571235366e+01  5.6371717571687519e+01  5.5362032885175822e+01  5.4633881508363061e+01  5.3764210950993579e+01  5.3002067300460496e+01  5.2274129906818779e+01  7.5319175445494025e+01  7.4981082040753265e+01  7.5316708570845734e+01  7.5202116170385523e+01  7.3172238098508544e+01  7.2212199949124283e+01  7.1414536400719868e+01  6.9684866377264782e+01  6.8344084355961883e+01  6.6550440123028210e+01  6.4061863334120915e+01  6.2515127222117528e+01  6.0220795054778250e+01  5.9138004848436054e+01  5.7801807025976494e+01  5.6746343777047024e+01  5.6188927409948491e+01  5.5539610372776387e+01  5.4591675663903743e+01  5.4363230773875529e+01  5.3790152530673616e+01  5.2549201067010792e+01  5.2138526508618341e+01  5.1733150216997664e+01  7.6503729293451840e+01  7.6727351931371942e+01  7.6251634507237625e+01  7.6665512196991529e+01  7.6649476721160568e+01  7.6346909779925141e+01  7.4942679587436018e+01  7.3149772828890463e+01  7.2171572035313332e+01  7.0079791234691484e+01  6.8248154493411832e+01  6.6003847172375686e+01  6.3536982237685287e+01  6.1503834623132036e+01  5.9583783245034752e+01  5.7503624378791621e+01  5.6021941581951047e+01  5.5596398213935053e+01  5.5157049086240193e+01  5.5709029695455307e+01  5.5248364713298798e+01  5.4279050452594632e+01  5.3839089510716200e+01  5.3404414593104192e+01  5.2974520482333183e+01  7.7259534224679399e+01  7.7315824377638450e+01  7.7522806379348921e+01  7.7493516668145531e+01  7.7837646646528668e+01  7.8055316634948596e+01  7.6304467301092558e+01  7.4642639121809168e+01  7.3212190669854422e+01  7.0980965697304754e+01  6.9092070132410271e+01  6.6363447378196128e+01  6.4705191175198934e+01  6.2650712076536898e+01  6.0747266715250589e+01  5.8291125146220786e+01  5.6445061204342480e+01  7.7467113107825952e+01  7.7787191485258489e+01  7.7585875874438926e+01  7.7067354832650196e+01  5.4716524214056058e+01  7.8083487012959267e+01  7.8187985337926861e+01  7.7922834849038210e+01  7.7386659849770425e+01  7.7024237460456263e+01  7.6569342004476525e+01  7.8071442076117705e+01  7.8153819985528941e+01  7.8813968534177718e+01  7.8701665623866930e+01  7.9317255006443915e+01  7.8948745278843717e+01  7.8658825494197004e+01  7.7420069661286135e+01  7.6196074494389791e+01  7.6000381528086990e+01  7.4205319488750916e+01  7.1284816532573686e+01  6.7296607555431336e+01  6.4260614328855098e+01  6.1112965277767991e+01  5.9630164360939460e+01  5.6847730915947331e+01  7.8792036922351144e+01  7.8543331768565466e+01  7.8933741680037599e+01  7.8138647256418153e+01  7.7679072124564115e+01  7.6543222555910688e+01  7.6368211308632070e+01  7.5579447108939675e+01  7.8791411525449092e+01  7.9371781057185444e+01  7.9690212688951377e+01  8.0120693529710238e+01  8.0103647146273318e+01  7.9941914112041374e+01  7.9630328326187012e+01  7.9250987801591606e+01  7.7507987655504593e+01  7.7539441965670363e+01  7.9508845501668361e+01  7.5716103620148004e+01  7.3694222443402552e+01  6.4893960888726170e+01  6.1680520763326697e+01  5.9565130802638365e+01  5.7243830625275436e+01  7.9258588290555309e+01  7.9691610962313987e+01  7.9417310776511414e+01  7.9057710645439116e+01  7.8506611792228668e+01  7.7983863875123134e+01  7.7380051524801303e+01  7.6702831048345786e+01  7.5856001082308211e+01  7.5467906313475225e+01  7.4867958603628693e+01  7.5372920396749109e+01  7.3966027380951616e+01  8.0218982835930134e+01  8.0257728792990562e+01  8.0780991519337491e+01  8.1029881379532171e+01  8.0694307947254273e+01  8.0965464641670238e+01  8.0547865580581743e+01  8.0433245877706014e+01  8.0206944280215495e+01  7.8475968002302182e+01  7.6190720051073484e+01  6.1832008626947349e+01  5.7996698793576215e+01  5.7626906928182287e+01  7.9860862554656507e+01  8.0124474918730513e+01  8.0675376351538844e+01  8.1073684518605617e+01  8.1446026023213733e+01  8.1303306963031304e+01  8.1655117301147627e+01  8.1420818163651589e+01  8.1287370148783182e+01  7.9609527033050782e+01  7.9515555904889780e+01  7.8990262385790174e+01  7.8195680128881619e+01  7.7454922051069687e+01  7.6591554180982385e+01  7.5549785827490354e+01  7.5026979854028880e+01  7.4552578610197457e+01  7.3014948315906608e+01  7.4133605357132282e+01  7.1880748690699946e+01  5.8338111433986704e+01  8.0141762133395233e+01  8.0492771786940523e+01  8.0911473311581787e+01  8.1290055108872878e+01  8.1591786434387075e+01  8.1742716662444295e+01  8.2008491309744386e+01  8.2053089562186514e+01  8.1868153480178592e+01  8.1838040423271607e+01  7.9972138691951372e+01  7.9372183876733615e+01  7.8626932708030466e+01  7.8065758031016529e+01  7.7252015136759084e+01  7.6372978180618944e+01  7.4964654967569459e+01  7.4268238514342841e+01  7.3718470106878215e+01  7.2878526229569644e+01  7.1227601463689652e+01  6.9605868259584980e+01  8.0459574567663239e+01  8.0478069718840061e+01  7.9794205623630432e+01  7.9010160444514284e+01  7.8465695925214249e+01  7.7912925002132766e+01  7.7213836148717959e+01  7.6654891312273151e+01  7.5884918145373902e+01  7.5041402779294472e+01  7.3930148170544712e+01  7.3894927965173139e+01  7.2477530976125948e+01  7.1514155559352020e+01  7.0305361402056434e+01  6.7487566020390503e+01  8.0874191745866369e+01  8.1290296843377320e+01  8.1603192832953781e+01  8.1870503968058742e+01  8.2017337182869312e+01  8.2108684426726455e+01  8.2120540275406668e+01  8.2058541555413385e+01  8.0916469584117678e+01  8.1307906891589425e+01  8.1705641210595090e+01  8.1861003623601547e+01  8.1976324746524810e+01  8.2052314748384092e+01  8.2068282471679368e+01  8.2011952616141841e+01  8.2026922518754375e+01  8.1968677914314142e+01  8.0603683031900715e+01  8.0203326670808579e+01  7.9591291021267793e+01  7.9081288206814548e+01  7.8527972273266272e+01  7.7884981269959539e+01  7.6750492751549501e+01  7.6162891417653213e+01  7.5447432625227691e+01  7.4242400611351826e+01  7.3372093075583493e+01  7.2164211990095723e+01  7.1090364611433742e+01  6.9730253552743150e+01  7.1157367427611590e+01  7.2830054182538404e+01  6.8312526506962854e+01  6.5652267524454075e+01  8.0899633359552155e+01  8.1434578570422573e+01  8.1499275359356076e+01  8.1777541168744918e+01  8.1850969933091775e+01  8.1995074827900311e+01  8.1947751322772589e+01  8.1886688001674841e+01  8.1955653353875633e+01  8.1712627643716090e+01  8.1759334792592441e+01  8.1674301503550922e+01  8.1715040097725861e+01  8.1557408388270815e+01  8.0340615354071545e+01  7.9808875877201501e+01  7.9032018987836281e+01  7.8352056663232716e+01  7.7431493956346586e+01  7.6379210853724928e+01  7.5730453162707420e+01  7.4896237246700963e+01  7.4305768572497456e+01  7.3143145192399160e+01  7.1996378904569994e+01  7.3002223924458022e+01  7.0690428064543156e+01  7.1397051439676048e+01  6.9645061163423620e+01  6.8123153476606987e+01  6.6645589356655933e+01  6.8236202863959790e+01  6.3317881191426082e+01  6.4976859581270929e+01  6.3501904880459250e+01  8.1112686909596775e+01  8.0734959688891507e+01  8.0578107804918716e+01  8.0059620654441332e+01  7.9450866905412539e+01  7.8974134399368324e+01  7.8280011343890919e+01  7.7654205344303989e+01  7.6496796172987203e+01  7.5393963400116775e+01  7.4531042931631262e+01  7.3313788615766143e+01  7.2063081118594852e+01  7.1107662405210419e+01  7.0457929633757061e+01  6.9146828014073208e+01  6.7516081667552371e+01  6.5840846957917279e+01  6.4821452919521619e+01  6.3664132070599599e+01  6.0854481070002514e+01  5.9961898140284184e+01  6.0747793900676008e+01  8.1621256938431756e+01  8.1445773174601982e+01  8.1261681302797356e+01  8.1666649220808367e+01  8.1877938722012701e+01  8.1853987363487889e+01  8.1807030161895966e+01  8.1668367643254953e+01  8.1759153610326138e+01  8.1450839077426849e+01  8.1046924607664280e+01  8.1358866133893983e+01  8.1120016031326216e+01  8.0905764935744216e+01  8.0822322396360789e+01  8.0635911807921815e+01  8.0936300280851739e+01  8.0488969945963120e+01  8.0048570871713380e+01  7.9693218844090595e+01  7.9364188027446374e+01  7.8876140596871622e+01  7.8393080800375586e+01  7.7845626410369036e+01  7.7234173863774629e+01  7.6659200114067531e+01  7.5692892309054400e+01  7.4490905500026159e+01  7.3756468507824081e+01  7.2703855945591357e+01  7.1622821802315443e+01  7.0569999672624888e+01  6.9797088084485608e+01  6.8799462351257915e+01  5.7369671434919312e+01  5.6599074955253393e+01  5.7341510889996918e+01  8.1208134814760314e+01  8.1502238842411799e+01  8.1585866760879910e+01  8.1799256193496475e+01  8.1747077904669482e+01  8.1581728801816510e+01  8.1247891317799017e+01  8.1430040251958417e+01  8.1056332930104944e+01  8.0542088567171291e+01  8.0093241700885585e+01  8.0632649631871772e+01  7.9853311010203868e+01  7.9915163050049969e+01  7.9082843344278302e+01  8.0940073644640265e+01  8.0712319606893729e+01  8.0273596658332053e+01  7.9786233323225531e+01  7.9359947916931887e+01  7.8600532631299870e+01  7.8008265693767456e+01  7.7394427154394009e+01  7.6779624631376976e+01  7.6448965245885844e+01  7.5837225738333416e+01  7.5297539866436622e+01  7.4768285335006837e+01  7.3999705238845166e+01  7.2907352358978812e+01  7.2125473103326215e+01  7.1166025705894626e+01  7.3525508057380563e+01  5.3397643351975269e+01  5.3458866178616525e+01  5.3513788128165544e+01  8.1270643790050357e+01  8.1021852515737649e+01  8.1682837465516513e+01  8.1631983268675825e+01  8.1536072365222665e+01  8.1327302178086924e+01  8.0890387819398669e+01  8