<?xml version="1.0"?>
<VTKFile type="UnstructuredGrid"  version="0.1"  >
<UnstructuredGrid>
<Piece  NumberOfPoints="27483" NumberOfCells="53456">
<Points>
<DataArray  type="Float64"  NumberOfComponents="3"  format="ascii">3 0.3578783626580142 0  2.837980074580334 0.3519202983213376 0  3 0.562360081589721 0  2.668095006086507 0.3361900121730148 0  2.851377214834756 0.5541316445042701 0  3 0.7513957619668947 0  2.486405553557287 0.3152074047430488 0  2.689313205761768 0.5339698086426523 0  2.869719245232929 0.7394384904658591 0  3 0.9113080676370099 0  2.292893218813248 0.2928932188132478 0  2.509760203133004 0.509760203133004 0  2.714421710057237 0.7144217100572372 0  2.89402123560811 0.8940212356081096 0  3 1 0  2.315207404743049 0.4864055535572865 0  2.533969808642652 0.6893132057617682 0  2.739438490465859 0.8697192452329295 0  2.91130806763701 1 0  3 1.08869193236299 0  3.10597876439189 1.10597876439189 0  3.08869193236299 1 0  2.336190012173015 0.6680950060865074 0  2.55413164450427 0.8513772148347567 0  2.751395761966895 1 0  2.89402123560811 1.10597876439189 0  3 1.248604238033105 0  3.130280754767071 1.260561509534141 0  3.285578289942763 1.285578289942763 0  3.260561509534141 1.130280754767071 0  3.248604238033105 1 0  2.351920298321338 0.8379800745803344 0  2.562360081589721 1 0  2.739438490465859 1.130280754767071 0  2.869719245232929 1.260561509534141 0  3 1.437639918410279 0  3.148622785165244 1.44586835549573 0  3.310686794238232 1.466030191357348 0  3.490239796866996 1.490239796866996 0  3.466030191357348 1.310686794238232 0  3.44586835549573 1.148622785165243 0  3.437639918410279 1 0  2.357878362658014 1 0  2.55413164450427 1.148622785165243 0  2.714421710057237 1.285578289942763 0  2.851377214834756 1.44586835549573 0  3 1.642121637341986 0  3.162019925419666 1.648079701678662 0  3.331904993913493 1.663809987826985 0  3.513594446442713 1.684792595256951 0  3.707106781186752 1.707106781186752 0  3.684792595256951 1.513594446442713 0  3.663809987826985 1.331904993913493 0  3.648079701678662 1.162019925419666 0  3.642121637341986 1 0  2.351920298321338 1.162019925419666 0  2.533969808642652 1.310686794238232 0  2.689313205761768 1.466030191357348 0  2.837980074580334 1.648079701678662 0  2.336190012173015 1.331904993913493 0  2.509760203133004 1.490239796866996 0  2.668095006086507 1.663809987826985 0  2.315207404743049 1.513594446442713 0  2.486405553557287 1.684792595256951 0  2.292893218813248 1.707106781186752 0  2 4.642121637341986 0  1.837980074580335 4.648079701678663 0  2 4.437639918410279 0  1.668095006086507 4.663809987826985 0  1.851377214834757 4.44586835549573 0  2 4.248604238033105 0  1.486405553557287 4.684792595256951 0  1.689313205761768 4.466030191357348 0  1.869719245232929 4.260561509534141 0  2 4.08869193236299 0  1.292893218813248 4.707106781186752 0  1.509760203133004 4.490239796866996 0  1.714421710057237 4.285578289942762 0  1.89402123560811 4.105978764391891 0  2 4 0  1.315207404743049 4.513594446442713 0  1.533969808642652 4.310686794238232 0  1.739438490465859 4.13028075476707 0  1.91130806763701 4 0  2 3.91130806763701 0  2.10597876439189 3.89402123560811 0  2.08869193236299 4 0  1.336190012173015 4.331904993913493 0  1.55413164450427 4.148622785165244 0  1.751395761966895 4 0  1.89402123560811 3.89402123560811 0  2 3.751395761966895 0  2.130280754767071 3.739438490465859 0  2.285578289942763 3.714421710057237 0  2.260561509534141 3.869719245232929 0  2.248604238033105 4 0  1.351920298321338 4.162019925419665 0  1.562360081589721 4 0  1.739438490465859 3.869719245232929 0  1.869719245232929 3.739438490465859 0  2 3.562360081589721 0  2.148622785165244 3.55413164450427 0  2.310686794238232 3.533969808642652 0  2.490239796866996 3.509760203133004 0  2.466030191357348 3.689313205761768 0  2.44586835549573 3.851377214834756 0  2.437639918410279 4 0  1.357878362658014 4 0  1.55413164450427 3.851377214834756 0  1.714421710057237 3.714421710057237 0  1.851377214834757 3.55413164450427 0  2 3.357878362658014 0  2.162019925419666 3.351920298321338 0  2.331904993913493 3.336190012173015 0  2.513594446442713 3.315207404743049 0  2.707106781186752 3.292893218813248 0  2.684792595256951 3.486405553557287 0  2.663809987826985 3.668095006086507 0  2.648079701678662 3.837980074580334 0  2.642121637341986 4 0  1.351920298321338 3.837980074580334 0  1.533969808642652 3.689313205761768 0  1.689313205761768 3.533969808642652 0  1.837980074580334 3.351920298321338 0  1.336190012173015 3.668095006086507 0  1.509760203133004 3.509760203133004 0  1.668095006086507 3.336190012173015 0  1.315207404743049 3.486405553557287 0  1.486405553557287 3.315207404743049 0  1.292893218813248 3.292893218813248 0  -6 5.642121637341986 0  -5.837980074580335 5.648079701678663 0  -6 5.437639918410279 0  -5.668095006086507 5.663809987826985 0  -5.851377214834756 5.44586835549573 0  -6 5.248604238033105 0  -5.486405553557287 5.684792595256951 0  -5.689313205761768 5.466030191357348 0  -5.86971924523293 5.260561509534141 0  -6 5.08869193236299 0  -5.292893218813248 5.707106781186752 0  -5.509760203133004 5.490239796866996 0  -5.714421710057238 5.285578289942762 0  -5.894021235608109 5.105978764391891 0  -6 5 0  -5.315207404743049 5.513594446442713 0  -5.533969808642652 5.310686794238232 0  -5.739438490465859 5.13028075476707 0  -5.91130806763701 5 0  -6 4.91130806763701 0  -6.105978764391891 4.894021235608109 0  -6.08869193236299 5 0  -5.336190012173015 5.331904993913493 0  -5.55413164450427 5.148622785165244 0  -5.751395761966895 5 0  -5.894021235608109 4.894021235608109 0  -6 4.751395761966895 0  -6.13028075476707 4.739438490465859 0  -6.285578289942762 4.714421710057238 0  -6.260561509534141 4.86971924523293 0  -6.248604238033105 5 0  -5.351920298321337 5.162019925419665 0  -5.562360081589721 5 0  -5.739438490465859 4.86971924523293 0  -5.86971924523293 4.739438490465859 0  -6 4.562360081589721 0  -6.148622785165244 4.55413164450427 0  -6.310686794238232 4.533969808642652 0  -6.490239796866996 4.509760203133004 0  -6.466030191357348 4.689313205761768 0  -6.44586835549573 4.851377214834756 0  -6.437639918410279 5 0  -5.357878362658014 5 0  -5.55413164450427 4.851377214834756 0  -5.714421710057238 4.714421710057238 0  -5.851377214834756 4.55413164450427 0  -6 4.357878362658014 0  -6.162019925419665 4.351920298321337 0  -6.331904993913493 4.336190012173015 0  -6.513594446442713 4.315207404743049 0  -6.707106781186752 4.292893218813248 0  -6.684792595256951 4.486405553557287 0  -6.663809987826985 4.668095006086507 0  -6.648079701678663 4.837980074580335 0  -6.642121637341986 5 0  -5.351920298321337 4.837980074580335 0  -5.533969808642652 4.689313205761768 0  -5.689313205761768 4.533969808642652 0  -5.837980074580335 4.351920298321337 0  -5.336190012173015 4.668095006086507 0  -5.509760203133004 4.509760203133004 0  -5.668095006086507 4.336190012173015 0  -5.315207404743049 4.486405553557287 0  -5.486405553557287 4.315207404743049 0  -5.292893218813248 4.292893218813248 0  -5 2.357878362658014 0  -4.837980074580335 2.351920298321338 0  -5 2.562360081589721 0  -4.668095006086507 2.336190012173015 0  -4.851377214834756 2.55413164450427 0  -5 2.751395761966895 0  -4.486405553557287 2.315207404743049 0  -4.689313205761768 2.533969808642652 0  -4.86971924523293 2.739438490465859 0  -5 2.91130806763701 0  -4.292893218813248 2.292893218813248 0  -4.509760203133004 2.509760203133004 0  -4.714421710057238 2.714421710057237 0  -4.894021235608109 2.89402123560811 0  -5 3 0  -4.315207404743049 2.486405553557287 0  -4.533969808642652 2.689313205761768 0  -4.739438490465859 2.869719245232929 0  -4.91130806763701 3 0  -5 3.08869193236299 0  -5.105978764391891 3.10597876439189 0  -5.08869193236299 3 0  -4.336190012173015 2.668095006086507 0  -4.55413164450427 2.851377214834756 0  -4.751395761966895 3 0  -4.894021235608109 3.10597876439189 0  -5 3.248604238033105 0  -5.13028075476707 3.260561509534141 0  -5.285578289942762 3.285578289942763 0  -5.260561509534141 3.130280754767071 0  -5.248604238033105 3 0  -4.351920298321337 2.837980074580334 0  -4.562360081589721 3 0  -4.739438490465859 3.130280754767071 0  -4.86971924523293 3.260561509534141 0  -5 3.437639918410279 0  -5.148622785165244 3.44586835549573 0  -5.310686794238232 3.466030191357348 0  -5.490239796866996 3.490239796866996 0  -5.466030191357348 3.310686794238232 0  -5.44586835549573 3.148622785165244 0  -5.437639918410279 3 0  -4.357878362658014 3 0  -4.55413164450427 3.148622785165244 0  -4.714421710057238 3.285578289942763 0  -4.851377214834756 3.44586835549573 0  -5 3.642121637341986 0  -5.162019925419665 3.648079701678662 0  -5.331904993913493 3.663809987826985 0  -5.513594446442713 3.684792595256951 0  -5.707106781186752 3.707106781186752 0  -5.684792595256951 3.513594446442713 0  -5.663809987826985 3.331904993913493 0  -5.648079701678663 3.162019925419666 0  -5.642121637341986 3 0  -4.351920298321337 3.162019925419666 0  -4.533969808642652 3.310686794238232 0  -4.689313205761768 3.466030191357348 0  -4.837980074580335 3.648079701678662 0  -4.336190012173015 3.331904993913493 0  -4.509760203133004 3.490239796866996 0  -4.668095006086507 3.663809987826985 0  -4.315207404743049 3.513594446442713 0  -4.486405553557287 3.684792595256951 0  -4.292893218813248 3.707106781186752 0  5 1 0  5 1.1875 0  4.830265204667748 1 0  4.77562324865802 1.192679506345228 0  4.787911267192283 1.348081986778286 0  5 1.375 0  4.660530409335497 1 0  4.633059348939607 1.366021042988467 0  4.541978946488643 1.175143747516595 0  4.490795614003245 1 0  4.795362838541691 1.50379133270418 0  5 1.5625 0  4.359954284754179 1.282832206312045 0  4.321060818670993 1 0  4.457676687866868 1.451904123929002 0  4.607881543291101 1.536622050583134 0  4.689532883909252 1.688515711625484 0  4.856235702683054 1.661343413014644 0  5 1.75 0  4.238111322001059 1.40000554689391 0  4.378421381089813 1.630379830243528 0  4.52610451519947 1.664149318775792 0  4.505222861494965 1.814198120819483 0  4.659530852044655
[...]
<PointData  Scalars="u"> 
<DataArray  type="Float64"  Name="u"  format="ascii">5.3492126255012927e+01  5.7348410981583193e+01  5.3537072066203187e+01  6.0741060439690003e+01  5.8443396707801064e+01  5.3560758526200168e+01  6.3493120794518589e+01  6.2446999509518015e+01  6.0382077031735449e+01  5.3719542636559503e+01  6.5646564200195499e+01  6.5361557552427001e+01  6.4951861396166677e+01  6.4485002301826299e+01  5.6901508433309083e+01  6.7465522669656551e+01  6.7735446426159655e+01  6.8587334266794812e+01  7.1863593491083193e+01  7.1588763457160098e+01  6.3889437493160685e+01  5.3456830552736946e+01  6.9559808512350315e+01  7.0547126123670012e+01  7.2642044636023073e+01  7.4840105766319638e+01  7.1877054691398740e+01  6.7398411703885884e+01  6.3246602486934123e+01  5.9228522928378119e+01  5.2838232755452466e+01  7.1794213264848139e+01  7.3265985004680132e+01  7.5062845618185818e+01  7.4656926887774631e+01  7.1892687985941748e+01  6.8702179479534550e+01  6.5355585587335725e+01  6.2409312405566787e+01  6.0156283602295950e+01  5.6718270536725008e+01  5.2295233928832523e+01  7.3879234562107825e+01  7.5198407686509270e+01  7.5700596592420638e+01  7.4252199332719101e+01  7.1820820779263258e+01  6.9221032272489026e+01  6.6433592249218293e+01  6.3759779866491677e+01  6.1358939986625650e+01  5.9953349464267099e+01  5.7868484952101944e+01  5.5062249529646884e+01  5.1719415139424434e+01  7.5476269950968913e+01  7.6142181901321507e+01  7.5644739386755134e+01  7.3907822420990016e+01  7.6487630097598327e+01  7.6455079812196587e+01  7.5413398580928629e+01  7.7020630258529152e+01  7.6468256558835535e+01  7.7252597013463102e+01  5.9325409329564899e+01  6.3060993484439116e+01  5.9438883605247369e+01  6.6317862345760020e+01  6.4211232879890730e+01  5.9538890314419987e+01  6.8922055527632523e+01  6.8058036777412866e+01  6.6219407588191558e+01  5.9774552481779715e+01  7.0921129242103916e+01  7.0796801763898287e+01  7.0611611627208575e+01  7.0405057499260153e+01  6.3004924072196488e+01  7.2713058412155888e+01  7.3186451774092873e+01  7.4305742687049374e+01  7.7845944478063103e+01  7.7752228928753354e+01  7.0197414989840183e+01  5.9667430461197455e+01  7.4784194808406866e+01  7.6019871985619332e+01  7.8409170122965719e+01  8.0857331458842069e+01  7.8144111803550430e+01  7.3867250191121386e+01  6.9942044270568843e+01  6.5737704404474030e+01  5.9221521836534677e+01  7.6995687270315813e+01  7.8752153016424572e+01  8.0850679927312399e+01  8.0719636230973805e+01  7.8317087606813672e+01  7.5388968955222765e+01  7.2303669644250121e+01  6.9597925064694110e+01  6.7070644793052281e+01  6.3424302751895738e+01  5.8843892861045717e+01  7.9049104275967309e+01  8.0677319836491193e+01  8.1496674056002817e+01  8.0398287116915199e+01  7.8457727292967817e+01  7.6189360147846841e+01  7.3709087183036772e+01  7.1300323965803287e+01  6.9090430751401698e+01  6.7326067425157632e+01  6.4954757418837474e+01  6.1920870338073030e+01  5.8394880199559253e+01  8.0593742253938288e+01  8.1591166558245206e+01  8.1457868071368480e+01  8.0179073508856277e+01  8.1526618096573614e+01  8.1861691943112959e+01  8.1263899031477621e+01  8.1954040600347156e+01  8.1827119774251216e+01  8.2055430245964999e+01  5.3664329517249350e+01  5.7699594748978114e+01  5.3567173287592531e+01  6.1286136742225267e+01  5.8659738053148033e+01  5.3430366167981269e+01  6.4242889249527110e+01  6.2874893275966130e+01  6.0440621938787359e+01  5.3426689309187381e+01  6.6603575823307082e+01  6.6018999405901766e+01  6.5241106586897089e+01  6.4379109874470885e+01  5.6501103864893274e+01  6.8358701349355059e+01  6.8284318254453183e+01  6.8729328541365632e+01  7.1641043729609436e+01  7.1123657265751419e+01  6.3209699846036344e+01  5.2931297506458378e+01  7.0377792022638289e+01  7.0978389814796898e+01  7.2652409247684275e+01  7.4504074514065508e+01  7.1144971723614091e+01  6.6429407590410392e+01  6.2002056591769453e+01  5.8283417567302315e+01  5.2096154107607610e+01  7.2530473733068746e+01  7.3583503975294249e+01  7.4954179015981438e+01  7.4136504888727160e+01  7.0806717121943294e+01  6.7338304420255227e+01  6.3706523845552191e+01  6.0493735444135098e+01  5.8641092047323014e+01  5.5514077057242694e+01  5.1328410769200055e+01  7.4533877840789373e+01  7.5406715108753247e+01  7.5441807129600093e+01  7.3445497140379942e+01  7.0253275573598884e+01  6.7340989669087321e+01  6.4265876446106034e+01  6.1344858243465815e+01  5.8754960213840860e+01  5.7816842082803547e+01  5.6120752483296236e+01  5.3632094146729720e+01  5.0548076998742090e+01  7.6053574669587420e+01  7.6228792423826505e+01  7.5163131662733974e+01  7.2686150967846388e+01  7.6984932128657249e+01  7.6377648660460707e+01  7.4599161199488407e+01  7.7421761496201839e+01  7.6152375348210242e+01  7.7521055427418020e+01  6.0516518635895757e+01  6.4271903324688196e+01  6.0632739019014707e+01  6.7537132882757376e+01  6.5418245250614063e+01  6.0736506825775756e+01  7.0139814255238718e+01  6.9265472690760092e+01  6.7425098430341635e+01  6.0976023974692744e+01  7.2128732483607735e+01  7.1992974884250728e+01  7.1809576186887270e+01  7.1619468999214462e+01  6.4204063323507512e+01  7.3887570242749291e+01  7.4361358950297941e+01  7.5498255734312423e+01  7.9087904434030520e+01  7.8994948145990136e+01  7.1421310571213866e+01  6.0869875406592122e+01  7.5923403472590920e+01  7.7173516699054844e+01  7.9594997432983931e+01  8.2072728604323515e+01  7.9363123306116833e+01  7.5096585359490490e+01  7.1159755019973289e+01  6.6936480267652229e+01  6.0401460212936612e+01  7.8095638129125660e+01  7.9878984745874050e+01  8.2013209090377131e+01  8.1903498308392784e+01  7.9518972433306558e+01  7.6628457172753528e+01  7.3549179723596538e+01  7.0793063985667672e+01  6.8230656297953047e+01  6.4560300575132985e+01  5.9957756952838444e+01  8.0101534836590105e+01  8.1762359261422375e+01  8.2612679674967112e+01  8.1535562385172071e+01  7.9626282203390346e+01  7.7436548352148620e+01  7.4994148171827547e+01  7.2550286377352279e+01  7.0178623684104494e+01  6.8373214031393928e+01  6.5976952995548629e+01  6.2925262890223387e+01  5.9381971542497986e+01  8.1582153949180110e+01  8.2608387377691500e+01  8.2497738135083466e+01  8.1237619538150497e+01  8.2424916239886713e+01  8.2775527121025263e+01  8.2184390827721629e+01  8.2724675386448226e+01  8.2587921491832219e+01  8.2647992190390880e+01  4.8492751253575619e+01  4.9524812456948673e+01  4.8844587521517596e+01  5.0204025314251730e+01  5.1101998120101150e+01  5.0493224705359971e+01  4.9212455440487098e+01  5.1823816572695513e+01  5.0835801892782378e+01  4.9593928548814702e+01  5.1931208649692948e+01  5.1371144611092205e+01  5.2411069152109036e+01  4.9994994921876895e+01  5.3217687155600871e+01  5.2982809409450233e+01  5.3364127421336050e+01  5.2420944953024019e+01  5.2134819517343246e+01  5.4046039618411498e+01  5.4847424562596231e+01  5.4140797444276402e+01  5.5013718674588482e+01  5.4217597254081859e+01  5.3482546932951330e+01  5.2771286594174512e+01  5.1784086791078956e+01  5.0406848774394838e+01  5.5774606534055565e+01  5.4456518203766798e+01  5.2677064961437296e+01  5.0833103704915587e+01  5.6462099568887112e+01  5.5906147577174558e+01  5.5838503429348059e+01  5.4956977727527061e+01  5.4138948239513773e+01  5.3270729021438719e+01  5.8174319489527818e+01  5.7583658120067639e+01  5.6821590845165332e+01  5.6534707984211742e+01  5.5784632825305941e+01  5.4685892990680678e+01  5.3631507677747862e+01  5.7623950713747810e+01  5.7166450102955274e+01  5.4263902149391484e+01  5.1271617314090825e+01  5.9765799934960597e+01  5.8846155186637290e+01  5.7600164142988064e+01  5.8169937990102760e+01  5.6934025943139069e+01  5.5873592562285808e+01  5.4902303069646656e+01  5.3855128293094310e+01  5.9835773805680645e+01  6.1359067191334866e+01  5.9954478820699848e+01  5.7865294486041179e+01  5.5056440527144701e+01  5.1732501964304717e+01  6.1114680192212546e+01  5.9580826364499750e+01  6.0256987389352936e+01  5.8968012759372023e+01  5.7664702623077211e+01  5.6460560512526094e+01  5.5109696887869354e+01  5.3946604717640753e+01  6.1725480804557449e+01  6.4999350287155352e+01  6.3759005887375992e+01  6.2668727727668660e+01  6.3853981384601070e+01  6.4238637133156047e+01  6.7221102280935824e+01  6.8342901879691695e+01  6.6435091677829533e+01  6.1080330865951943e+01  6.1656043479266366e+01  6.0744841066083922e+01  5.9503593492421111e+01  5.8127414629508515e+01  5.6711565431775902e+01  5.5557293692144974e+01  5.4630428593628025e+01  5.3913908411010048e+01  6.5091556348021157e+01  6.3692905422353057e+01  6.2319981482216313e+01  6.1290866596823605e+01  5.9988060558342227e+01  5.8261781771176771e+01  5.6679715203225875e+01  5.5271826494034329e+01  5.4356966591669803e+01  5.3768242773479301e+01  6.5582870714758229e+01  6.7270335026140188e+01  6.9645332950931149e+01  7.1481468278843266e+01  6.9221806281347057e+01  6.9413365795513712e+01  5.7517818481249641e+01  6.4609181035993444e+01  6.3014664562571305e+01  6.1848157551857135e+01  6.0329548590254227e+01  5.9158982104571443e+01  5.7568144226262859e+01  5.6613407351035420e+01  5.5724375646835064e+01  5.4876148945962782e+01  5.4065227443374496e+01  5.3518418294411219e+01  6.6416382428912584e+01  6.8470865147982650e+01  7.0765067090014554e+01  7.1800894953481261e+01  7.3698021955249502e+01  7.3432748792257001e+01  7.1818061284588310e+01  6.6671724090504199e+01  6.4264494389320546e+01  6.2771621930980487e+01  6.1533944075394480e+01  5.9942936288424228e+01  5.8455902748707182e+01  5.7615081887672360e+01  5.6736212119367643e+01  5.5708017187899820e+01  5.4569670710036227e+01  5.3564801360850993e+01  5.3177377233471390e+01  7.0822149743865012e+01  7.2981692487272824e+01  7.4782117878533199e+01  7.4959329101809317e+01  7.5412518908315022e+01  7.3908194261524031e+01  6.8746091551774029e+01  6.6685838474993858e+01  6.4938375162250722e+01  6.2941468767527937e+01  6.1111130871130833e+01  5.9750436953406954e+01  5.8311678078552227e+01  5.6816700346613580e+01  5.6037834914177324e+01  5.5089124948638613e+01  5.3962125022189987e+01  5.4250033410010495e+01  5.2757188308800778e+01  5.2882637348673242e+01  6.8784303239178470e+01  7.1585842672361395e+01  7.2223197574695732e+01  7.3836389464738559e+01  7.5016581855584619e+01  7.5428788747724553e+01  7.6450769275663859e+01  7.5851116523328358e+01  7.6469523779505948e+01  6.6373466806829171e+01  6.4749267229924797e+01  6.2283955776379422e+01  6.0689882285455980e+01  5.8933925610141173e+01  5.7402310443196733e+01  5.6268144642777621e+01  5.5372094576629017e+01  5.4259567157347355e+01  5.3276078533715051e+01  5.2563908871175720e+01  5.1733321302134918e+01  5.2272385079393722e+01  6.8139969884176907e+01  6.9900811009078268e+01  7.1619653708022412e+01  7.3564193537410105e+01  7.5092570439069178e+01  7.6138216290286906e+01  7.6821086263579772e+01  7.7407427584409291e+01  7.6734376274655233e+01  7.7252833976184917e+01  6.7660267808581196e+01  6.9742104845866251e+01  7.1219553111169915e+01  7.3523902701745527e+01  7.5348155325913183e+01  7.6499761832093156e+01  7.7222799484744684e+01  7.8033916926637502e+01  7.8156871277424273e+01  7.7866887034348267e+01  7.7591581912024665e+01  7.7019762739476121e+01  6.5738897363627231e+01  6.3894198877078665e+01  6.2050725724898328e+01  5.9580192960451434e+01  5.7834898793993872e+01  5.7654759062179728e+01  5.5926826610767549e+01  5.5184444955487223e+01  5.3872959346626985e+01  5.3429583352381371e+01  5.2993050743175921e+01  6.9156426053808076e+01  6.7016017213457161e+01  6.3799998545748622e+01  6.1682668172635523e+01  5.9933761070974825e+01  5.8023184008452787e+01  5.5656004360381111e+01  5.6478076569496359e+01  5.5212226199142236e+01  5.4319666054528966e+01  7.2421342727431721e+01  7.4145125351158441e+01  7.5449207770057740e+01  7.6998378410321450e+01  7.7718430480275174e+01  7.8707107651996793e+01  7.9294569226815938e+01  7.8786196807539284e+01  7.8624799420997533e+01  7.8223937505236080e+01  7.7990126942193868e+01  7.7123809824087814e+01  7.6964048629400722e+01  7.6487191987589071e+01  6.9090514487110440e+01  6.4975510024987898e+01  6.1917326426886000e+01  5.9591937026205599e+01  5.8192665821252021e+01  5.6090893219855182e+01  7.1299645618750063e+01  7.3673615822309458e+01  7.5470135548109880e+01  7.7325065144869384e+01  7.8584792194807889e+01  7.7153843010352475e+01  7.8210419957479260e+01  7.9310357990188749e+01  7.9633738302875912e+01  7.9886149977781287e+01  7.9369008523585194e+01  7.8851650232125962e+01  7.8528271049452442e+01  7.7419595868742064e+01  7.6062134703796104e+01  7.5965542182429331e+01  7.5479878297398258e+01  6.7327815149840220e+01  6.4953580137323669e+01  6.2081367623591028e+01  6.0025313117054004e+01  5.7324749654815960e+01  5.6929020348104650e+01  7.3710222361467672e+01  7.6192708219252836e+01  7.8455307941586085e+01  7.9417716012495461e+01  8.0544363439950914e+01  7.9971857468452640e+01  8.0089898319506474e+01  8.0243776618273969e+01  8.0401788586610920e+01  8.0482996397707367e+01  8.0013638780740493e+01  7.9514092448776395e+01  7.9104983086554810e+01  7.8534862054339669e+01  7.7827208652619305e+01  7.6919592978004289e+01  7.5940374424993053e+01  7.5282779408996731e+01  7.4510796498103929e+01  7.4528233645270490e+01  7.3873407397459502e+01  6.1919430816010191e+01  5.8067016197350263e+01  5.7704576497523831e+01  8.0179020134600364e+01  8.0812237265192877e+01  8.1397212879022462e+01  8.0880553041224829e+01  8.0678118392322176e+01  8.0817501885190538e+01  8.0903920465161548e+01  8.0844305506101335e+01  8.0420547765327186e+01  7.9968847855505089e+01  7.9157265634497421e+01  7.9550262423929254e+01  7.8349611446113045e+01  7.7476846839542276e+01  7.6429887711245087e+01  7.5658181306155015e+01  7.4210433644430580e+01  7.3212267959844681e+01  7.2101674620875670e+01  7.1799676838670479e+01  5.8407324738935642e+01  8.1263037880411872e+01  8.1826230781695628e+01  8.1854299071101295e+01  8.1617990636468193e+01  8.1273221557261195e+01  8.1469306522926317e+01  8.1344828548913242e+01  8.1280898445121764e+01  8.1259825720980999e+01  8.0984142164974159e+01  8.0547584138493633e+01  8.0127806815697127e+01  7.9565019538301698e+01  7.8875051499449938e+01  7.8306532896109232e+01  7.7271492002451680e+01  7.6294467298241472e+01  7.5251741253622725e+01  7.4551284434529563e+01  7.2828864954484573e+01  7.1673830193728136e+01  6.9857015658418518e+01  6.9563714559482989e+01  8.2056040330191223e+01  8.2040910113778480e+01  8.1826804281482907e+01  8.1598274095955730e+01  8.1565737860219826e+01  8.1314407500189006e+01  8.0850613386513004e+01  8.0420067993717552e+01  8.0080200172047810e+01  7.9194433685138577e+01  7.8721053770024298e+01  7.7842343408429329e+01  7.6929759192213652e+01  7.6031300886229772e+01  7.5174725342451808e+01  7.4031844168234613e+01  7.2706070257640405e+01  7.1374278107553835e+01  7.0019877860782941e+01  6.7848620401329129e+01  6.7465491961576618e+01  8.2078346928391440e+01  8.2108331736835993e+01  8.2024999956509859e+01  8.1858359073013148e+01  8.1787052408952704e+01  8.1510066800020866e+01  8.1194959018289993e+01  8.0765735382963300e+01  8.0334494556561282e+01  7.9817594752599106e+01  7.9250851474639816e+01  7.9704721458038605e+01  8.1953044451946866e+01  8.2031484455268910e+01  7.7594443797827893e+01  7.8313269994841747e+01  7.6602381880981412e+01  7.5581758529174252e+01  7.4575731818220305e+01  7.4686695891123449e+01  7.3609489846409446e+01  7.2267364751598166e+01  7.0833754260425451e+01  6.9586720674036869e+01  6.7835697436203304e+01  6.5647019187626711e+01  8.1947101010980546e+01  8.2071772255231551e+01  8.2057900459798191e+01  8.1938284477485567e+01  8.1954456754443171e+01  8.1738723152527498e+01  8.1568433792291160e+01  8.1714896956183765e+01  8.1528609538833820e+01  8.1763742208527745e+01  8.1402503495311080e+01  8.1101260412327619e+01  8.0551926970368825e+01  7.9929503024342509e+01  7.9382764693552915e+01  7.8811336958436229e+01  7.8302671281153607e+01  7.7465831515132507e+01  7.6379187854627858e+01  7.5767616868884190e+01  7.4844887956877130e+01  7.3986465551737965e+01  7.3276035940038312e+01  7.2267946932124204e+01  7.0545124359389845e+01  6.8797686439669405e+01  6.9172007809421771e+01  6.7771500220873591e+01  6.5792107816837003e+01  6.3307571930646077e+01  6.3494455202217111e+01  7.3752381908480345e+01  8.2007875389160660e+01  8.1941351360538661e+01  8.1876309794858628e+01  8.1651696117660052e+01  8.1406883735736884e+01  8.1121651630627724e+01  8.0868044237782669e+01  8.0411978548779445e+01  8.0010946658793429e+01  7.9524208051292106e+01  7.8923747592627237e+01  7.8264088862210187e+01  7.7799227626813959e+01  7.7135182042449884e+01  7.6660730782876300e+01  7.5775433215091525e+01  7.5210786490541366e+01  7.4606014944889708e+01  7.3560562838367346e+01  7.2861014814562708e+01  7.1996367093868741e+01  7.1126754598332511e+01  6.9795516326511475e+01  8.1707419660601005e+01  8.1236552593401527e+01  8.0912085829077341e+01  8.0968504841944565e+01  8.0138479311120349e+01  8.0595649556443121e+01  8.1788393936949902e+01  6.7511024437494711e+01  6.5839419302534168e+01  6.3663469124928824e+01  6.0851404702853344e+01  6.0589261148247864e+01  6.0737919429450073e+01  8.1844601669562877e+01  8.1790627048202055e+01  8.1579112256646070e+01  8.1246015515940783e+01  8.0948212635302312e+01  8.0632692922374574e+01  8.0123651325482541e+01  7.9717408987376004e+01  7.9226747883992857e+01  7.9007650300886795e+01  7.8564168076617818e+01  7.7942203640343408e+01  7.7610913235606489e+01  7.7298400894798533e+01  7.6410811204240488e+01  7.5955363866614050e+01  7.4821874987427961e+01  7.4402089787465570e+01  7.3760133216374740e+01  7.2676337193464846e+01  7.2228734388077541e+01  7.1891628216273958e+01  7.0886623150040748e+01  7.0569226098355443e+01  8.0825279297117518e+01  8.1438472704088895e+01  8.1520087603184805e+01  8.1736605056949401e+01  8.0485703635934470e+01  8.0171194674623763e+01  7.9819844724966416e+01  7.8830647827759066e+01  7.9044321122704446e+01  8.1025924781670014e+01  5.7366605240653492e+01  5.6922231336793807e+01  5.7341747870212309e+01  8.1653583196658445e+01  8.1574995871100896e+01  8.1449553681366083e+01  8.0989617951027256e+01  8.0730012600577581e+01  8.0026473519885627e+01  7.9676500119621451e+01  7.9061611087277981e+01  7.8671758404219972e+01  7.7252964432097869e+01  7.7113599692940298e+01  7.6996278498084791e+01  8.1472554174306339e+01  8.1325162480131567e+01  8.1019880900308905e+01  8.0847896951280191e+01  8.0411960208810015e+01  7.9670431166781100e+01  7.9252475088300798e+01  7.8531405063136660e+01  7.8000123227913022e+01  7.7374142195057985e+01  7.6689789500565269e+01  7.5632084509202357e+01  7.5444997617267475e+01  7.5398447534192897e+01  7.4136709769984478e+01  7.3107037238182798e+01  7.1938953685768141e+01  7.1613965245050551e+01  7.1164801368529155e+01  8.1220473916964352e+01  5.3404773490919283e+01  5.3461241990110459e+01  5.3506004850874518e+01  8.1515307212881140e+01  8.1366276996129315e+01  8.1231075208527812e+01  8.0983842460509692e+01  8.0609745175612687e+01  8.0163693767240588e+01  7.9629943540389476e+01  7.9138752093157962e+01  7.9172332231571573e+01  7.8617935107053611e+01  7.8207522925733542e+01  7.7697729809874488e+01  7.7163606886173540e+01  7.6583714383009351e+01  7.6061056562954676e+01  7.5093398809501352e+01  7.4907016624470245e+01  7.4628268999595832e+01  7.3373645090935980e+01  7.2155899778517352e+01  8.1448186258243496e+01  8.1425215691710761e+01  8.1058785160590560e+01  8.0499064226053321e+01  7.9817181241599357e+01  7.9426342331892286e+01  7.8873055170981601e+01  7.7935738159837555e+01  7.7052116238246228e+01  7.8015806065922845e+01  7.5970999255047900e+01  7.5160976718378322e+01  7.4785839379847175e+01  8.1408020149458508e+01  8.1270893219115607e+01  8.1344783158224232e+01  8.1249054293421921e+01  8.0948549394370445e+01  8.0653073184082047e+01  8.0227353108297791e+01  7.9441300792129610e+01  7.8744754228538042e+01  7.7923555815938272e+01  7.7149605813496635e+01  7.6188526282069816e+01  7.5515437448459636e+01  7.4109710408774703e+01  7.3300195484360955e+01  7.2711549159980251e+01  8.1069982895135610e+01  8.0681425983922452e+01  8