<?xml version="1.0"?>
<VTKFile type="UnstructuredGrid"  version="0.1"  >
<UnstructuredGrid>
<Piece  NumberOfPoints="9136" NumberOfCells="17460">
<Points>
<DataArray  type="Float64"  NumberOfComponents="3"  format="ascii">3 0.3059179772177343 0  2.826192235005252 0.3047689400210052 0  3 0.4876840732277087 0  2.650848904718999 0.3016978094379971 0  2.828721773526102 0.4861653205783054 0  3 0.6663313827030033 0  2.473127361874204 0.2975031491656049 0  2.654933606300413 0.4824004094506196 0  2.832075157123596 0.6641503142471923 0  3 0.8400450330852545 0  2.292893218813298 0.2928932188132978 0  2.477765466230188 0.4777654662301873 0  2.659590949023722 0.6595909490237226 0  2.836584264135747 0.8365842641357473 0  3 1 0  2.297503149165605 0.4731273618742037 0  2.482400409450619 0.654933606300413 0  2.664150314247192 0.8320751571235961 0  2.840045033085254 1 0  3 1.159954966914746 0  3.163415735864253 1.163415735864253 0  3.159954966914746 1 0  2.301697809437997 0.6508489047189985 0  2.486165320578305 0.8287217735261018 0  2.666331382703003 1 0  2.836584264135747 1.163415735864253 0  3 1.333668617296997 0  3.167924842876404 1.335849685752808 0  3.340409050976278 1.340409050976277 0  3.335849685752808 1.167924842876404 0  3.333668617296997 1 0  2.304768940021005 0.8261922350052512 0  2.487684073227709 1 0  2.664150314247192 1.167924842876404 0  2.832075157123596 1.335849685752808 0  3 1.512315926772291 0  3.171278226473898 1.513834679421695 0  3.345066393699587 1.51759959054938 0  3.522234533769812 1.522234533769813 0  3.517599590549381 1.345066393699587 0  3.513834679421695 1.171278226473898 0  3.512315926772291 1 0  2.305917977217734 1 0  2.486165320578305 1.171278226473898 0  2.659590949023722 1.340409050976277 0  2.828721773526102 1.513834679421695 0  3 1.694082022782266 0  3.173807764994749 1.695231059978995 0  3.349151095281001 1.698302190562003 0  3.526872638125796 1.702496850834395 0  3.707106781186702 1.707106781186702 0  3.702496850834395 1.526872638125796 0  3.698302190562003 1.349151095281002 0  3.695231059978995 1.173807764994749 0  3.694082022782266 1 0  2.304768940021005 1.173807764994749 0  2.482400409450619 1.345066393699587 0  2.654933606300413 1.51759959054938 0  2.826192235005251 1.695231059978995 0  2.301697809437997 1.349151095281002 0  2.477765466230188 1.522234533769813 0  2.650848904718999 1.698302190562003 0  2.297503149165605 1.526872638125796 0  2.473127361874204 1.702496850834395 0  2.292893218813298 1.707106781186702 0  2 4.694082022782266 0  1.826192235005251 4.695231059978995 0  2 4.512315926772291 0  1.650848904718999 4.698302190562003 0  1.828721773526102 4.513834679421695 0  2 4.333668617296997 0  1.473127361874204 4.702496850834395 0  1.654933606300413 4.517599590549381 0  1.832075157123596 4.335849685752808 0  2 4.159954966914746 0  1.292893218813298 4.707106781186702 0  1.477765466230187 4.522234533769812 0  1.659590949023723 4.340409050976278 0  1.836584264135747 4.163415735864253 0  2 4 0  1.297503149165605 4.526872638125797 0  1.48240040945062 4.345066393699587 0  1.664150314247192 4.167924842876404 0  1.840045033085254 4 0  2 3.840045033085254 0  2.163415735864253 3.836584264135747 0  2.159954966914746 4 0  1.301697809437997 4.349151095281002 0  1.486165320578305 4.171278226473898 0  1.666331382703003 4 0  1.836584264135747 3.836584264135747 0  2 3.666331382703003 0  2.167924842876404 3.664150314247192 0  2.340409050976278 3.659590949023722 0  2.335849685752808 3.832075157123596 0  2.333668617296997 4 0  1.304768940021005 4.173807764994748 0  1.487684073227709 4 0  1.664150314247192 3.832075157123596 0  1.832075157123596 3.664150314247192 0  2 3.487684073227709 0  2.171278226473898 3.486165320578305 0  2.345066393699587 3.482400409450619 0  2.522234533769812 3.477765466230188 0  2.517599590549381 3.654933606300413 0  2.513834679421695 3.828721773526102 0  2.512315926772291 4 0  1.305917977217734 4 0  1.486165320578305 3.828721773526102 0  1.659590949023723 3.659590949023722 0  1.828721773526102 3.486165320578305 0  2 3.305917977217734 0  2.173807764994749 3.304768940021005 0  2.349151095281001 3.301697809437997 0  2.526872638125796 3.297503149165605 0  2.707106781186702 3.292893218813298 0  2.702496850834395 3.473127361874204 0  2.698302190562003 3.650848904718999 0  2.695231059978995 3.826192235005251 0  2.694082022782266 4 0  1.304768940021005 3.826192235005251 0  1.48240040945062 3.654933606300413 0  1.654933606300413 3.482400409450619 0  1.826192235005251 3.304768940021005 0  1.301697809437997 3.650848904718999 0  1.477765466230187 3.477765466230188 0  1.650848904718998 3.301697809437997 0  1.297503149165605 3.473127361874204 0  1.473127361874204 3.297503149165605 0  1.292893218813298 3.292893218813298 0  -6 5.694082022782266 0  -5.826192235005252 5.695231059978995 0  -6 5.512315926772291 0  -5.650848904718998 5.698302190562003 0  -5.828721773526102 5.513834679421695 0  -6 5.333668617296997 0  -5.473127361874203 5.702496850834395 0  -5.654933606300413 5.517599590549381 0  -5.832075157123596 5.335849685752808 0  -6 5.159954966914746 0  -5.292893218813298 5.707106781186702 0  -5.477765466230188 5.522234533769812 0  -5.659590949023722 5.340409050976278 0  -5.836584264135747 5.163415735864253 0  -6 5 0  -5.297503149165605 5.526872638125797 0  -5.482400409450619 5.345066393699587 0  -5.664150314247192 5.167924842876404 0  -5.840045033085254 5 0  -6 4.840045033085254 0  -6.163415735864253 4.836584264135747 0  -6.159954966914746 5 0  -5.301697809437997 5.349151095281002 0  -5.486165320578305 5.171278226473898 0  -5.666331382703003 5 0  -5.836584264135747 4.836584264135747 0  -6 4.666331382703003 0  -6.167924842876404 4.664150314247192 0  -6.340409050976278 4.659590949023722 0  -6.335849685752808 4.832075157123596 0  -6.333668617296997 5 0  -5.304768940021005 5.173807764994748 0  -5.487684073227709 5 0  -5.664150314247192 4.832075157123596 0  -5.832075157123596 4.664150314247192 0  -6 4.487684073227709 0  -6.171278226473898 4.486165320578305 0  -6.345066393699587 4.482400409450619 0  -6.522234533769812 4.477765466230188 0  -6.517599590549381 4.654933606300413 0  -6.513834679421695 4.828721773526102 0  -6.512315926772291 5 0  -5.305917977217734 5 0  -5.486165320578305 4.828721773526102 0  -5.659590949023722 4.659590949023722 0  -5.828721773526102 4.486165320578305 0  -6 4.305917977217734 0  -6.173807764994748 4.304768940021005 0  -6.349151095281002 4.301697809437997 0  -6.526872638125797 4.297503149165605 0  -6.707106781186702 4.292893218813298 0  -6.702496850834395 4.473127361874203 0  -6.698302190562003 4.650848904718998 0  -6.695231059978995 4.826192235005252 0  -6.694082022782266 5 0  -5.304768940021005 4.826192235005252 0  -5.482400409450619 4.654933606300413 0  -5.654933606300413 4.482400409450619 0  -5.826192235005252 4.304768940021005 0  -5.301697809437997 4.650848904718998 0  -5.477765466230188 4.477765466230188 0  -5.650848904718998 4.301697809437997 0  -5.297503149165605 4.473127361874203 0  -5.473127361874203 4.297503149165605 0  -5.292893218813298 4.292893218813298 0  -5 2.305917977217734 0  -4.826192235005252 2.304768940021005 0  -5 2.487684073227709 0  -4.650848904718998 2.301697809437997 0  -4.828721773526102 2.486165320578305 0  -5 2.666331382703003 0  -4.473127361874203 2.297503149165605 0  -4.654933606300413 2.482400409450619 0  -4.832075157123596 2.664150314247192 0  -5 2.840045033085254 0  -4.292893218813298 2.292893218813298 0  -4.477765466230188 2.477765466230188 0  -4.659590949023722 2.659590949023722 0  -4.836584264135747 2.836584264135747 0  -5 3 0  -4.297503149165605 2.473127361874204 0  -4.482400409450619 2.654933606300413 0  -4.664150314247192 2.832075157123596 0  -4.840045033085254 3 0  -5 3.159954966914746 0  -5.163415735864253 3.163415735864253 0  -5.159954966914746 3 0  -4.301697809437997 2.650848904718999 0  -4.486165320578305 2.828721773526102 0  -4.666331382703003 3 0  -4.836584264135747 3.163415735864253 0  -5 3.333668617296997 0  -5.167924842876404 3.335849685752808 0  -5.340409050976278 3.340409050976278 0  -5.335849685752808 3.167924842876404 0  -5.333668617296997 3 0  -4.304768940021005 2.826192235005251 0  -4.487684073227709 3 0  -4.664150314247192 3.167924842876404 0  -4.832075157123596 3.335849685752808 0  -5 3.512315926772291 0  -5.171278226473898 3.513834679421695 0  -5.345066393699587 3.517599590549381 0  -5.522234533769812 3.522234533769812 0  -5.517599590549381 3.345066393699587 0  -5.513834679421695 3.171278226473898 0  -5.512315926772291 3 0  -4.305917977217734 3 0  -4.486165320578305 3.171278226473898 0  -4.659590949023722 3.340409050976278 0  -4.828721773526102 3.513834679421695 0  -5 3.694082022782266 0  -5.173807764994748 3.695231059978995 0  -5.349151095281002 3.698302190562003 0  -5.526872638125797 3.702496850834395 0  -5.707106781186702 3.707106781186702 0  -5.702496850834395 3.526872638125796 0  -5.698302190562003 3.349151095281001 0  -5.695231059978995 3.173807764994749 0  -5.694082022782266 3 0  -4.304768940021005 3.173807764994749 0  -4.482400409450619 3.345066393699587 0  -4.654933606300413 3.517599590549381 0  -4.826192235005252 3.695231059978995 0  -4.301697809437997 3.349151095281001 0  -4.477765466230188 3.522234533769812 0  -4.650848904718998 3.698302190562003 0  -4.297503149165605 3.526872638125796 0  -4.473127361874203 3.702496850834395 0  -4.292893218813298 3.707106781186702 0  5 1 0  5 1.1875 0  4.836760252847784 1 0  4.777715803246315 1.196559610919311 0  4.839460463216996 1.347314472439327 0  5 1.375 0  4.673520505695566 1 0  4.632635625466378 1.365213346993499 0  4.556044961094186 1.171744017769988 0  4.510280758543349 1 0  4.794773055276885 1.503974827597894 0  5 1.5625 0  4.509532852384659 1.302052263620541 0  4.410856208148409 1.131488582867765 0  4.347041011391132 1 0  4.456349169075412 1.451051581694457 0  4.607229733549753 1.536976478139674 0  4.689743592565922 1.689749170841861 0  4.856245648493844 1.661305922135441 0  5 1.75 0  4.374259326167071 1.272988741846429 0  4.255464305052109 1.37561778694147
[...]
<PointData  Scalars="u"> 
<DataArray  type="Float64"  Name="u"  format="ascii">5.3463433166412678e+01  5.7369640832686869e+01  5.3548669259340130e+01  6.0765197354750107e+01  5.8596074577899024e+01  5.3599724568054022e+01  6.3508869091246623e+01  6.2644536361129958e+01  6.0813144755326583e+01  5.3785931842075101e+01  6.5649664157108987e+01  6.5480706276319637e+01  6.5376218282759083e+01  6.5630077092337686e+01  5.8575213807383314e+01  6.7490634718423010e+01  6.7990721454979663e+01  6.9371822523522582e+01  7.3905811214428098e+01  7.3418266183798181e+01  6.4786261020619449e+01  5.3316105032513626e+01  6.9619897154804292e+01  7.0994491061083849e+01  7.3688639892845515e+01  7.6127227662130096e+01  7.2652824699501053e+01  6.7831882841111309e+01  6.3362476461026034e+01  5.9332258007196941e+01  5.2640275285602250e+01  7.1894383017038422e+01  7.3812634540710079e+01  7.5973221665124640e+01  7.5444986955890499e+01  7.2192404781427086e+01  6.8854719274656063e+01  6.5338371824082287e+01  6.2342922591046637e+01  6.0104543489632150e+01  5.6602033806788143e+01  5.2109242848188984e+01  7.4026769139833476e+01  7.5724160761133717e+01  7.6294040894594787e+01  7.4617068857593523e+01  7.1789083866568447e+01  6.9120160257909589e+01  6.6320821136831611e+01  6.3684870949877883e+01  6.1362361646204938e+01  5.9878854238342100e+01  5.7749748135582543e+01  5.4928785997262118e+01  5.1559012446274579e+01  7.5617881657701986e+01  7.6521637189962718e+01  7.5966909951603554e+01  7.3928786552832221e+01  7.6607386650764397e+01  7.6661256730456614e+01  7.5475968285012371e+01  7.7092234605933783e+01  7.6526052306588795e+01  7.7254285744084868e+01  5.9281599276678207e+01  6.3064501245297350e+01  5.9423753799714795e+01  6.6326230000498001e+01  6.4328646132934864e+01  5.9541607155452468e+01  6.8928326052940506e+01  6.8218815065355585e+01  6.6589211640338277e+01  5.9804879380049265e+01  7.0923822284591125e+01  7.0887917189307714e+01  7.0968906100813570e+01  7.1461120853154327e+01  6.4678551707715428e+01  7.2724129432683114e+01  7.3384762149139107e+01  7.4987188701295807e+01  7.9797906019141223e+01  7.9621847729423919e+01  7.1212530832348250e+01  5.9606876686743746e+01  7.4808992956283291e+01  7.6378213880551613e+01  7.9331236983024255e+01  8.2085213145410165e+01  7.8986725514733052e+01  7.4427194717200905e+01  7.0186126730960268e+01  6.5957634308328537e+01  5.9103313306326839e+01  7.7035340016183426e+01  7.9183759166570965e+01  8.1645193184979050e+01  8.1483810637336376e+01  7.8689088005832005e+01  7.5660995032211957e+01  7.2404635107307769e+01  6.9611876026387748e+01  6.7108355106729576e+01  6.3387626626306051e+01  5.8710622505539810e+01  7.9116142145927839e+01  8.1083170512813666e+01  8.2001965975280044e+01  8.0764032955728695e+01  7.8489699788692491e+01  7.6179830683883651e+01  7.3680568401704988e+01  7.1272120692724414e+01  6.9093648467471681e+01  6.7283113647532218e+01  6.4878241536677237e+01  6.1824736874957061e+01  5.8258160742388917e+01  8.0645710303622579e+01  8.1864637285894290e+01  8.1721692492396443e+01  8.0210901700176464e+01  8.1567253779962996e+01  8.1992563972656285e+01  8.1295853715653635e+01  8.1976354378119353e+01  8.1847248415199601e+01  8.2057576105511259e+01  5.3667241980185317e+01  5.7758349415236765e+01  5.3634489826491581e+01  6.1343512568788988e+01  5.8881224667119916e+01  5.3545789959116540e+01  6.4278367328938145e+01  6.3138998557750476e+01  6.0976276533553580e+01  5.3569031225910955e+01  6.6607208889208849e+01  6.6187171334502509e+01  6.5769598593022906e+01  6.5646780228049806e+01  5.8178583790558370e+01  6.8407503474182349e+01  6.8622745643858579e+01  6.9646460720766257e+01  7.3757581294388771e+01  7.2807027079019363e+01  6.3918194039905188e+01  5.2691420501961389e+01  7.0487772872402829e+01  7.1536395159944078e+01  7.3825481132728427e+01  7.5789041515527089e+01  7.1759111134589105e+01  6.6656836235908528e+01  6.1936221532189059e+01  5.8223882935290803e+01  5.1793145518879896e+01  7.2704096891285289e+01  7.4250893369196518e+01  7.5947665932978126e+01  7.4865119801219535e+01  7.0939633303150231e+01  6.7296097153436804e+01  6.3522976765397857e+01  6.0322432110084762e+01  5.8466533986339186e+01  5.5284994471701417e+01  5.1063344086973508e+01  7.4766776118279878e+01  7.6037165092760546e+01  7.6065880767938609e+01  7.3719306941613354e+01  7.0078992990633921e+01  6.7090010229405621e+01  6.4036988277594958e+01  6.1211667292800932e+01  5.8758330863508256e+01  5.7700706924179038e+01  5.5941114775461195e+01  5.3438345155651120e+01  5.0341952906485645e+01  7.6278743733008142e+01  7.6682237226839746e+01  7.5475933428736568e+01  7.2616666495846900e+01  7.7170127025083346e+01  7.6621302123678674e+01  7.4634625896724060e+01  7.7530217930513601e+01  7.6222486617901168e+01  7.7522738159609773e+01  6.0472634574919304e+01  6.4277703703719482e+01  6.0616571254227168e+01  6.7548160684318262e+01  6.5537107534493359e+01  6.0737593612498671e+01  7.0147643253746097e+01  6.9427329290604533e+01  6.7791644856482151e+01  6.1004542102533833e+01  7.2131424332979861e+01  7.2084586200521031e+01  7.2161961096348136e+01  7.2657163093921028e+01  6.5881375824606764e+01  7.3898776071373845e+01  7.4554353801272057e+01  7.6161207377681620e+01  8.0984731284499247e+01  8.0826453497457905e+01  7.2423716474158809e+01  6.0802710660445918e+01  7.5945110347033648e+01  7.7516002160862087e+01  8.0481132651365968e+01  8.3257028221855791e+01  8.0188567697209635e+01  7.5654888690580890e+01  7.1398656369785598e+01  6.7139465101770071e+01  6.0259609003326055e+01  7.8125461497000515e+01  8.0280747812358143e+01  8.2760850879978236e+01  8.2628795472613703e+01  7.9878150090342842e+01  7.6906255200783292e+01  7.3655779721180068e+01  7.0798999750981480e+01  6.8246909721028416e+01  6.4490704349166862e+01  5.9785636447798801e+01  8.0150349593440524e+01  8.2127459093381518e+01  8.3067839448334354e+01  8.1866090463536295e+01  7.9647860658500349e+01  7.7432607337790884e+01  7.4974926401590778e+01  7.2523062707180387e+01  7.0182789608131174e+01  6.8315760722564761e+01  6.5871303197786631e+01  6.2790273188830298e+01  5.9203936293049850e+01  8.1607806706654060e+01  8.2835728085676053e+01  8.2713281323722171e+01  8.1239125443036983e+01  8.2437025291697267e+01  8.2864595759183047e+01  8.2179543247750715e+01  8.2725892667250235e+01  8.2582736050144391e+01  8.2650507316374544e+01  4.8491129163139838e+01  4.9524682118122612e+01  4.8830070304533379e+01  5.0222358524169074e+01  5.0910564995422789e+01  5.0492569042571859e+01  4.9185330497656970e+01  5.1818914800324741e+01  5.0763319862526302e+01  4.9549680609422822e+01  5.1934724009971255e+01  5.1373037082072479e+01  5.1902666115614579e+01  5.0925928908685322e+01  4.9930585534675771e+01  5.3221166096245980e+01  5.2988659456624333e+01  5.3367643799808810e+01  5.2422101864981364e+01  5.2134886153454374e+01  5.2266835461373539e+01  5.3739548632255342e+01  5.4303423889997646e+01  5.4850109188112484e+01  5.5020801152821107e+01  5.4217373145473914e+01  5.3485211915731504e+01  5.2773463886163334e+01  5.1573247770591188e+01  5.0328065853472822e+01  5.4144312985885279e+01  5.5308734540100104e+01  5.6632871109502020e+01  5.6397958859182545e+01  5.5680130771424523e+01  5.4959446291251695e+01  5.3565115690223848e+01  5.3272763276894764e+01  5.4183744465814151e+01  5.2457858852841419e+01  5.0732143773715705e+01  5.7601196230296509e+01  5.8272914264743356e+01  5.7944244109562241e+01  5.6783811478607149e+01  5.5893215349893794e+01  5.5237317945734119e+01  5.4295442934448317e+01  5.3999351565441764e+01  5.3631917841987743e+01  5.5933539353563837e+01  5.6765369572388536e+01  5.3864442771407823e+01  5.1143877449824089e+01  6.0052481249072471e+01  5.9070472774606991e+01  5.9886167113562792e+01  5.7749214281585395e+01  5.5508180810589820e+01  5.4924143722106024e+01  5.1606716538593879e+01  5.9872936203018781e+01  5.9339389771976400e+01  5.8028820779952881e+01  5.7154129610256433e+01  5.6283915610651192e+01  5.5882269391782081e+01  5.5302433841411215e+01  5.4646992673214790e+01  5.4255846725203035e+01  5.3857029692303193e+01  6.2070980989378327e+01  6.1264952161229303e+01  6.1357579766214911e+01  6.1365259228255049e+01  6.1136236683570971e+01  5.9884256793264555e+01  5.8169891974148520e+01  5.7295728967705124e+01  5.6948946502849658e+01  5.6099470589446341e+01  5.4964518676227762e+01  5.4595585770364629e+01  5.3948970596531552e+01  6.3908067471045882e+01  6.3931608277221201e+01  6.2802328610060918e+01  6.1871134933094744e+01  6.0192853481530584e+01  5.8842937949728373e+01  5.7846837329957182e+01  5.6870611637946062e+01  5.5933490205429152e+01  5.5316800058471301e+01  5.4535879747626041e+01  5.3914582933224210e+01  6.3680250352653395e+01  6.6403211804580906e+01  6.5843261658395065e+01  6.4102192309831068e+01  6.3899706887176009e+01  6.2321029731167819e+01  6.0581068194476622e+01  5.8793271510530026e+01  5.8171424956851041e+01  5.7564428883468835e+01  5.6805364930624890e+01  5.5887790172149465e+01  5.4934641164296259e+01  5.3768301234925964e+01  6.5724586337290646e+01  6.6326304249873559e+01  6.8150337454952862e+01  6.8395124576177452e+01  6.7574793587325104e+01  6.6859754111687877e+01  6.5440926101361413e+01  6.5197805840400505e+01  6.4626921070953259e+01  6.2872124365317973e+01  6.3390708810201062e+01  6.1085553099138153e+01  5.9443490030520017e+01  5.8308270394767604e+01  5.7733400491817804e+01  5.6727984552242539e+01  5.5302144407977444e+01  5.5890011022226638e+01  5.4415661031093315e+01  5.3518865694942910e+01  6.9129146851885778e+01  6.9858775036993052e+01  7.1140979938406346e+01  7.1770285779247075e+01  6.9955829085230803e+01  6.9043774049117957e+01  6.8801494836729631e+01  6.6677245509714481e+01  6.5915818497176332e+01  6.4855997420773761e+01  6.3626570756749146e+01  6.1838087141385948e+01  6.0147020706793384e+01  5.9427196832180464e+01  5.8701712940149896e+01  5.7344508694991362e+01  5.6055088257773789e+01  5.5768004057441416e+01  5.5039798036828792e+01  5.4174869165953154e+01  5.3177460497493989e+01  7.3231993667506941e+01  7.1619562111035108e+01  7.0526029535056566e+01  7.0572927343353541e+01  6.9551773717855426e+01  6.7844788103513423e+01  6.6925013327227873e+01  6.6489308824700302e+01  6.4298665039393498e+01  6.3253061435476212e+01  6.1724608860582272e+01  6.0212981549467358e+01  5.8618393254148700e+01  5.7264064186703614e+01  5.6187623212258202e+01  5.5332702442047754e+01  5.4501807815455457e+01  5.3606802794379462e+01  5.2759700016729134e+01  7.2993225152482893e+01  7.3929693880472357e+01  7.4943435568849040e+01  7.4532405677931152e+01  7.5471845059741455e+01  7.4503728044537468e+01  7.3362980714862090e+01  7.2064302253547083e+01  7.2372051543296948e+01  7.1073238274544551e+01  6.9024106416523338e+01  6.8610848029353434e+01  6.7717768516840835e+01  6.6132774997674986e+01  6.7663582072178116e+01  6.4982308035200987e+01  6.3095340203777567e+01  6.2766433551631827e+01  6.0943211111449990e+01  5.9596642575540848e+01  5.8828639351935088e+01  5.7394880440708363e+01  5.7955693482166062e+01  5.6363876386075837e+01  5.5356329989911586e+01  5.4607193892937772e+01  5.3748099704459861e+01  5.2993901875886429e+01  5.2274121140017940e+01  7.5858191287000466e+01  7.6519419490304685e+01  7.6181356838495901e+01  7.5089531987975292e+01  7.3663285989272438e+01  7.3594407208465313e+01  7.2435315335068481e+01  7.0756376250534473e+01  7.0337973343176969e+01  6.9446856893301515e+01  6.8320060411847379e+01  6.6607671009291394e+01  6.4086882599007708e+01  6.2520151725068217e+01  6.1405661487156117e+01  5.9843960084251570e+01  5.8467487004575091e+01  5.7522291330957181e+01  5.6188462149760028e+01  5.5530025962367276e+01  5.4579256220327579e+01  5.4352319572258729e+01  5.3779499503944749e+01  5.3147387924124061e+01  5.2545954946838556e+01  5.2135924327719586e+01  5.1733164306194993e+01  6.1987454544809232e+01  7.7256408283609886e+01  7.7141400121841187e+01  7.7344475924508188e+01  7.6378841133770536e+01  7.5077107003356076e+01  7.4487427368320425e+01  7.3688406009644822e+01  7.1991811427235547e+01  7.2094504234215947e+01  7.0673255668456932e+01  6.9552945870447132e+01  6.7703013222509298e+01  6.6122617306766287e+01  6.3813295469206842e+01  6.1602111947052016e+01  6.1244805309249912e+01  6.0273675451885104e+01  5.8516261752092063e+01  5.6831164651618742e+01  5.5741755167861065e+01  5.5237376189309096e+01  5.4262193803888152e+01  5.3825113467414255e+01  5.3391616655910958e+01  5.3614186419937610e+01  5.2963908379028020e+01  7.7084584796049000e+01  7.7626341036524465e+01  7.7607907586559719e+01  7.8057268701721398e+01  7.8149505773182696e+01  7.7668377262282846e+01  7.6792554819465096e+01  7.5517054007794471e+01  7.4728777926827533e+01  7.4033491898163874e+01  7.2510113900975000e+01  7.1159936982678829e+01  6.9090971098003095e+01  6.6445348889620035e+01  6.4658734255272165e+01  6.2814545630642243e+01  6.1168364595476781e+01  5.9352645680470069e+01  5.8971170033953797e+01  5.7583550170586406e+01  5.6188769322504641e+01  5.5135479703840545e+01  5.4696768364749722e+01  7.6601302555640785e+01  7.7134374804465381e+01  7.7569779553987999e+01  7.8177482261810027e+01  7.7935226986369884e+01  7.8508911268975908e+01  7.8781750457551610e+01  7.8700733880878516e+01  7.8178012771363640e+01  7.7711675290618970e+01  7.6850175367428122e+01  7.6997932165181410e+01  7.5957578318866936e+01  7.6004310777916430e+01  7.4681426402903895e+01  7.3007796074401483e+01  7.2681322673699214e+01  7.1272641999354178e+01  6.7283328566196644e+01  6.4346353847201883e+01  6.1735922790117968e+01  6.1151872115336289e+01  5.9699178053173370e+01  5.8226247073551093e+01  5.7610801361565720e+01  5.5994670781412275e+01  5.5569086698213269e+01  7.5615852596611631e+01  7.6375066599038846e+01  7.7001944060909651e+01  7.7841529196248914e+01  7.8568894081817760e+01  7.8761174558134798e+01  7.9147125991702481e+01  7.9252273914981089e+01  7.9002915448073324e+01  7.7899647106155669e+01  7.8496566186612910e+01  7.7447618897997231e+01  7.7011454938640782e+01  7.6077324768704315e+01  7.4425864842297841e+01  7.3685023352230090e+01  6.4869901541142326e+01  6.1815725054323138e+01  6.0366566117008766e+01  5.9563981829186908e+01  5.7227375138640319e+01  5.6816455549906912e+01  5.6415916971643128e+01  7.5527379784597372e+01  7.6281022397721003e+01  7.6308989590794596e+01  7.7549959560177527e+01  7.8103410986397577e+01  7.8604286640590573e+01  7.9086911615459030e+01  7.9167794897731341e+01  7.9672106257027252e+01  7.9594108114117134e+01  7.9691711167353091e+01  7.9856105745549769e+01  7.9598629284438033e+01  7.9480702808882441e+01  7.9390433572089279e+01  7.8459508506956354e+01  7.7914042341730337e+01  7.6696702624290225e+01  7.6197401176622066e+01  7.4017391514296861e+01  7.8699021763872906e+01  5.8299785829885550e+01  5.7956094344306742e+01  5.7592379116188880e+01  7.5277443255816863e+01  7.5455184452545055e+01  7.5394399159127829e+01  7.6934733932367436e+01  7.7595159836175895e+01  7.7828896150754730e+01  7.8685839653788236e+01  7.9167037671407144e+01  7.9558629069248681e+01  7.9844898962930145e+01  8.0147714589421540e+01  8.0155905859947907e+01  8.0638198062695778e+01  8.0179932895976535e+01  8.0325508585915685e+01  8.0186447930277083e+01  8.0096398016220704e+01  7.9114368140477580e+01  7.9279672084260838e+01  7.8098613100102497e+01  7.8472906566234954e+01  7.4375231227293568e+01  7.1900819619667416e+01  7.9933497142387466e+01  7.3398043908426260e+01  7.1331860682428356e+01  6.9623326408529536e+01  7.4111449449075124e+01  7.3880225987248878e+01  7.5153068033862340e+01  7.6123639075781270e+01  7.6854210779153959e+01  7.7493071760562913e+01  7.8026642416055282e+01  7.8707041785119770e+01  7.9138516215189938e+01  7.9690864858358211e+01  8.0062514727887205e+01  8.0705321835765290e+01  8.0614634025205007e+01  8.1080090652389202e+01  8.1278774324835823e+01  8.0848261168150330e+01  8.0811525494577282e+01  8.0899258243742992e+01  8.0581933463665280e+01  8.0209781708185432e+01  7.2453240483918350e+01  6.9937947530127218e+01  6.7494066121787185e+01  7.3129011470181027e+01  7.3750341876683933e+01  7.4887416651586150e+01  7.5827931749619722e+01  7.5943437567102052e+01  7.6944395963477788e+01  7.7568704526971601e+01  7.8164261594847360e+01  7.8883603734087060e+01  7.9477871498586012e+01  7.9817040296700640e+01  8.0186530591271264e+01  8.0631498318074023e+01  8.0995926747775485e+01  8.1083385452804961e+01  8.1421172076727800e+01  8.1665469365317762e+01  8.1612105057957748e+01  8.1308535852723267e+01  8.1314473310222439e+01  8.1674887642160641e+01  8.1357052341804348e+01  8.1291617329036384e+01  7.1907360928519822e+01  7.8525667460291970e+01  8.1385923618103732e+01  7.0830540271844313e+01  6.8319777522347948e+01  6.5651886636235091e+01  7.2794142180142416e+01  7.4089472125702500e+01  7.5057435787196084e+01  7.5046087052982060e+01  7.6126620286325164e+01  7.7165096139150009e+01  7.7663301316285498e+01  7.8096146653694277e+01  7.8649075423329393e+01  7.9273526718656569e+01  7.9978432462640711e+01  8.0451354721632754e+01  8.0194548046528183e+01  8.0955377907878685e+01  8.1344921324460600e+01  8.1638792673947535e+01  8.1688344885605218e+01  8.1874193584712870e+01  8.1914902349373151e+01  8.1800499182612370e+01  8.2011354123100006e+01  8.1932113531628147e+01  8.1840760666574752e+01  7.0794871156208870e+01  7.1698724653676848e+01  6.9659065236583785e+01  6.6651698666561828e+01  6.4980829893056665e+01  6.3317910842117946e+01  6.3505509278435547e+01  6.8149849714613779e+01  6.9467716490062912e+01  7.0588844828921765e+01  7.2093103778897316e+01  7.3017290870194813e+01  7.4222676456478126e+01  7.4435332828366825e+01  7.5492498776754246e+01  7.6704339885987778e+01  7.7538773335619041e+01  7.8244991031629297e+01  7.8796749058531319e+01  7.9419857675057017e+01  7.9865140478600978e+01  8.0358483244117409e+01  8.0765275078206955e+01  8.1103270719967156e+01  8.1293674980306960e+01  8.1575956600355539e+01  8.1791928590389134e+01  8.1876375069308736e+01  8.2012004800272564e+01  8.2074657608054991e+01  8.2097838623547773e+01  8.2059915005562132e+01  6.5840810216657601e+01  6.8068250431883001e+01  6.9068268441071595e+01  6.9692021186781218e+01  7.1205065301868800e+01  7.2492143787283055e+01  7.3371336305203727e+01  7.3120351357968119e+01  7.4188106410940549e+01  7.5096580843231720e+01  7.6305837034106219e+01  7.6957023612316618e+01  7.7327416801739616e+01  7.7940337385749785e+01  7.8534351959024448e+01  7.9015881022992787e+01  7.9639543675423894e+01  8.0188997181703812e+01  8.0632219999603137e+01  8.1107108033711555e+01  8.1367569003381746e+01  8.1553274529992095e+01  8.1770804804358377e+01  8.1932239225796849e+01  8.2013507200154805e+01  8.2101208710940625e+01  8.2098481902215099e+01  8.1902454227883339e+01  8.1972900828654446e+01  6.4821453594945950e+01  6.3664136201980149e+01  6.0854447611610986e+01  5.9922778719737416e+01  6.0751794415020250e+01  6.7514416970070812e+01  6.8196163633888858e+01  6.8798016035222957e+01  7.0371590844511474e+01  7.1847250096965752e+01  7.2338358097336908e+01  7.2613675337719698e+01  7.3418927483804580e+01  7.3520469248205728e+01  7.4808402546182165e+01  7.5593964407312356e+01  7.6164217605594288e+01  7.6720439793392273e+01  7.7354168753206196e+01  7.7904142256764885e+01  7.8638134842004163e+01  7.9124478941756678e+01  7.9504157593407356e+01  7.9885615462358629e+01  8.0175652778941824e+01  8.0584663788843002e+01  8.1024737331496297e+01  8.1272185831479746e+01  8.1507997680405964e+01  8.1703778823453050e+01  8.1848689656909585e+01  8.1949501464567135e+01  8.2004669177484516e+01  8.2053042646972926e+01  8.2044230519640536e+01  8.1934005148880885e+01  8.1583183865995139e+01  8.1497226078987254e+01  8.1714742422176514e+01  8.1564295417228294e+01  5.7369455035050386e+01  5.6481952115387436e+01  5.7343307200444741e+01  6.9798207582389693e+01  7.1277187744557509e+01  7.1699338038696723e+01  7.2746334060396933e+01  7.3684500608724719e+01  7.4457161690489428e+01  7.5064028995754555e+01  7.5708865031294906e+01  7.6342972966716331e+01  7.7072599456292167e+01  7.7510242715207127e+01  7.7982964290872417e+01  7.8764563283809551e+01  7.9400688643512467e+01  7