<?xml version="1.0"?>
<VTKFile type="UnstructuredGrid"  version="0.1"  >
<UnstructuredGrid>
<Piece  NumberOfPoints="4638" NumberOfCells="8620">
<Points>
<DataArray  type="Float64"  NumberOfComponents="3"  format="ascii">3 0.4505813909508334 0  2.858706694155233 0.4348267766209324 0  3 0.7083486900555757 0  2.697160447111943 0.3943208942238857 0  2.895262666184017 0.6857879985520519 0  3 0.9065018226950635 0  2.507383127572992 0.3431775034306555 0  2.753392185228413 0.6300882778426198 0  2.941422924974046 0.8828458499480929 0  3 0.990182154601809 0  2.292893218813706 0.292893218813706 0  2.565213330712254 0.565213330712254 0  2.822205042701531 0.8222050427015308 0  2.978182683361986 0.9781826833619861 0  3 1 0  2.343177503430655 0.5073831275729916 0  2.63008827784262 0.7533921852284131 0  2.882845849948093 0.9414229249740464 0  2.990182154601809 1 0  3 1.009817845398191 0  3.021817316638014 1.021817316638014 0  3.009817845398191 1 0  2.394320894223886 0.6971604471119428 0  2.685787998552052 0.8952626661840173 0  2.906501822695064 1 0  2.978182683361986 1.021817316638014 0  3 1.093498177304937 0  3.058577075025954 1.117154150051907 0  3.177794957298469 1.177794957298469 0  3.117154150051907 1.058577075025954 0  3.093498177304936 1 0  2.434826776620932 0.858706694155233 0  2.708348690055576 1 0  2.882845849948093 1.058577075025954 0  2.941422924974046 1.117154150051907 0  3 1.291651309944424 0  3.104737333815983 1.314212001447948 0  3.246607814771587 1.36991172215738 0  3.434786669287746 1.434786669287746 0  3.36991172215738 1.246607814771587 0  3.314212001447948 1.104737333815983 0  3.291651309944424 1 0  2.450581390950833 1 0  2.685787998552052 1.104737333815983 0  2.822205042701531 1.177794957298469 0  2.895262666184017 1.314212001447948 0  3 1.549418609049167 0  3.141293305844767 1.565173223379068 0  3.302839552888057 1.605679105776114 0  3.492616872427008 1.656822496569345 0  3.707106781186294 1.707106781186294 0  3.656822496569345 1.492616872427008 0  3.605679105776114 1.302839552888057 0  3.565173223379068 1.141293305844767 0  3.549418609049167 1 0  2.434826776620932 1.141293305844767 0  2.63008827784262 1.246607814771587 0  2.753392185228413 1.36991172215738 0  2.858706694155233 1.565173223379068 0  2.394320894223886 1.302839552888057 0  2.565213330712254 1.434786669287746 0  2.697160447111943 1.605679105776114 0  2.343177503430655 1.492616872427008 0  2.507383127572992 1.656822496569345 0  2.292893218813706 1.707106781186294 0  2 4.549418609049167 0  1.858706694155233 4.565173223379068 0  2 4.291651309944425 0  1.697160447111943 4.605679105776114 0  1.895262666184017 4.314212001447948 0  2 4.093498177304936 0  1.507383127572992 4.656822496569345 0  1.753392185228413 4.36991172215738 0  1.941422924974046 4.117154150051907 0  2 4.009817845398191 0  1.292893218813706 4.707106781186294 0  1.565213330712254 4.434786669287746 0  1.822205042701531 4.177794957298469 0  1.978182683361986 4.021817316638014 0  2 4 0  1.343177503430655 4.492616872427009 0  1.63008827784262 4.246607814771587 0  1.882845849948093 4.058577075025953 0  1.990182154601809 4 0  2 3.990182154601809 0  2.021817316638014 3.978182683361986 0  2.009817845398191 4 0  1.394320894223886 4.302839552888058 0  1.685787998552052 4.104737333815983 0  1.906501822695063 4 0  1.978182683361986 3.978182683361986 0  2 3.906501822695064 0  2.058577075025954 3.882845849948093 0  2.177794957298469 3.822205042701531 0  2.117154150051907 3.941422924974046 0  2.093498177304936 4 0  1.434826776620932 4.141293305844767 0  1.708348690055576 4 0  1.882845849948093 3.941422924974046 0  1.941422924974046 3.882845849948093 0  2 3.708348690055576 0  2.104737333815983 3.685787998552052 0  2.246607814771587 3.63008827784262 0  2.434786669287746 3.565213330712254 0  2.36991172215738 3.753392185228413 0  2.314212001447948 3.895262666184017 0  2.291651309944424 4 0  1.450581390950833 4 0  1.685787998552052 3.895262666184017 0  1.822205042701531 3.822205042701531 0  1.895262666184017 3.685787998552052 0  2 3.450581390950833 0  2.141293305844767 3.434826776620932 0  2.302839552888057 3.394320894223886 0  2.492616872427008 3.343177503430655 0  2.707106781186294 3.292893218813706 0  2.656822496569345 3.507383127572992 0  2.605679105776114 3.697160447111943 0  2.565173223379068 3.858706694155233 0  2.549418609049167 4 0  1.434826776620932 3.858706694155233 0  1.63008827784262 3.753392185228413 0  1.753392185228413 3.63008827784262 0  1.858706694155233 3.434826776620932 0  1.394320894223886 3.697160447111943 0  1.565213330712254 3.565213330712254 0  1.697160447111943 3.394320894223886 0  1.343177503430655 3.507383127572992 0  1.507383127572992 3.343177503430655 0  1.292893218813706 3.292893218813706 0  -6 5.549418609049167 0  -5.858706694155233 5.565173223379068 0  -6 5.291651309944425 0  -5.697160447111943 5.605679105776114 0  -5.895262666184017 5.314212001447948 0  -6 5.093498177304936 0  -5.507383127572992 5.656822496569345 0  -5.753392185228413 5.36991172215738 0  -5.941422924974047 5.117154150051907 0  -6 5.009817845398191 0  -5.292893218813706 5.707106781186294 0  -5.565213330712254 5.434786669287746 0  -5.822205042701531 5.177794957298469 0  -5.978182683361986 5.021817316638014 0  -6 5 0  -5.343177503430655 5.492616872427009 0  -5.63008827784262 5.246607814771587 0  -5.882845849948093 5.058577075025953 0  -5.990182154601809 5 0  -6 4.990182154601809 0  -6.021817316638014 4.978182683361986 0  -6.009817845398191 5 0  -5.394320894223886 5.302839552888058 0  -5.685787998552052 5.104737333815983 0  -5.906501822695064 5 0  -5.978182683361986 4.978182683361986 0  -6 4.906501822695064 0  -6.058577075025953 4.882845849948093 0  -6.177794957298469 4.822205042701531 0  -6.117154150051907 4.941422924974047 0  -6.093498177304936 5 0  -5.434826776620932 5.141293305844767 0  -5.708348690055575 5 0  -5.882845849948093 4.941422924974047 0  -5.941422924974047 4.882845849948093 0  -6 4.708348690055575 0  -6.104737333815983 4.685787998552052 0  -6.246607814771587 4.63008827784262 0  -6.434786669287746 4.565213330712254 0  -6.36991172215738 4.753392185228413 0  -6.314212001447948 4.895262666184017 0  -6.291651309944425 5 0  -5.450581390950833 5 0  -5.685787998552052 4.895262666184017 0  -5.822205042701531 4.822205042701531 0  -5.895262666184017 4.685787998552052 0  -6 4.450581390950833 0  -6.141293305844767 4.434826776620932 0  -6.302839552888058 4.394320894223886 0  -6.492616872427009 4.343177503430655 0  -6.707106781186294 4.292893218813706 0  -6.656822496569345 4.507383127572991 0  -6.605679105776114 4.697160447111942 0  -6.565173223379068 4.858706694155233 0  -6.549418609049167 5 0  -5.434826776620932 4.858706694155233 0  -5.63008827784262 4.753392185228413 0  -5.753392185228413 4.63008827784262 0  -5.858706694155233 4.434826776620932 0  -5.394320894223886 4.697160447111942 0  -5.565213330712254 4.565213330712254 0  -5.697160447111942 4.394320894223886 0  -5.343177503430655 4.507383127572991 0  -5.507383127572991 4.343177503430655 0  -5.292893218813706 4.292893218813706 0  -5 2.450581390950833 0  -4.858706694155233 2.434826776620932 0  -5 2.708348690055576 0  -4.697160447111943 2.394320894223886 0  -4.895262666184017 2.685787998552052 0  -5 2.906501822695064 0  -4.507383127572992 2.343177503430655 0  -4.753392185228413 2.63008827784262 0  -4.941422924974047 2.882845849948093 0  -5 2.990182154601809 0  -4.292893218813706 2.292893218813706 0  -4.565213330712254 2.565213330712254 0  -4.822205042701531 2.822205042701531 0  -4.978182683361986 2.978182683361986 0  -5 3 0  -4.343177503430655 2.507383127572992 0  -4.63008827784262 2.753392185228413 0  -4.882845849948093 2.941422924974046 0  -4.990182154601809 3 0  -5 3.009817845398191 0  -5.021817316638014 3.021817316638014 0  -5.009817845398191 3 0  -4.394320894223886 2.697160447111943 0  -4.685787998552052 2.895262666184017 0  -4.906501822695064 3 0  -4.978182683361986 3.021817316638014 0  -5 3.093498177304936 0  -5.058577075025953 3.117154150051907 0  -5.177794957298469 3.177794957298469 0  -5.117154150051907 3.058577075025954 0  -5.093498177304936 3 0  -4.434826776620932 2.858706694155233 0  -4.708348690055575 3 0  -4.882845849948093 3.058577075025954 0  -4.941422924974047 3.117154150051907 0  -5 3.291651309944424 0  -5.104737333815983 3.314212001447948 0  -5.246607814771587 3.36991172215738 0  -5.434786669287746 3.434786669287746 0  -5.36991172215738 3.246607814771587 0  -5.314212001447948 3.104737333815983 0  -5.291651309944425 3 0  -4.450581390950833 3 0  -4.685787998552052 3.104737333815983 0  -4.822205042701531 3.177794957298469 0  -4.895262666184017 3.314212001447948 0  -5 3.549418609049167 0  -5.141293305844767 3.565173223379068 0  -5.302839552888058 3.605679105776114 0  -5.492616872427009 3.656822496569345 0  -5.707106781186294 3.707106781186294 0  -5.656822496569345 3.492616872427008 0  -5.605679105776114 3.302839552888057 0  -5.565173223379068 3.141293305844767 0  -5.549418609049167 3 0  -4.434826776620932 3.141293305844767 0  -4.63008827784262 3.246607814771587 0  -4.753392185228413 3.36991172215738 0  -4.858706694155233 3.565173223379068 0  -4.394320894223886 3.302839552888057 0  -4.565213330712254 3.434786669287746 0  -4.697160447111942 3.605679105776114 0  -4.343177503430655 3.492616872427008 0  -4.507383127572991 3.656822496569345 0  -4.292893218813706 3.707106781186294 0  5 1 0  5 1.1875 0  4.825709888222015 1.037854944111007 0  4.786264867164171 1.260115678616865 0  4.651419776444029 1.075709888222014 0  5 1.375 0  4.644818160953175 1.436037744007759 0  4.465641823823532 1.303565771594816 0  4.302839552888058 1.151419776444029 0  5 1.5625 0  4.421294993849391 1.718733939153952 0  4.746742394938785 1.678619710993132 0  5 1.75 0  4.296598959349347 1.448746669899425 0  4.128549441110072 1.189274720555036 0  4.699672700402207 1.9375 0  5 2.125 0  4.410658553323315 2.018768213700664 0  4.267130272717368 1.863474356104607 0  4.220399009241286 1.64772992213087 0  4.023462850188271 1.566385491943431 0  4.078391068383893 1.3784946945315
[...]
<PointData  Scalars="u"> 
<DataArray  type="Float64"  Name="u"  format="ascii">5.3461820405236182e+01  5.7354071461545502e+01  5.3640520430519615e+01  6.0721327508918229e+01  5.8341478224842191e+01  5.3966053384867507e+01  6.3473696112194396e+01  6.2334776403008497e+01  5.9930489162506156e+01  5.9217752921106616e+01  6.5654799189232023e+01  6.5261329850257781e+01  6.4567048372914599e+01  6.4428337160842517e+01  4.9902046448295195e+01  6.7429308168080027e+01  6.7495171706470941e+01  6.8104850511626964e+01  7.0839282586064769e+01  7.0800656661121025e+01  6.5126592886388423e+01  5.9186858638393716e+01  6.9448883020474568e+01  7.0191809012244562e+01  7.2135928436251305e+01  7.4070809006880467e+01  7.1854415268333582e+01  6.7577481647677232e+01  6.3613570251846099e+01  5.9408325154812871e+01  5.3688891250217239e+01  7.1600131826181510e+01  7.2829592245439684e+01  7.4682668753382870e+01  7.4459481651165319e+01  7.1931742900325617e+01  6.8907943462449353e+01  6.5618017211567661e+01  6.2672924882887202e+01  6.0511912262657340e+01  5.7054423111214639e+01  5.2796925786881950e+01  7.3679903111149173e+01  7.4808280698035006e+01  7.5466284582299238e+01  7.4157547044940060e+01  7.1935529252856824e+01  6.9375892099806990e+01  6.6612264077281210e+01  6.3882132348400887e+01  6.1367803822955501e+01  6.0076450636895252e+01  5.8090804049785966e+01  5.5343692366061745e+01  5.1924488051178599e+01  7.5251184176071050e+01  7.5873384878049677e+01  7.5483141765220509e+01  7.3894125181836614e+01  7.6314299792393356e+01  7.6292702834695135e+01  7.5337238469991192e+01  7.6932058579939934e+01  7.6401933214151882e+01  7.7254516487346280e+01  5.9325418071733651e+01  6.3099611087423881e+01  5.9599028483170152e+01  6.6325411060377462e+01  6.4188351076057060e+01  6.0017560171155509e+01  6.8916725110346746e+01  6.8021869256662882e+01  6.5900753009373787e+01  6.5315349623428077e+01  7.0927836946363897e+01  7.0749345943838236e+01  7.0374587682328496e+01  7.0490746878994202e+01  5.6005549187309107e+01  7.2698024554658630e+01  7.3059840321718383e+01  7.4026630912132205e+01  7.6929879101160964e+01  7.6909978477639115e+01  7.1271715938908628e+01  6.5302583465328965e+01  7.4733687167990880e+01  7.5844936692262181e+01  7.8109260670555798e+01  8.0159137202117421e+01  7.8022413180654425e+01  7.3833717566847469e+01  7.0070822147884982e+01  6.5694815171895200e+01  5.9905200695663027e+01  7.6909565455757871e+01  7.8535321645945004e+01  8.0612218002967708e+01  8.0600027375608150e+01  7.8229330780169789e+01  7.5390054273448300e+01  7.2359645565666924e+01  6.9723743481925453e+01  6.7256255606250264e+01  6.3596343408609300e+01  5.9222142495814865e+01  7.8995260174433795e+01  8.0505611228510702e+01  8.1407559766520976e+01  8.0295135761657505e+01  7.8471526213798754e+01  7.6192756903411777e+01  7.3749285011637298e+01  7.1348403997127406e+01  6.9099139854710870e+01  6.7400023910838925e+01  6.5103516358719105e+01  6.2130041993628794e+01  5.8551120290808960e+01  8.0520667117119388e+01  8.1501781073465636e+01  8.1388554527400757e+01  8.0143793018351388e+01  8.1480639489276768e+01  8.1821696399413199e+01  8.1233209251258131e+01  8.1939980643464907e+01  8.1816621359999402e+01  8.2058738217452955e+01  5.3572871416157120e+01  5.7636376539156736e+01  5.3550829551807190e+01  6.1209632372609335e+01  5.8405283103724301e+01  5.3679043982527674e+01  6.4193733898745862e+01  6.2624319597720365e+01  5.9753154428963860e+01  5.8833154065393551e+01  6.6613591224350444e+01  6.5827230900439147e+01  6.4618198669734170e+01  6.4090664277604773e+01  4.9505161273410685e+01  6.8286649852345818e+01  6.7873336050263759e+01  6.7952435582417209e+01  7.0457351260140484e+01  7.0392114084240802e+01  6.4669962023971507e+01  5.8775490988144874e+01  7.0181992968422520e+01  7.0385315809757017e+01  7.1882382803328085e+01  7.3680067494376971e+01  7.1338146187580847e+01  6.6937792603683036e+01  6.2701546620910641e+01  5.8762939538705176e+01  5.3156043657987176e+01  7.2204812215549410e+01  7.2896454991491183e+01  7.4397907795673291e+01  7.4004238796332132e+01  7.1112928494496643e+01  6.7871924649743775e+01  6.4258930609708599e+01  6.0938212233911997e+01  5.9225604477945019e+01  5.6074377707194515e+01  5.2000326459844075e+01  7.4179068271620267e+01  7.4809778989515166e+01  7.5135620678220008e+01  7.3489712556408264e+01  7.0598031555947813e+01  6.7746532051008359e+01  6.4637651609776924e+01  6.1559732336788507e+01  5.8762840393487231e+01  5.8005195593999275e+01  5.6448086010550774e+01  5.4024927857038975e+01  5.0840014493911809e+01  7.5686250457090424e+01  7.5826346492570153e+01  7.5010256890005920e+01  7.2821960151960951e+01  7.6707738651053077e+01  7.6150825173605014e+01  7.4570121034870652e+01  7.7280633793328334e+01  7.6072017139956913e+01  7.7522013412910397e+01  6.0518012780549775e+01  6.4307089209879848e+01  6.0795674173678442e+01  6.7540551412412398e+01  6.5391063844242098e+01  6.1218516901529398e+01  7.0132103408206433e+01  6.9224259882294845e+01  6.7103969768328298e+01  6.6516391036585389e+01  7.2135252050079458e+01  7.1943292274808371e+01  7.1572362614648640e+01  7.1691747749200175e+01  5.7204176069149661e+01  7.3872407649852079e+01  7.4238788874572236e+01  7.5230677768081947e+01  7.8123760054576451e+01  7.8121140098344540e+01  7.2477295680256930e+01  6.6506809818402886e+01  7.5878404732272813e+01  7.7016049224818914e+01  7.9324176003791408e+01  8.1361140149206491e+01  7.9207213390900534e+01  7.5033060776579291e+01  7.1279567209596280e+01  6.6896595355076229e+01  6.1106979209471270e+01  7.8026851322406415e+01  7.9695784051154263e+01  8.1854344273448135e+01  8.1744931505635606e+01  7.9431764257929686e+01  7.6610217569097742e+01  7.3590649593755941e+01  7.0928305435690604e+01  6.8440751921079425e+01  6.4774015848319081e+01  6.0392175872821547e+01  8.0080476004517038e+01  8.1640372652042331e+01  8.2573996613705248e+01  8.1469402054305434e+01  7.9657192207920758e+01  7.7431184102974882e+01  7.5020931728786735e+01  7.2598737050251216e+01  7.0190493162981554e+01  6.8472979698513925e+01  6.6171711798991453e+01  6.3194952372216484e+01  5.9604485286864289e+01  8.1553468264896196e+01  8.2582928538477915e+01  8.2491968843555398e+01  8.1247450832178430e+01  8.2425404512047450e+01  8.2797870420860477e+01  8.2210251263073758e+01  8.2743797498443953e+01  8.2616513800209617e+01  8.2652044544670204e+01  4.8492205376670086e+01  4.9524601927311494e+01  4.9092287054436625e+01  5.0589289234145106e+01  4.9777695968095685e+01  5.0485455061602764e+01  5.2205062070002235e+01  5.2108375398154500e+01  5.1481140757901386e+01  5.1374300740505596e+01  5.5080124275053507e+01  5.3030336801044669e+01  5.2135609103190106e+01  5.4084664105302032e+01  5.2599630010923420e+01  5.4334644474383879e+01  5.3272550765143357e+01  5.6456783238537746e+01  5.6902300105988466e+01  5.6035649008513495e+01  5.6990772405482453e+01  5.4862293137935353e+01  5.3966549212935838e+01  5.4671789289747110e+01  5.6635576316148601e+01  5.8304468384679616e+01  5.8941404086776458e+01  5.8834070880205573e+01  5.9102298570231241e+01  5.7443558726560369e+01  5.5714114357362014e+01  5.3632766310826220e+01  5.5835620956411034e+01  5.7253090094496145e+01  5.8445943036341433e+01  6.0029193422553902e+01  6.0869491811278174e+01  6.0971703605539098e+01  6.1372837567729952e+01  6.0072709543109561e+01  5.8072705206380931e+01  5.4791039362592919e+01  5.3857828165009025e+01  5.6337241058979316e+01  5.6637165990469207e+01  5.7918484761217968e+01  5.9413583275073194e+01  6.1283083566033014e+01  6.2173974490207883e+01  6.4201631830649987e+01  6.3287320531325726e+01  6.4606961738088046e+01  6.3874222945237676e+01  5.5229103156906071e+01  5.3918005216183154e+01  5.7466929637066819e+01  5.6200586890779128e+01  5.5231975720786167e+01  5.4665414155956704e+01  5.3768604784900887e+01  6.0779899696040019e+01  5.8980597453716641e+01  6.3021149632857870e+01  6.4693007687990544e+01  6.6663230762538717e+01  6.5966242965434432e+01  6.7675968133652347e+01  6.6649340959006224e+01  5.6505452371757919e+01  5.5524034109064949e+01  5.4394605127070783e+01  5.3526577432076991e+01  5.7250586981367071e+01  5.8507760446725690e+01  6.0227256452773673e+01  6.2380533514519456e+01  6.4900574845629308e+01  6.5207560831538785e+01  6.7042236947114660e+01  6.9974055133925830e+01  7.1649747729924002e+01  6.8704717797991691e+01  7.0202409305838600e+01  7.1877306840602515e+01  5.5791386328137740e+01  5.4518972514236424e+01  5.5786511867130933e+01  5.7271536271383205e+01  5.8726903672184463e+01  6.0987510688561812e+01  6.2578070223659118e+01  6.4273549060152632e+01  6.7179113169666323e+01  6.7519479033455212e+01  6.9945848567054838e+01  7.2160268845956267e+01  7.4948774718454885e+01  7.5367148672377283e+01  7.3599901151132471e+01  5.3614845901407378e+01  5.2760621880158780e+01  5.4429359378284765e+01  5.3476911572536054e+01  5.2269476542321598e+01  5.5059488891608282e+01  5.5001792026034522e+01  5.6340073192457425e+01  5.7845645016431021e+01  6.1063271602009365e+01  6.2015355848904143e+01  6.4712785950214226e+01  6.6543863874864414e+01  6.8857237567008994e+01  7.0138765418431859e+01  7.2188457744875038e+01  7.4124460655556803e+01  7.6266147649014229e+01  7.6585120417681352e+01  7.6405744760484737e+01  5.2718953320472941e+01  5.1730290536572895e+01  5.3802608030365782e+01  5.9616503190179522e+01  6.0651701650858392e+01  6.1861254753061516e+01  6.7397441747632982e+01  6.9095073293177222e+01  6.8881138105823695e+01  7.1267932050458640e+01  7.0914969990251862e+01  7.3387901157100075e+01  7.5826526703109863e+01  7.7815641075468150e+01  7.7677634748551213e+01  7.7260823762431869e+01  7.5126908619834808e+01  6.5072084409107717e+01  7.3001115401633754e+01  7.4020904805822710e+01  7.6532639490319070e+01  7.8163882694473202e+01  7.8977159325358855e+01  7.8806525527256198e+01  7.8306433323264542e+01  7.7558049951761504e+01  7.6929813754613917e+01  7.1343402913136316e+01  7.5924328385485637e+01  7.3767574520488196e+01  7.8788234225697735e+01  7.9730993884234309e+01  7.9880605285305236e+01  7.9886170936751313e+01  7.9512961949486936e+01  7.8882319156331533e+01  7.7935511352753679e+01  7.6741695403987620e+01  7.6316768016811608e+01  7.7638159187057653e+01  7.8474039796853518e+01  7.9106465977831220e+01  8.0115170841743421e+01  8.0908393597040359e+01  8.0486921717739534e+01  8.0552467135591570e+01  8.0482760699763645e+01  7.9935213231497841e+01  7.9168874846270199e+01  7.8572091995911151e+01  7.7071817365382444e+01  7.4796175644991450e+01  7.5540184498897361e+01  7.3804409375523718e+01  8.0142674763265418e+01  8.1240718467348231e+01  8.0971117701643635e+01  8.1519650138678472e+01  8.1479807992154718e+01  8.1161347983196933e+01  8.1323353690507261e+01  8.0616200582150057e+01  8.0183717505293473e+01  7.9242147844856007e+01  7.8093764123816726e+01  7.7179651373164276e+01  7.6002030162194771e+01  7.4884199636059179e+01  7.2982804000590761e+01  7.1450053173643894e+01  7.2755690503786539e+01  6.9478391256173737e+01  8.1819714507404129e+01  8.2067461270210813e+01  8.1901715743826770e+01  8.1800098246662472e+01  8.1666509091385635e+01  8.0993912299881202e+01  8.0527056547017068e+01  7.9860296036100237e+01  7.9499327427297999e+01  7.8373787825212872e+01  7.7053045318399583e+01  7.5368150018310473e+01  7.4684500475013508e+01  7.2936423933841041e+01  7.1763108658717655e+01  7.0183305201412608e+01  6.9082618953114306e+01  6.7420675770143674e+01  8.2104909195320332e+01  8.2119327573343867e+01  8.2038709673441701e+01  8.1941470278659253e+01  8.1912620779968151e+01  8.1959483016213994e+01  8.1777729773564886e+01  8.1495468956495557e+01  8.1286560659251421e+01  8.0779544194388436e+01  7.9902891814285510e+01  7.8936054827210398e+01  7.8616357641364388e+01  7.7343093413634719e+01  7.6537244579328132e+01  7.5453627726334744e+01  7.4244467170626677e+01  7.3607477604898165e+01  7.1847427262793431e+01  7.0131862685477245e+01  6.8278925695749166e+01  6.6282010139944873e+01  6.5640785956526884e+01  8.1767788981652131e+01  8.1237719106299053e+01  8.1510524310804882e+01  8.1993037246736236e+01  8.1957752655464176e+01  8.1816265145381720e+01  8.1496330604924552e+01  8.1087814234660101e+01  8.0498963008416439e+01  7.9990232944200969e+01  7.9196604698347272e+01  7.8378616764206939e+01  7.7914326636322286e+01  7.7531795428837540e+01  7.6369927983928491e+01  7.5116930665956275e+01  7.3978192913910263e+01  7.2582357908227948e+01  7.1909481235268188e+01  7.0377684849430253e+01  6.8759693112288431e+01  6.7474206221107039e+01  6.5804249087298246e+01  6.3620467535757527e+01  6.0813294621322299e+01  6.3458226836714310e+01  7.3239345036687624e+01  8.0793397047639772e+01  8.1305400083590428e+01  8.1762427142234841e+01  8.1833347858027594e+01  8.1735164095095342e+01  8.1581969282915907e+01  8.1189635984630087e+01  8.0700492821521422e+01  8.0071255847532072e+01  7.9387628045984499e+01  7.8730658599340359e+01  7.7723443297544435e+01  7.7468951965447133e+01  7.6691602748077003e+01  7.5717527208185629e+01  7.4023107837311073e+01  7.2796970158299644e+01  7.1711060842339236e+01  7.1249355430364474e+01  6.9762469164696981e+01  7.9420302399254595e+01  7.9990234987673631e+01  7.9057577828300609e+01  7.7182655178802406e+01  5.7357838770154778e+01  6.0178877160658928e+01  6.0710641003943458e+01  8.0666904184526715e+01  8.1448565703336868e+01  8.1591906683958598e+01  8.1629686750476807e+01  8.1546217763850592e+01  8.1308894240559169e+01  8.0852461398097773e+01  8.0772824766657180e+01  8.0285910724307215e+01  7.9667950076989186e+01  7.8639112230174760e+01  7.9466759303715406e+01  7.9869354107494871e+01  7.8474028713308343e+01  7.7983219852515262e+01  7.7706026322327446e+01  7.4733694508740825e+01  7.7967258542815628e+01  7.7049628672710455e+01  7.6628692607566009e+01  7.5733062108644134e+01  7.4708145403941245e+01  7.3732717682810488e+01  7.2790604278851802e+01  7.1141329757630444e+01  7.0540471239419617e+01  5.6418786304450038e+01  5.3395956143127336e+01  8.0819413573040009e+01  8.1329556813022521e+01  8.1339189899463236e+01  8.1437336906377283e+01  8.1281374935457663e+01  8.0878940234990182e+01  8.0409649916045325e+01  8.0363912935737403e+01  7.9785882559279926e+01  7.8873542265457829e+01  7.8127745286917261e+01  7.7810085495244891e+01  7.6922400997109833e+01  7.6217153228313549e+01  7.6253402192121783e+01  7.4889702489311347e+01  7.3695159259709371e+01  7.2918304988292263e+01  7.1923895228758411e+01  7.1593399451378048e+01  7.9930997397432080e+01  7.9031346694029281e+01  7.8054567814830250e+01  7.6954336504695007e+01  7.6174072056731902e+01  7.4742986126546015e+01  7.2687457969515563e+01  8.0891649999180800e+01  8.0998283337457394e+01  8.1179210893412503e+01  8.1328524591799251e+01  8.1195504998715052e+01  8.0969987501036542e+01  8.0585132496966722e+01  8.0105436637852321e+01  7.9905205634697936e+01  7.9144200957125662e+01  7.8473725433759213e+01  7.7788149058726191e+01  7.7415400000680521e+01  7.6312119198247771e+01  7.5958855455418131e+01  7.5418918577850107e+01  7.4198229435221720e+01  7.3245665178503913e+01  7.2146057698067409e+01  8.0376904643540627e+01  7.9863409500137465e+01  7.9022239008365474e+01  7.7748423996016058e+01  7.6773659240842306e+01  7.4972311890405393e+01  7.3635781662371713e+01  7.0924862337245614e+01  8.0588449738304263e+01  8.0804880321161448e+01  8.1040764247926504e+01  8.1203968207144115e+01  8.1146739477220294e+01  8.1062500439085142e+01  8.0975898793675810e+01  8.0628295008975826e+01  8.0119663758705954e+01  7.9330459026101607e+01  7.9616646207584495e+01  7.9403033117757928e+01  7.8453191698749208e+01  7.7763870224118975e+01  7.6763072290086569e+01  7.5633103969308053e+01  7.4990080107454162e+01  7.4682613344310880e+01  7.3344924652829008e+01  7.2272009482179371e+01  7.9331388736290805e+01  7.8076725627890610e+01  7.6421099308507763e+01  7.5157966819634268e+01  7.2862614809812086e+01  7.1830971203750764e+01  6.9684438986481268e+01  6.6444836040945006e+01  6.8931288681656341e+01  7.9915079666812716e+01  8.0099265544442545e+01  8.0271116063063317e+01  8.0538986037634373e+01  8.0854763551906942e+01  8.1054841549475015e+01  8.1036726979948455e+01  8.0891378314351812e+01  8.0625190910009906e+01  8.0276970925338972e+01  7.9811185363130875e+01  7.9409806256637879e+01  7.8616704821332249e+01  7.8589549297079671e+01  7.9055209459387754e+01  7.8403826943989756e+01  7.7281071853051685e+01  7.6462323306288212e+01  7.6111409228663646e+01  7.4964289581562426e+01  7.4444105292219149e+01  7.3854676931284601e+01  7.2311797529355303e+01  7.8639343259631261e+01  7.9019470658946460e+01  7.7769982131466264e+01  7.6961191089014136e+01  7.5432635948436200e+01  7.3742247252899844e+01  7.2096799281858708e+01  6.9950704683121131e+01  6.7634615898996572e+01  6.6912217273807912e+01  6.3865198052925940e+01  6.2785138875185780e+01  6.6280099083184822e+01  7.9520938586516166e+01  7.8698276661996545e+01  7.9806667614577307e+01  8.0221650401126453e+01  8.0408442927896189e+01  8.0766095962406098e+01  8.0915103753533799e+01  8.0959581764672834e+01  8.0803186144427343e+01  8.0381582214985599e+01  7.9903406337495070e+01  7.9454082371018373e+01  7.8940644594119107e+01  7.8188829673567199e+01  7.7490158291057639e+01  7.7108771429938884e+01  7.5902088452964733e+01  7.5447318841839262e+01  7.4239091447471992e+01  7.3771537611961222e+01  7.3331081117346457e+01  7.2271044806279747e+01  7.7942385433284244e+01  7.8260967215065449e+01  7.7000022418765084e+01  7.6141628039972431e+01  7.5581912049087350e+01  7.4090103446910433e+01  7.2589735248914593e+01  7.0475657401505003e+01  6.7815701023643001e+01  6.5640468533364754e+01  6.2543694650099084e+01  6.0808910007497254e+01  7.8506430754314124e+01  7.9274344377101315e+01  7.9806538680260715e+01  7.9958615465533640e+01  8.0359886641551526e+01  8.0638419317531444e+01  8.0885431300700276e+01  8.0927394475710827e+01  8.0903396378731046e+01  8.0779758658146051e+01  8.0560190440641335e+01  8.0207809189377414e+01  7.9783938304728167e+01  7.9195751081428455e+01  7.8625474396828480e+01  7.7980957704754715e+01  7.7233873420790104e+01  7.6320245303328306e+01  7.6587348244292372e+01  7.5783881804669647e+01  7.4967462420571039e+01  7.4966075888922674e+01  7.3956604511297840e+01  7.3118435762972354e+01  7.2152509562189408e+01  7.8065731953900197e+01  7.7513469193295336e+01  7.6544379977860771e+01  7.5554249339116865e+01  7.4926234431241426e+01  7.4363188534840177e+01  7.2687473124972598e+01  7.1051365135179253e+01  6.9206722999740350e+01  6.8604746809311166e+01  6.5851560727253172e+01  6.5647328430098383e+01  6.3650486661646390e+01  6.2020647362419531e+01  5.9481962253764131e+01  6.0085832996458130e+01  7.8995626034542525e+01  7.8326618076885310e+01  7.7867134105497925e+01  7.7365067943774761e+01  7.6034155410391051e+01  7.5256241097266681e+01  7.4372964781445617e+01  7.3856451689730306e+01  7.3279646901616104e+01  7.2177374277499638e+01  7.1059326145349317e+01  6.9473657609023789e+01  6.8260971372661928e+01  6.5962765563989166e+01  6.7303644299680641e+01  7.9462679112734364e+01  8.0062346439857592e+01  8.0320978737288129e+01  8.0560453681788815e+01  8.0778560524306812e+01  8.0926564000064957e+01  8.0869816001403905e+01  8.0638483361359675e+01  8.0353467789986894e+01  7.9890290113845282e+01  7.8960659718003754e+01  7.8291864547150496e+01  7.7349512100693914e+01  7.6452281935738810e+01  7.5409720498573336e+01  7.5243874006657734e+01  7.4419995960988459e+01  7.3686022944896081e+01  7.4430964166300612e+01  7.2739346494714695e+01  7.3207109165373538e+01  7.1958962392300180e+01  6.4319033559624430e+01  6.2497218746750562e+01  6.0530320222470067e+01  5.8939215049596044e+01  6.3897425745656122e+01  7.8873193554871534e+01  7.8228960195831675e+01  7.7440240920282392e+01  7.7199871049660857e+01  7.6682879447486840e+01  7.5794694410173477e+01  7.4980157869542580e+01  7.4246345855347812e+01  7.3473533066340394e+01  7.2520305919054181e+01  7.1549123181839775e+01  7.0024977446844872e+01  6.8675263113469043e+01  6.7411746142166038e+01  7.9248020183036715e+01  7.9745454618591054e+01  8.0047309976116935e+01  8.0602371396586960e+01  8.0806662295530572e+01  8.0951177583497696e+01  8