<?xml version="1.0"?>
<VTKFile type="UnstructuredGrid"  version="0.1"  >
<UnstructuredGrid>
<Piece  NumberOfPoints="5138" NumberOfCells="9604">
<Points>
<DataArray  type="Float64"  NumberOfComponents="3"  format="ascii">3 0.4118207621415985 0  2.850097571428131 0.4003902857125256 0  3 0.6451325180728931 0  2.685321360221745 0.3706427204434891 0  2.876293965053353 0.62888189516006 0  3 0.8443666535747749 0  2.499093303904763 0.3321244052063501 0  2.726084095315085 0.5891261429726272 0  2.911582771125035 0.8231655422500692 0  3 0.9693365453905908 0  2.292893218813691 0.292893218813691 0  2.542331217136824 0.5423312171368238 0  2.775577275295324 0.7755772752953246 0  2.950052991924517 0.9500529919245165 0  3 1 0  2.33212440520635 0.4990933039047626 0  2.589126142972627 0.7260840953150849 0  2.823165542250069 0.9115827711250346 0  2.969336545390591 1 0  3 1.030663454609409 0  3.049947008075483 1.049947008075483 0  3.030663454609409 1 0  2.370642720443489 0.6853213602217444 0  2.62888189516006 0.8762939650533533 0  2.844366653574775 1 0  2.950052991924517 1.049947008075483 0  3 1.155633346425225 0  3.088417228874965 1.176834457749931 0  3.224422724704676 1.224422724704675 0  3.176834457749931 1.088417228874965 0  3.155633346425225 1 0  2.400390285712525 0.8500975714281314 0  2.645132518072893 1 0  2.823165542250069 1.088417228874965 0  2.911582771125035 1.176834457749931 0  3 1.354867481927107 0  3.123706034946647 1.37111810483994 0  3.273915904684915 1.410873857027373 0  3.457668782863176 1.457668782863176 0  3.410873857027373 1.273915904684915 0  3.37111810483994 1.123706034946647 0  3.354867481927107 1 0  2.411820762141598 1 0  2.62888189516006 1.123706034946647 0  2.775577275295324 1.224422724704675 0  2.876293965053353 1.37111810483994 0  3 1.588179237858402 0  3.149902428571869 1.599609714287475 0  3.314678639778255 1.629357279556511 0  3.500906696095238 1.66787559479365 0  3.707106781186309 1.707106781186309 0  3.66787559479365 1.500906696095238 0  3.629357279556511 1.314678639778255 0  3.599609714287475 1.149902428571869 0  3.588179237858402 1 0  2.400390285712525 1.149902428571869 0  2.589126142972627 1.273915904684915 0  2.726084095315085 1.410873857027373 0  2.850097571428131 1.599609714287475 0  2.370642720443489 1.314678639778255 0  2.542331217136824 1.457668782863176 0  2.685321360221745 1.629357279556511 0  2.33212440520635 1.500906696095238 0  2.499093303904762 1.66787559479365 0  2.292893218813691 1.707106781186309 0  2 4.588179237858402 0  1.850097571428131 4.599609714287475 0  2 4.354867481927107 0  1.685321360221745 4.629357279556511 0  1.876293965053353 4.37111810483994 0  2 4.155633346425225 0  1.499093303904763 4.667875594793649 0  1.726084095315085 4.410873857027373 0  1.911582771125035 4.176834457749931 0  2 4.030663454609409 0  1.292893218813691 4.707106781186309 0  1.542331217136824 4.457668782863176 0  1.775577275295325 4.224422724704676 0  1.950052991924517 4.049947008075484 0  2 4 0  1.33212440520635 4.500906696095237 0  1.589126142972627 4.273915904684915 0  1.823165542250069 4.088417228874965 0  1.969336545390591 4 0  2 3.969336545390591 0  2.049947008075483 3.950052991924517 0  2.030663454609409 4 0  1.370642720443489 4.314678639778256 0  1.62888189516006 4.123706034946647 0  1.844366653574775 4 0  1.950052991924517 3.950052991924517 0  2 3.844366653574775 0  2.088417228874965 3.823165542250069 0  2.224422724704676 3.775577275295324 0  2.176834457749931 3.911582771125035 0  2.155633346425225 4 0  1.400390285712525 4.149902428571869 0  1.645132518072893 4 0  1.823165542250069 3.911582771125035 0  1.911582771125035 3.823165542250069 0  2 3.645132518072893 0  2.123706034946647 3.62888189516006 0  2.273915904684915 3.589126142972627 0  2.457668782863176 3.542331217136824 0  2.410873857027373 3.726084095315085 0  2.37111810483994 3.876293965053353 0  2.354867481927107 4 0  1.411820762141598 4 0  1.62888189516006 3.876293965053353 0  1.775577275295325 3.775577275295324 0  1.876293965053353 3.62888189516006 0  2 3.411820762141598 0  2.149902428571869 3.400390285712525 0  2.314678639778255 3.370642720443489 0  2.500906696095238 3.33212440520635 0  2.707106781186309 3.292893218813691 0  2.66787559479365 3.499093303904762 0  2.629357279556511 3.685321360221745 0  2.599609714287475 3.850097571428131 0  2.588179237858402 4 0  1.400390285712525 3.850097571428131 0  1.589126142972627 3.726084095315085 0  1.726084095315085 3.589126142972627 0  1.850097571428131 3.400390285712525 0  1.370642720443489 3.685321360221745 0  1.542331217136824 3.542331217136824 0  1.685321360221745 3.370642720443489 0  1.33212440520635 3.499093303904762 0  1.499093303904762 3.33212440520635 0  1.292893218813691 3.292893218813691 0  -6 5.588179237858402 0  -5.850097571428131 5.599609714287475 0  -6 5.354867481927107 0  -5.685321360221745 5.629357279556511 0  -5.876293965053353 5.37111810483994 0  -6 5.155633346425225 0  -5.499093303904763 5.667875594793649 0  -5.726084095315085 5.410873857027373 0  -5.911582771125035 5.176834457749931 0  -6 5.030663454609409 0  -5.292893218813691 5.707106781186309 0  -5.542331217136824 5.457668782863176 0  -5.775577275295324 5.224422724704676 0  -5.950052991924516 5.049947008075484 0  -6 5 0  -5.332124405206351 5.500906696095237 0  -5.589126142972627 5.273915904684915 0  -5.823165542250069 5.088417228874965 0  -5.969336545390591 5 0  -6 4.969336545390591 0  -6.049947008075484 4.950052991924516 0  -6.030663454609409 5 0  -5.370642720443489 5.314678639778256 0  -5.62888189516006 5.123706034946647 0  -5.844366653574775 5 0  -5.950052991924516 4.950052991924516 0  -6 4.844366653574775 0  -6.088417228874965 4.823165542250069 0  -6.224422724704676 4.775577275295324 0  -6.176834457749931 4.911582771125035 0  -6.155633346425225 5 0  -5.400390285712525 5.149902428571869 0  -5.645132518072893 5 0  -5.823165542250069 4.911582771125035 0  -5.911582771125035 4.823165542250069 0  -6 4.645132518072893 0  -6.123706034946647 4.62888189516006 0  -6.273915904684915 4.589126142972627 0  -6.457668782863176 4.542331217136824 0  -6.410873857027373 4.726084095315085 0  -6.37111810483994 4.876293965053353 0  -6.354867481927107 5 0  -5.411820762141598 5 0  -5.62888189516006 4.876293965053353 0  -5.775577275295324 4.775577275295324 0  -5.876293965053353 4.62888189516006 0  -6 4.411820762141598 0  -6.149902428571869 4.400390285712525 0  -6.314678639778256 4.370642720443489 0  -6.500906696095237 4.332124405206351 0  -6.707106781186309 4.292893218813691 0  -6.667875594793649 4.499093303904763 0  -6.629357279556511 4.685321360221744 0  -6.599609714287475 4.850097571428131 0  -6.588179237858402 5 0  -5.400390285712525 4.850097571428131 0  -5.589126142972627 4.726084095315085 0  -5.726084095315085 4.589126142972627 0  -5.850097571428131 4.400390285712525 0  -5.370642720443489 4.685321360221744 0  -5.542331217136824 4.542331217136824 0  -5.685321360221744 4.370642720443489 0  -5.332124405206351 4.499093303904763 0  -5.499093303904763 4.332124405206351 0  -5.292893218813691 4.292893218813691 0  -5 2.411820762141598 0  -4.850097571428131 2.400390285712525 0  -5 2.645132518072893 0  -4.685321360221745 2.370642720443489 0  -4.876293965053353 2.62888189516006 0  -5 2.844366653574775 0  -4.499093303904763 2.33212440520635 0  -4.726084095315085 2.589126142972627 0  -4.911582771125035 2.823165542250069 0  -5 2.969336545390591 0  -4.292893218813691 2.292893218813691 0  -4.542331217136824 2.542331217136824 0  -4.775577275295324 2.775577275295324 0  -4.950052991924516 2.950052991924517 0  -5 3 0  -4.332124405206351 2.499093303904762 0  -4.589126142972627 2.726084095315085 0  -4.823165542250069 2.911582771125035 0  -4.969336545390591 3 0  -5 3.030663454609409 0  -5.049947008075484 3.049947008075483 0  -5.030663454609409 3 0  -4.370642720443489 2.685321360221745 0  -4.62888189516006 2.876293965053353 0  -4.844366653574775 3 0  -4.950052991924516 3.049947008075483 0  -5 3.155633346425225 0  -5.088417228874965 3.176834457749931 0  -5.224422724704676 3.224422724704676 0  -5.176834457749931 3.088417228874965 0  -5.155633346425225 3 0  -4.400390285712525 2.850097571428131 0  -4.645132518072893 3 0  -4.823165542250069 3.088417228874965 0  -4.911582771125035 3.176834457749931 0  -5 3.354867481927107 0  -5.123706034946647 3.37111810483994 0  -5.273915904684915 3.410873857027373 0  -5.457668782863176 3.457668782863176 0  -5.410873857027373 3.273915904684915 0  -5.37111810483994 3.123706034946647 0  -5.354867481927107 3 0  -4.411820762141598 3 0  -4.62888189516006 3.123706034946647 0  -4.775577275295324 3.224422724704676 0  -4.876293965053353 3.37111810483994 0  -5 3.588179237858402 0  -5.149902428571869 3.599609714287475 0  -5.314678639778256 3.629357279556511 0  -5.500906696095237 3.66787559479365 0  -5.707106781186309 3.707106781186309 0  -5.667875594793649 3.500906696095238 0  -5.629357279556511 3.314678639778255 0  -5.599609714287475 3.149902428571869 0  -5.588179237858402 3 0  -4.400390285712525 3.149902428571869 0  -4.589126142972627 3.273915904684915 0  -4.726084095315085 3.410873857027373 0  -4.850097571428131 3.599609714287475 0  -4.370642720443489 3.314678639778255 0  -4.542331217136824 3.457668782863176 0  -4.685321360221744 3.629357279556511 0  -4.332124405206351 3.500906696095238 0  -4.499093303904763 3.66787559479365 0  -4.292893218813691 3.707106781186309 0  5 1 0  5 1.1875 0  4.828669659944564 1.039334829972282 0  5 1.375 0  4.799955282837507 1.28125 0  4.657339319889128 1.078669659944564 0  4.820634918236892 1.506417692786598 0  4.6452355475728 1.438948303365132 0  4.608183587928194 1.257360882676231 0  4.486008979833692 1.118004489916846 0  5 1.5625 0  4.747895110462368 1.679697749640207 0  5 1.75 0  4.573762165742714 1.611688335159911 0  4.356652757945501 1.442880316242406 0  4.314678639778256 1.157339319889128 0  4.702758856255141 1.9375 0  4.42396586971011 1.723530333486135 0  4.232041642026576 1.621165377692019 0  4.149300793242634 1.407019981108342 0  4.143348299722819 1.19667414986141 0  5 1.9375 0  4.761477544891046 
[...]
<PointData  Scalars="u"> 
<DataArray  type="Float64"  Name="u"  format="ascii">5.3468004394173569e+01  5.7357529595259706e+01  5.3601500470340795e+01  6.0733632513895081e+01  5.8414140586911955e+01  5.3783818807266528e+01  6.3482988756929892e+01  6.2417278749834317e+01  6.0294620918908961e+01  5.5714931020535239e+01  6.5653586205342862e+01  6.5310825873375151e+01  6.4809144477714710e+01  6.4651886071299160e+01  5.4054560674459758e+01  6.7443688062681559e+01  6.7613826670503798e+01  6.8416572096103636e+01  7.1091833469072483e+01  7.0999821114479204e+01  6.4707540709728605e+01  5.5623384194873978e+01  6.9493474592370077e+01  7.0391711042243756e+01  7.2399679821188556e+01  7.4394357884380597e+01  7.1925878526985201e+01  6.7614653655410947e+01  6.3529071174428289e+01  5.9507969323478520e+01  5.3326163066232027e+01  7.1681965895584938e+01  7.3050882952600702e+01  7.4841355393106738e+01  7.4569214886671176e+01  7.1947170694381384e+01  6.8866105367180481e+01  6.5522917816692868e+01  6.2575406332724825e+01  6.0394623732838241e+01  5.6932587258742892e+01  5.2583451653612840e+01  7.3771212772604230e+01  7.5021379816630670e+01  7.5539516732703049e+01  7.4218915279241543e+01  7.1896128138571058e+01  6.9313755213904187e+01  6.6539449353749404e+01  6.3834025360823254e+01  6.1366501035486728e+01  6.0029395407311625e+01  5.8004274057410647e+01  5.5231941015972652e+01  5.1830493023705799e+01  7.5347017526506789e+01  7.6004313020105386e+01  7.5567938360748215e+01  7.3902352142391379e+01  7.6387890184810118e+01  7.6363539233562193e+01  7.5371213608474079e+01  7.6970218196233674e+01  7.6431293075753928e+01  7.7254662379816352e+01  5.9318856367607566e+01  6.3088835365535537e+01  5.9534372096897542e+01  6.6326152482132670e+01  6.4225349890529685e+01  5.9804405650476490e+01  6.8920188930951497e+01  6.8070496340325548e+01  6.6206988622302873e+01  6.1800750296009390e+01  7.0926958299126298e+01  7.0776504764555582e+01  7.0550622260575224e+01  7.0666362950415149e+01  6.0158057390638440e+01  7.2703712580203998e+01  7.3128463632733187e+01  7.4254174747039855e+01  7.7156339263375244e+01  7.7120815178805060e+01  7.0904691805922539e+01  6.1764627331160980e+01  7.4753043616293837e+01  7.5965918327217295e+01  7.8297802721951896e+01  8.0461189569133694e+01  7.8125893873930778e+01  7.3952870316023194e+01  7.0086767468749159e+01  6.5886752766396881e+01  5.9612408083636069e+01  7.6945908912286598e+01  7.8661556617360418e+01  8.0744983728753269e+01  8.0651423903480222e+01  7.8297838385210611e+01  7.5433381721409944e+01  7.2350563675817497e+01  6.9682938673481260e+01  6.7211501842012780e+01  6.3547461615759538e+01  5.9065455656337484e+01  7.9026104412245118e+01  8.0626427159210380e+01  8.1422512030372218e+01  8.0363263798294554e+01  7.8473628450058868e+01  7.6191591927538553e+01  7.3731875870884849e+01  7.1329502484557210e+01  6.9097822679625310e+01  6.7372646184903829e+01  6.5047546708470605e+01  6.2049514600563427e+01  5.8479307303633249e+01  8.0554203027413905e+01  8.1558501522798352e+01  8.1436801777307480e+01  8.0161331658218913e+01  8.1502979120775493e+01  8.1843734142722184e+01  8.1249298585344647e+01  8.1948749293763939e+01  8.1824021603833998e+01  8.2058632950575586e+01  5.3603518633261949e+01  5.7670230008670096e+01  5.3568535651809732e+01  6.1245253685181858e+01  5.8603090445321811e+01  5.3579754852724847e+01  6.4214108837317823e+01  6.2827842676484224e+01  6.0413147118729597e+01  5.5548628787436897e+01  6.6611402247265275e+01  6.5944453254008408e+01  6.5146720656331269e+01  6.5141447177830813e+01  5.4713751554251417e+01  6.8314217916050666e+01  6.8153170157212429e+01  6.8806381941006336e+01  7.2877788668691778e+01  7.2701681602042427e+01  6.4971195641172798e+01  5.5374471578106785e+01  7.0259816212415856e+01  7.0871650321257192e+01  7.2935068331974009e+01  7.5499174101374308e+01  7.2012448758549326e+01  6.7260716253465489e+01  6.2658402486663363e+01  5.8930236885590155e+01  5.2723787179247253e+01  7.2341055163230408e+01  7.3482370062737033e+01  7.5255191360383733e+01  7.4716935325727604e+01  7.1274604846786460e+01  6.7875194194760894e+01  6.4128083711368802e+01  6.0795484140618377e+01  5.9070241354256019e+01  5.5908439126521280e+01  5.1713084299336849e+01  7.4337698612820020e+01  7.5348745584436884e+01  7.5607307317911363e+01  7.3730643630236074e+01  7.0467586191719377e+01  6.7581657166308915e+01  6.4484753842459980e+01  6.1473584543985517e+01  5.8761208474673367e+01  5.7931058087044910e+01  5.6317808501921199e+01  5.3866891161249065e+01  5.0707019259690760e+01  7.5841648136534587e+01  7.6164734819959889e+01  7.5243059034177193e+01  7.2770729942590933e+01  7.6823678287064538e+01  7.6306840572276855e+01  7.4585637989400112e+01  7.7340176555459593e+01  7.6107498187394867e+01  7.7522246135033384e+01  6.0509260900195493e+01  6.4298583114575308e+01  6.0732212988142400e+01  6.7542503244183422e+01  6.5485896044462606e+01  6.1020727516190320e+01  7.0135479233531768e+01  6.9334487813215944e+01  6.7601844021389638e+01  6.3195894954382865e+01  7.2133832472497360e+01  7.2000315350622145e+01  7.1926705237141931e+01  7.2619581082790674e+01  6.2416660956977196e+01  7.3876736693816397e+01  7.4391452796429121e+01  7.5866124089029071e+01  8.0493943121620717e+01  8.0460279770004178e+01  7.2909109459039342e+01  6.3161035122456319e+01  7.5893301589531831e+01  7.7311210600132071e+01  8.0176051377010069e+01  8.3147800024610376e+01  8.0020933376108758e+01  7.5586658634808487e+01  7.1485203565906005e+01  6.7284638685414379e+01  6.0825758606391368e+01  7.8054707571338156e+01  8.0064506794366451e+01  8.2556053162141410e+01  8.2474848917953594e+01  7.9757256229168505e+01  7.6844571691533048e+01  7.3674612231800367e+01  7.0914170142062630e+01  6.8447835930897952e+01  6.4765675863377368e+01  6.0217384446463377e+01  8.0100172376464172e+01  8.1982511405229218e+01  8.2940536618049521e+01  8.1760516313930367e+01  7.9655607538641192e+01  7.7432391151755809e+01  7.5006791447735139e+01  7.2578706973399918e+01  7.0187913169214497e+01  6.8435293388028370e+01  6.6097983170706584e+01  6.3092089171368656e+01  5.9505141643764937e+01  8.1569920466265330e+01  8.2766744827852492e+01  8.2667523596120887e+01  8.1248673687410175e+01  8.2429467986438056e+01  8.2855122655064420e+01  8.2204555691290167e+01  8.2739920594681777e+01  8.2608986365197282e+01  8.2651666167182967e+01  4.8492232634606289e+01  4.9526009251921622e+01  4.9097675692901419e+01  5.0493351758099784e+01  5.0664702003513447e+01  4.9782975420913267e+01  5.1837082547139701e+01  5.2227781328951650e+01  5.1191104288981371e+01  5.0565199710388370e+01  5.1369656964430604e+01  5.3028186709710397e+01  5.2133403618673285e+01  5.3599931816458650e+01  5.3699611698457730e+01  5.1501296240055190e+01  5.4314724036409231e+01  5.5090646487243298e+01  5.5775119743673145e+01  5.4651898457035678e+01  5.2600753604832768e+01  5.2774715886803236e+01  5.4658201799508959e+01  5.5496140505155765e+01  5.6440544003997097e+01  5.6866870976221840e+01  5.7074804105825031e+01  5.7500692931750557e+01  5.3971273025583578e+01  5.3272931928226583e+01  5.5816529426841669e+01  5.6663543317964937e+01  5.8308053251385637e+01  5.8150353351093955e+01  5.8836448450236745e+01  6.0329902348127945e+01  6.1373436823409079e+01  6.0026424587643291e+01  5.5695204767600039e+01  5.4773283039434808e+01  5.3632829142269820e+01  5.7425296250721473e+01  5.9191257129462812e+01  5.9888217879496054e+01  6.0418601738224574e+01  6.2159590189241143e+01  6.5231948939739524e+01  6.3845283279516053e+01  5.6316501523009471e+01  5.5234937792725084e+01  5.3856453175339112e+01  5.8005845942680232e+01  5.6629383486074786e+01  5.8125867813800888e+01  5.9434649926769850e+01  6.1301494663660428e+01  6.1502658108010635e+01  6.2581651758106879e+01  6.4930945863975637e+01  6.6789741679316677e+01  6.8766970231272964e+01  6.6716762260212391e+01  6.6539871549689678e+01  5.5233425893739785e+01  5.3945863806633717e+01  5.6181291622910599e+01  5.5515883350938019e+01  5.7129081514050270e+01  5.9008597846297803e+01  6.0673774537632923e+01  6.3056028006495204e+01  6.4167742792124599e+01  6.6028812417815246e+01  6.7919506922804544e+01  6.9929479103935861e+01  7.1086275344919855e+01  6.9487341706219311e+01  7.1852714737548936e+01  5.3916969852391496e+01  5.4670321214292684e+01  5.4406023069575063e+01  5.5811153022643467e+01  5.7274944417695465e+01  5.8786291827100470e+01  6.0211635756874088e+01  6.2459603737053556e+01  6.5285663268359556e+01  6.4922716953965974e+01  6.6761869010505094e+01  6.8706168121851888e+01  7.0696516167490032e+01  7.1971862633639233e+01  7.3137054215810551e+01  7.2199165862816415e+01  7.3910250524482620e+01  5.3768654642740188e+01  5.3519632365720739e+01  5.4551439645335819e+01  5.5843079141815934e+01  5.7247769328858944e+01  5.7420335172271997e+01  5.3687958555673674e+01  5.3177022871387450e+01  5.8605751407898445e+01  5.8596830987559052e+01  6.0793012911252475e+01  6.1905437918406108e+01  6.3702998340013451e+01  6.5557888791695774e+01  6.7652591153707164e+01  6.8375768784872065e+01  7.0709329356833777e+01  7.2456649668449188e+01  7.3803009938641637e+01  7.5432735263604499e+01  7.5365897250432127e+01  7.4306055573209932e+01  5.4488832793696837e+01  5.5787338721163877e+01  5.7232839340140309e+01  5.6334679536290530e+01  5.7844525636806900e+01  5.9619428301157093e+01  6.2479208932751192e+01  6.4392940727341696e+01  6.6845795752695665e+01  6.9584571573158016e+01  6.9801353571568868e+01  7.2650082995707919e+01  7.3742272092995904e+01  7.5682358932831178e+01  7.5850881854298308e+01  7.6761209489763317e+01  7.6430654899498592e+01  5.3511262052464126e+01  5.2757728822084047e+01  6.3723880013856778e+01  5.3791082942326348e+01  5.2715439210368046e+01  5.2268329294849828e+01  5.4994363627871500e+01  5.5644133012725561e+01  6.1849117310228408e+01  6.5465706627092374e+01  6.9090555792318099e+01  7.2378754271729463e+01  7.2800871489991721e+01  7.5069902981567807e+01  7.6990534877927871e+01  7.7233012251814387e+01  7.7583576188059254e+01  7.7256548200283973e+01  6.7827531392798946e+01  5.1729489911129335e+01  6.5046878475558984e+01  6.7374999063047923e+01  7.1328911267803917e+01  7.6049298239807385e+01  7.5909617988058741e+01  7.8462580072245274e+01  7.8563568214471061e+01  7.8136232771131219e+01  7.8789214922227501e+01  7.8291365692201552e+01  7.7604152107140251e+01  7.6970539196947925e+01  7.3764048732704595e+01  7.8110560299437850e+01  7.8541519568014223e+01  7.9969781685719312e+01  7.9528926123802293e+01  7.9814536032273537e+01  7.9168225446428579e+01  7.8567667431625253e+01  7.8007813870224254e+01  7.7231552985362185e+01  7.6884445821793022e+01  7.6391905375840835e+01  7.8460326989198705e+01  7.9952650985952488e+01  8.0760741091323453e+01  8.1103362194265188e+01  8.0270046869788075e+01  8.0575913398350067e+01  8.0492139148756337e+01  7.9639133654747724e+01  7.8930267934743782e+01  7.7497781388208494e+01  7.6629387074045681e+01  7.7706855907825116e+01  7.9805848212635951e+01  7.5823833256792909e+01  7.3867685735713096e+01  7.6239544414899399e+01  8.1281047243063014e+01  8.1824559344471979e+01  8.1709699115779699e+01  8.1723992537629570e+01  8.1323770899110357e+01  8.0971332484356680e+01  8.0681952710239131e+01  8.0073028808740318e+01  7.9400824692486822e+01  7.8355631342773009e+01  7.7248154395589083e+01  7.6206361977859558e+01  7.5551953172724950e+01  7.5443245839725677e+01  7.4927891273085237e+01  7.2862285333360845e+01  6.9513765813982701e+01  8.2066469079588643e+01  8.2113172432021983e+01  8.1983201005525899e+01  8.1701373184301659e+01  8.1167402542481369e+01  8.0679887176463964e+01  8.0009418489285295e+01  7.9325564148447995e+01  7.8689605741892663e+01  7.7774603520215535e+01  7.6472476396469489e+01  7.5356871366063672e+01  7.4426149282885845e+01  7.3837322062834261e+01  7.3064969688238662e+01  7.0839488853920031e+01  6.7456563146662560e+01  8.1375115336978496e+01  8.1952535330314390e+01  8.1970888876244118e+01  8.2045088512865547e+01  8.2053139847661924e+01  8.2105322329353612e+01  8.1951408884913235e+01  8.1698794209729215e+01  8.1422804964075937e+01  8.0971620974551485e+01  8.0483437649946381e+01  8.0542910002491553e+01  7.9937711182744295e+01  7.9035530151519040e+01  7.8588393680981085e+01  7.7552916630394066e+01  7.6383407987204421e+01  7.5216536714906084e+01  7.3466580760688444e+01  7.2642135478449191e+01  7.2048457157999522e+01  7.0185823239882822e+01  6.7886446205251445e+01  6.5654243518612986e+01  8.1272636688010607e+01  8.1358452813070542e+01  8.1706472947953870e+01  8.1933725813964003e+01  8.1952338473044847e+01  8.1744931433149290e+01  8.1409851634435441e+01  8.1143102820068407e+01  8.0640063904022966e+01  8.0155624707686755e+01  7.9638213970336864e+01  7.8918403859119422e+01  7.8322087695299004e+01  7.7044577048658013e+01  7.6094038063028961e+01  7.5160528893328802e+01  7.4053326759553627e+01  7.2477175361652456e+01  7.1452642300750966e+01  7.2268100776014521e+01  7.0035986106861202e+01  6.8155495243150185e+01  6.5779349658938258e+01  6.3164627223427793e+01  6.3489529221522339e+01  8.1507203608835042e+01  7.9897348526002943e+01  8.0410810676936620e+01  8.0834294194656778e+01  8.1356637530477570e+01  8.1676711809685514e+01  8.1728737255659809e+01  8.1728042877259668e+01  8.1816741372908780e+01  8.1578745826842876e+01  8.1290349855293456e+01  8.0980816845340669e+01  8.0279936050674394e+01  7.9709306045753763e+01  7.8557754916803759e+01  7.7709619364262394e+01  7.6734806240819182e+01  7.5725899344103766e+01  7.5193770538610480e+01  7.4225757509985968e+01  7.2466330133178587e+01  7.0415966346808062e+01  6.9623960811373877e+01  7.0919873119658973e+01  8.0589850432068559e+01  7.0208198072591912e+01  6.8610908523977685e+01  6.7309747230501145e+01  6.5633979573932422e+01  6.3463036034581663e+01  6.0679317726574453e+01  6.0034948884157288e+01  6.0725510765710489e+01  7.8019449038512022e+01  7.9069180215124561e+01  7.9579284973017209e+01  8.0260504823728255e+01  8.0749565306982731e+01  8.1352680484811856e+01  8.1463269544674830e+01  8.1488228327485999e+01  8.1583305321804900e+01  8.1679678866948649e+01  8.1504074974850127e+01  8.1282930446901560e+01  8.0952319073559579e+01  8.0419056802405080e+01  7.9492501428429051e+01  7.8513504633941807e+01  7.7504348143178944e+01  7.6062631019290308e+01  7.4923225591090883e+01  7.4635069780091953e+01  7.3063919326923966e+01  7.1504316594918819e+01  7.1034504299444791e+01  7.9047605696258941e+01  5.7273704092245168e+01  5.6489125750652541e+01  7.7335681341708195e+01  7.5430889920170131e+01  7.4756622230811502e+01  7.7768894099787047e+01  7.8886298203396848e+01  7.9692869965791004e+01  8.0468746139830401e+01  8.1031224837469608e+01  8.1157450756138644e+01  8.1339350029929534e+01  8.1431517041958500e+01  8.1456787117767504e+01  8.1228238649086961e+01  8.0970122832644847e+01  8.0468695231429635e+01  7.9819131001099052e+01  7.8983377778020326e+01  7.8404961298183494e+01  7.7834669439488692e+01  7.6822365028611785e+01  7.5663783783362916e+01  7.4608366411845083e+01  7.3428609790602664e+01  7.3680775669839477e+01  7.2473915161257963e+01  7.1854276155394359e+01  5.3396607619588153e+01  7.6195352568090527e+01  7.4357935086906551e+01  7.2702780958097165e+01  7.8344723232177088e+01  7.6822475425882686e+01  7.9204327143133540e+01  7.9861192439977884e+01  8.0668189972345061e+01  8.0788760040743455e+01  8.1160833617139332e+01  8.1169013088443648e+01  8.1281250901315559e+01  8.1238960281958214e+01  8.0975987218806594e+01  8.0925588278993018e+01  8.0539933963482355e+01  7.9895508655833680e+01  7.9227716659047260e+01  7.8360489953195639e+01  7.7653282419090274e+01  7.7037209824854898e+01  7.6133015995239901e+01  7.5008918589134154e+01  7.4786066864632787e+01  7.3623697747496649e+01  7.2882321232193519e+01  7.2096318260878206e+01  7.2904817157501512e+01  7.5550733863097065e+01  7.4943659372066477e+01  7.6571733244246744e+01  7.7572714998823045e+01  7.8731245279567815e+01  7.9413027842406834e+01  8.0228551131608512e+01  8.0664952023831560e+01  8.0958117890301423e+01  8.1136829027064763e+01  8.1114198980873425e+01  8.1039996067018549e+01  8.0659588189552892e+01  8.0609750300692397e+01  8.0027172022105177e+01  7.9456118171033111e+01  7.8929873804805155e+01  7.8506415551199467e+01  7.7627927537733356e+01  7.6674680073379932e+01  7.5523701963280459e+01  7.4306848126058057e+01  7.3927822619557702e+01  7.3946961627873904e+01  7.2976139068023897e+01  7.2244930908891945e+01  7.0929427220962594e+01  7.0991451675267882e+01  7.2661873603604278e+01  8.0943330475163592e+01  7.3645696984819921e+01  7.3650043926403654e+01  7.2060144945320147e+01  6.9999761501494632e+01  6.8773003034033920e+01  6.8919279743611312e+01  7.5876985027614808e+01  7.7005335023012407e+01  7.7957307075631221e+01  7.8403069944099613e+01  7.8994602807377305e+01  7.9501438802887463e+01  8.0135135349852121e+01  8.0591351764183884e+01  8.0833344048126321e+01  8.1001997141244757e+01  8.1056290677148809e+01  8.0930254298830775e+01  8.0589295544891357e+01  8.0177381115709565e+01  8.0132162070813365e+01  7.9547871571111145e+01  7.8873721726224588e+01  7.8478889198436818e+01  7.7969435544736456e+01  7.7384607132935741e+01  7.6643345121474866e+01  7.5867654069239080e+01  7.4865134234233267e+01  7.3741632618775483e+01  7.3218977748841951e+01  7.3143683242765903e+01  7.2308020352434326e+01  7.4518219692491229e+01  8.0120845291205413e+01  8.0881476556170782e+01  7.2756623901278118e+01  7.3621700747473213e+01  7.5632118423369079e+01  7.6462960490465832e+01  7.7863670397170296e+01  7.7426663754869310e+01  6.9971796635892559e+01  7.0186224186544891e+01  6.7920513043197786e+01  6.7500097978001634e+01  6.7034982749387424e+01  6.6437174688617318e+01  6.6284951262928232e+01  7.8611565411216716e+01  7.9524614130026592e+01  7.9813750234400700e+01  8.0284349245479703e+01  8.0698833144295520e+01  8.0902971716436497e+01  8.0980560028922582e+01  8.0895663162778007e+01  8.0732870663271854e+01  8.0391506900345490e+01  7.9946331407634162e+01  7.9536942683180300e+01  7.8914389080879786e+01  7.8227436034617213e+01  7.7970681720814838e+01  7.6711410718831317e+01  7.5875479311641683e+01  7.5062781643699140e+01  7.4633975358905602e+01  7.3355905544766969e+01  7.2799283718897001e+01  7.2202546116945314e+01  7.2292695524497049e+01  7.9880759341197091e+01  7.1869170125780556e+01  7.2003186618458429e+01  7.0458812449245016e+01  6.8963499147501707e+01  6.8620546431471084e+01  6.6921490928671389e+01  6.5897165317319065e+01  6.5463591184844461e+01  6.3866397347618815e+01  6.2849363491601764e+01  7.4736761046622092e+01  7.5660759325794317e+01  7.6621960449370377e+01  7.7507040003977394e+01  7.8164509197206698e+01  7.8771699501092129e+01  7.9176662837957096e+01  7.9896958920633622e+01  8.0314692382674934e+01  8.0607409307177875e+01  8.0785242593417991e+01  8.0929203593743367e+01  8.0897678632709002e+01  8.0716679488668731e+01  8.0438865688300510e+01  7.9906198520285656e+01  7.9517875287963591e+01  7.9045654010296474e+01  7.8468681182683113e+01  7.7597848244091637e+01  7.7158707847135759e+01  7.6336749436380202e+01  7.4998703791913414e+01  7.4151260837030094e+01  7.3175788531344196e+01  7.2608822035128668e+01  7.2029583504470864e+01  7.3410513278434749e+01  7.3934429688645892e+01  7.0577741476171198e+01  6.8908127735909645e+01  6.7513926506520562e+01  6.5631550938868642e+01  6.4776984230813198e+01  6.3784396536901681e+01  6.2889408612745925e+01  6.0857151249486414e+01  7.2394932143781006e+01  7.0472264739230056e+01  7.4054228669890676e+01  7.5371614226306050e+01  7.6610865326492529e+01  7.7608152499157910e+01  7.8320649738194277e+01  7.8649991713075948e+01  7.9269140444664203e+01  7.9702254655739736e+01  8.0195016850992332e+01  8.0486243328940176e+01  8.0743297336574642e+01  8.0891186507124374e+01  8.0909325582622415e+01  8.0834080514860332e+01  8.0723632013221049e+01  8.0464418681906480e+01  7.9942521907337820e+01  7.9309170584094403e+01  7.9172320798134464e+01  7.8614650651268803e+01  7.7940973214366721e+01  7.7268552667608191e+01  7.6828596423915897e+01  7.5916628583725156e+01  7.5481754690619908e+01  7.4665398542160389e+01  7.4208449360640913e+01  7