<?xml version="1.0"?>
<VTKFile type="UnstructuredGrid"  version="0.1"  >
<UnstructuredGrid>
<Piece  NumberOfPoints="35727" NumberOfCells="69840">
<Points>
<DataArray  type="Float64"  NumberOfComponents="3"  format="ascii">3 0.3059179772177343 0  2.826192235005252 0.3047689400210052 0  3 0.4876840732277087 0  2.650848904718999 0.3016978094379971 0  2.828721773526102 0.4861653205783054 0  3 0.6663313827030033 0  2.473127361874204 0.2975031491656049 0  2.654933606300413 0.4824004094506196 0  2.832075157123596 0.6641503142471923 0  3 0.8400450330852545 0  2.292893218813298 0.2928932188132978 0  2.477765466230188 0.4777654662301873 0  2.659590949023722 0.6595909490237226 0  2.836584264135747 0.8365842641357473 0  3 1 0  2.297503149165605 0.4731273618742037 0  2.482400409450619 0.654933606300413 0  2.664150314247192 0.8320751571235961 0  2.840045033085254 1 0  3 1.159954966914746 0  3.163415735864253 1.163415735864253 0  3.159954966914746 1 0  2.301697809437997 0.6508489047189985 0  2.486165320578305 0.8287217735261018 0  2.666331382703003 1 0  2.836584264135747 1.163415735864253 0  3 1.333668617296997 0  3.167924842876404 1.335849685752808 0  3.340409050976278 1.340409050976277 0  3.335849685752808 1.167924842876404 0  3.333668617296997 1 0  2.304768940021005 0.8261922350052512 0  2.487684073227709 1 0  2.664150314247192 1.167924842876404 0  2.832075157123596 1.335849685752808 0  3 1.512315926772291 0  3.171278226473898 1.513834679421695 0  3.345066393699587 1.51759959054938 0  3.522234533769812 1.522234533769813 0  3.517599590549381 1.345066393699587 0  3.513834679421695 1.171278226473898 0  3.512315926772291 1 0  2.305917977217734 1 0  2.486165320578305 1.171278226473898 0  2.659590949023722 1.340409050976277 0  2.828721773526102 1.513834679421695 0  3 1.694082022782266 0  3.173807764994749 1.695231059978995 0  3.349151095281001 1.698302190562003 0  3.526872638125796 1.702496850834395 0  3.707106781186702 1.707106781186702 0  3.702496850834395 1.526872638125796 0  3.698302190562003 1.349151095281002 0  3.695231059978995 1.173807764994749 0  3.694082022782266 1 0  2.304768940021005 1.173807764994749 0  2.482400409450619 1.345066393699587 0  2.654933606300413 1.51759959054938 0  2.826192235005251 1.695231059978995 0  2.301697809437997 1.349151095281002 0  2.477765466230188 1.522234533769813 0  2.650848904718999 1.698302190562003 0  2.297503149165605 1.526872638125796 0  2.473127361874204 1.702496850834395 0  2.292893218813298 1.707106781186702 0  2 4.694082022782266 0  1.826192235005251 4.695231059978995 0  2 4.512315926772291 0  1.650848904718999 4.698302190562003 0  1.828721773526102 4.513834679421695 0  2 4.333668617296997 0  1.473127361874204 4.702496850834395 0  1.654933606300413 4.517599590549381 0  1.832075157123596 4.335849685752808 0  2 4.159954966914746 0  1.292893218813298 4.707106781186702 0  1.477765466230187 4.522234533769812 0  1.659590949023723 4.340409050976278 0  1.836584264135747 4.163415735864253 0  2 4 0  1.297503149165605 4.526872638125797 0  1.48240040945062 4.345066393699587 0  1.664150314247192 4.167924842876404 0  1.840045033085254 4 0  2 3.840045033085254 0  2.163415735864253 3.836584264135747 0  2.159954966914746 4 0  1.301697809437997 4.349151095281002 0  1.486165320578305 4.171278226473898 0  1.666331382703003 4 0  1.836584264135747 3.836584264135747 0  2 3.666331382703003 0  2.167924842876404 3.664150314247192 0  2.340409050976278 3.659590949023722 0  2.335849685752808 3.832075157123596 0  2.333668617296997 4 0  1.304768940021005 4.173807764994748 0  1.487684073227709 4 0  1.664150314247192 3.832075157123596 0  1.832075157123596 3.664150314247192 0  2 3.487684073227709 0  2.171278226473898 3.486165320578305 0  2.345066393699587 3.482400409450619 0  2.522234533769812 3.477765466230188 0  2.517599590549381 3.654933606300413 0  2.513834679421695 3.828721773526102 0  2.512315926772291 4 0  1.305917977217734 4 0  1.486165320578305 3.828721773526102 0  1.659590949023723 3.659590949023722 0  1.828721773526102 3.486165320578305 0  2 3.305917977217734 0  2.173807764994749 3.304768940021005 0  2.349151095281001 3.301697809437997 0  2.526872638125796 3.297503149165605 0  2.707106781186702 3.292893218813298 0  2.702496850834395 3.473127361874204 0  2.698302190562003 3.650848904718999 0  2.695231059978995 3.826192235005251 0  2.694082022782266 4 0  1.304768940021005 3.826192235005251 0  1.48240040945062 3.654933606300413 0  1.654933606300413 3.482400409450619 0  1.826192235005251 3.304768940021005 0  1.301697809437997 3.650848904718999 0  1.477765466230187 3.477765466230188 0  1.650848904718998 3.301697809437997 0  1.297503149165605 3.473127361874204 0  1.473127361874204 3.297503149165605 0  1.292893218813298 3.292893218813298 0  -6 5.694082022782266 0  -5.826192235005252 5.695231059978995 0  -6 5.512315926772291 0  -5.650848904718998 5.698302190562003 0  -5.828721773526102 5.513834679421695 0  -6 5.333668617296997 0  -5.473127361874203 5.702496850834395 0  -5.654933606300413 5.517599590549381 0  -5.832075157123596 5.335849685752808 0  -6 5.159954966914746 0  -5.292893218813298 5.707106781186702 0  -5.477765466230188 5.522234533769812 0  -5.659590949023722 5.340409050976278 0  -5.836584264135747 5.163415735864253 0  -6 5 0  -5.297503149165605 5.526872638125797 0  -5.482400409450619 5.345066393699587 0  -5.664150314247192 5.167924842876404 0  -5.840045033085254 5 0  -6 4.840045033085254 0  -6.163415735864253 4.836584264135747 0  -6.159954966914746 5 0  -5.301697809437997 5.349151095281002 0  -5.486165320578305 5.171278226473898 0  -5.666331382703003 5 0  -5.836584264135747 4.836584264135747 0  -6 4.666331382703003 0  -6.167924842876404 4.664150314247192 0  -6.340409050976278 4.659590949023722 0  -6.335849685752808 4.832075157123596 0  -6.333668617296997 5 0  -5.304768940021005 5.173807764994748 0  -5.487684073227709 5 0  -5.664150314247192 4.832075157123596 0  -5.832075157123596 4.664150314247192 0  -6 4.487684073227709 0  -6.171278226473898 4.486165320578305 0  -6.345066393699587 4.482400409450619 0  -6.522234533769812 4.477765466230188 0  -6.517599590549381 4.654933606300413 0  -6.513834679421695 4.828721773526102 0  -6.512315926772291 5 0  -5.305917977217734 5 0  -5.486165320578305 4.828721773526102 0  -5.659590949023722 4.659590949023722 0  -5.828721773526102 4.486165320578305 0  -6 4.305917977217734 0  -6.173807764994748 4.304768940021005 0  -6.349151095281002 4.301697809437997 0  -6.526872638125797 4.297503149165605 0  -6.707106781186702 4.292893218813298 0  -6.702496850834395 4.473127361874203 0  -6.698302190562003 4.650848904718998 0  -6.695231059978995 4.826192235005252 0  -6.694082022782266 5 0  -5.304768940021005 4.826192235005252 0  -5.482400409450619 4.654933606300413 0  -5.654933606300413 4.482400409450619 0  -5.826192235005252 4.304768940021005 0  -5.301697809437997 4.650848904718998 0  -5.477765466230188 4.477765466230188 0  -5.650848904718998 4.301697809437997 0  -5.297503149165605 4.473127361874203 0  -5.473127361874203 4.297503149165605 0  -5.292893218813298 4.292893218813298 0  -5 2.305917977217734 0  -4.826192235005252 2.304768940021005 0  -5 2.487684073227709 0  -4.650848904718998 2.301697809437997 0  -4.828721773526102 2.486165320578305 0  -5 2.666331382703003 0  -4.473127361874203 2.297503149165605 0  -4.654933606300413 2.482400409450619 0  -4.832075157123596 2.664150314247192 0  -5 2.840045033085254 0  -4.292893218813298 2.292893218813298 0  -4.477765466230188 2.477765466230188 0  -4.659590949023722 2.659590949023722 0  -4.836584264135747 2.836584264135747 0  -5 3 0  -4.297503149165605 2.473127361874204 0  -4.482400409450619 2.654933606300413 0  -4.664150314247192 2.832075157123596 0  -4.840045033085254 3 0  -5 3.159954966914746 0  -5.163415735864253 3.163415735864253 0  -5.159954966914746 3 0  -4.301697809437997 2.650848904718999 0  -4.486165320578305 2.828721773526102 0  -4.666331382703003 3 0  -4.836584264135747 3.163415735864253 0  -5 3.333668617296997 0  -5.167924842876404 3.335849685752808 0  -5.340409050976278 3.340409050976278 0  -5.335849685752808 3.167924842876404 0  -5.333668617296997 3 0  -4.304768940021005 2.826192235005251 0  -4.487684073227709 3 0  -4.664150314247192 3.167924842876404 0  -4.832075157123596 3.335849685752808 0  -5 3.512315926772291 0  -5.171278226473898 3.513834679421695 0  -5.345066393699587 3.517599590549381 0  -5.522234533769812 3.522234533769812 0  -5.517599590549381 3.345066393699587 0  -5.513834679421695 3.171278226473898 0  -5.512315926772291 3 0  -4.305917977217734 3 0  -4.486165320578305 3.171278226473898 0  -4.659590949023722 3.340409050976278 0  -4.828721773526102 3.513834679421695 0  -5 3.694082022782266 0  -5.173807764994748 3.695231059978995 0  -5.349151095281002 3.698302190562003 0  -5.526872638125797 3.702496850834395 0  -5.707106781186702 3.707106781186702 0  -5.702496850834395 3.526872638125796 0  -5.698302190562003 3.349151095281001 0  -5.695231059978995 3.173807764994749 0  -5.694082022782266 3 0  -4.304768940021005 3.173807764994749 0  -4.482400409450619 3.345066393699587 0  -4.654933606300413 3.517599590549381 0  -4.826192235005252 3.695231059978995 0  -4.301697809437997 3.349151095281001 0  -4.477765466230188 3.522234533769812 0  -4.650848904718998 3.698302190562003 0  -4.297503149165605 3.526872638125796 0  -4.473127361874203 3.702496850834395 0  -4.292893218813298 3.707106781186702 0  5 1 0  5 1.1875 0  4.836760252847784 1 0  4.777715803246315 1.196559610919311 0  4.839460463216996 1.347314472439327 0  5 1.375 0  4.673520505695566 1 0  4.632635625466378 1.365213346993499 0  4.556044961094186 1.171744017769988 0  4.510280758543349 1 0  4.794773055276885 1.503974827597894 0  5 1.5625 0  4.509532852384659 1.302052263620541 0  4.410856208148409 1.131488582867765 0  4.347041011391132 1 0  4.456349169075412 1.451051581694457 0  4.607229733549753 1.536976478139674 0  4.689743592565922 1.689749170841861 0  4.856245648493844 1.661305922135441 0  5 1.75 0  4.374259326167071 1.272988741846429 0  4.255464305052109 1.3756177869414
[...]
<PointData  Scalars="u"> 
<DataArray  type="Float64"  Name="u"  format="ascii">5.3483212459519955e+01  5.7356517455109675e+01  5.3525909128631042e+01  6.0758152562119975e+01  5.8536999162542330e+01  5.3547278246683973e+01  6.3506694652164335e+01  6.2571242384430768e+01  6.0641089869631735e+01  5.3600083621020509e+01  6.5646090101344072e+01  6.5452539412052417e+01  6.5252807605514974e+01  6.5151106393123172e+01  5.8581706215140585e+01  6.7490069535988724e+01  6.7938941140554860e+01  6.9157106185469857e+01  7.3451999428017388e+01  7.2964627888787533e+01  6.4203950267795037e+01  5.3130212706767907e+01  6.9621340399997891e+01  7.0889032329986009e+01  7.3461428968462641e+01  7.6046582302935278e+01  7.2425772078427983e+01  6.7617074862474524e+01  6.3214685082035771e+01  5.9160487022736802e+01  5.2587789118907921e+01  7.1895565582377060e+01  7.3710498215359408e+01  7.5832623109950873e+01  7.5304371675524592e+01  7.2090412469997943e+01  6.8749666735978977e+01  6.5286836646296905e+01  6.2304110882315385e+01  6.0030988722281350e+01  5.6561787879252755e+01  5.2086457561632081e+01  7.4007930183497407e+01  7.5632531425337703e+01  7.6222031310550889e+01  7.4535527362986514e+01  7.1770624688770297e+01  6.9121065142819901e+01  6.6322004659330574e+01  6.3684090720443166e+01  6.1358442618197870e+01  5.9876706491402487e+01  5.7742739856868880e+01  5.4915700959249151e+01  5.1580737137452324e+01  7.5609354099315766e+01  7.6471462021104600e+01  7.5916803466863968e+01  7.3920012450255683e+01  7.6596360455543419e+01  7.6641728838463806e+01  7.5464770210444698e+01  7.7082252797110527e+01  7.6515974398038452e+01  7.7252496881025493e+01  5.9300833102485882e+01  6.3051589624309358e+01  5.9401183834272921e+01  6.6319448143723520e+01  6.4269217561788778e+01  5.9489381661212953e+01  6.8926445954603622e+01  6.8145715763675767e+01  6.6417547174356088e+01  5.9619294934418939e+01  7.0920742025154922e+01  7.0859451271332020e+01  7.0845230481459254e+01  7.0981953272792438e+01  6.4685205165976512e+01  7.2723933495291689e+01  7.3333324434329725e+01  7.4772762259000615e+01  7.9344512875296004e+01  7.9168107511918620e+01  7.0629639703800407e+01  5.9421228324422593e+01  7.4810850850985517e+01  7.6272378968819012e+01  7.9104410971280643e+01  8.2004086886523339e+01  7.8759424983816302e+01  7.4212507779156994e+01  7.0037877259726059e+01  6.5785350287964988e+01  5.9050938634631812e+01  7.7036973161555053e+01  7.9082018933008129e+01  8.1504723437846863e+01  8.1343359337372902e+01  7.8586726902922976e+01  7.5554537059350608e+01  7.2352398122485610e+01  6.9572833660332677e+01  6.7035054562456153e+01  6.3346619841373830e+01  5.8687817934806304e+01  7.9096616854621942e+01  8.0990932177911276e+01  8.1929376343278719e+01  8.0681573595723918e+01  7.8469677127308771e+01  7.6181198744845190e+01  7.3682047343590710e+01  7.1271403392517087e+01  6.9089919564588499e+01  6.7280559729857629e+01  6.4870937674831453e+01  6.1811439408141375e+01  5.8279209658070094e+01  8.0637745949703444e+01  8.1814827892140343e+01  8.1671673880504969e+01  8.0202826877500883e+01  8.1556967224478612e+01  8.1972372353517159e+01  8.1285461593312746e+01  8.1967267239343400e+01  8.1838103095606385e+01  8.2055248251610990e+01  5.3687265493957639e+01  5.7744799978302922e+01  5.3611317628201498e+01  6.1335988337335841e+01  5.8821859316365988e+01  5.3492887306446839e+01  6.4275682780884281e+01  6.3064906073768427e+01  6.0802577620058749e+01  5.3382681876138086e+01  6.6603013326797651e+01  6.6158705551359176e+01  6.5645090507274148e+01  6.5164650654606120e+01  5.8185065251567345e+01  6.8406345144207165e+01  6.8569768705053832e+01  6.9429203589104191e+01  7.3290526327832978e+01  7.2340949652459926e+01  6.3333085802260086e+01  5.2505074569795845e+01  7.0488530858975579e+01  7.1429999436328686e+01  7.3595118588496845e+01  7.5707252795834151e+01  7.1530014181999462e+01  6.6439839432892867e+01  6.1787394242841536e+01  5.8051599863824215e+01  5.1740350708343122e+01  7.2704488518896767e+01  7.4146940906811849e+01  7.5805555210889381e+01  7.4722954904930916e+01  7.0837344226903340e+01  6.7191195010416678e+01  6.3471726252817781e+01  6.0282984800806538e+01  5.8392245780597165e+01  5.5244711809965928e+01  5.1040380574307086e+01  7.4748111230323886e+01  7.5944859155825213e+01  7.5993675881776468e+01  7.3637425104666164e+01  7.0061362799096230e+01  6.7090362189078164e+01  6.4037938174873346e+01  6.1210915457999519e+01  5.8754556170297434e+01  5.7698834609109646e+01  5.5934229645910037e+01  5.3425269656659829e+01  5.0363832514546090e+01  7.6269084889641562e+01  7.6630901816197394e+01  7.5425545345039254e+01  7.2606567151103306e+01  7.7157611350475207e+01  7.6602287231797447e+01  7.4621919632741637e+01  7.7518235937121190e+01  7.6210409044690380e+01  7.7521040559549348e+01  6.0491902358794235e+01  6.4264494231638068e+01  6.0593427920029661e+01  6.7541323505988103e+01  6.5412820466693219e+01  6.0683976575409467e+01  7.0145885604124189e+01  6.9275960057649769e+01  6.7427189733371179e+01  6.0810432535115069e+01  7.2128638240925042e+01  7.2008152472645577e+01  7.1834665696902476e+01  7.1613249949079901e+01  6.5195758720668891e+01  7.3898801311494552e+01  7.4388862012765117e+01  7.5529767906764590e+01  7.9132838174917794e+01  7.8973888701799410e+01  7.1272310776466171e+01  6.0608442773260705e+01  7.5947252736880884e+01  7.7206921859318086e+01  7.9619342027012934e+01  8.2066611735782672e+01  7.9325946451101018e+01  7.5022872867038672e+01  7.1045880781552853e+01  6.6773491416271796e+01  6.0205594842270614e+01  7.8127317065736761e+01  7.9907042791906974e+01  8.2015065274544952e+01  8.1883039731145331e+01  7.9503477898892854e+01  7.6595488177812527e+01  7.3488436943858247e+01  7.0711366070477965e+01  6.8094994057797663e+01  6.4384523879197403e+01  5.9761827646716441e+01  8.0130035180136929e+01  8.1769306008878630e+01  8.2592775909929756e+01  8.1517751951192849e+01  7.9626024680361155e+01  7.7433858846803943e+01  7.4976173567619412e+01  7.2521688831796411e+01  7.0178193681373116e+01  6.8311939937974145e+01  6.5862914128763066e+01  6.2775934408083018e+01  5.9224871994225254e+01  8.1599514072452067e+01  8.2594740183442894e+01  8.2472315041436886e+01  8.1230516576250793e+01  8.2426262229674833e+01  8.2750016087240283e+01  8.2168656528807063e+01  8.2716256693282261e+01  8.2573106923215548e+01  8.2647960729921806e+01  4.8492782275648622e+01  4.9525028458988807e+01  4.8830839690950370e+01  5.0221756110044339e+01  5.0908871037538518e+01  5.0493161192516752e+01  4.9183790488258708e+01  5.1819293590599507e+01  5.0762458044574856e+01  4.9549870030612141e+01  5.1934896399978534e+01  5.1371145187415792e+01  5.1904010365198367e+01  5.0925371283353833e+01  4.9930872241050473e+01  5.3219317802491126e+01  5.2988226021490107e+01  5.3367852886067929e+01  5.2420744648838216e+01  5.2134817914411734e+01  5.2265467669490256e+01  5.3735913360689089e+01  5.4299853025150583e+01  5.4847631092748728e+01  5.5018426802634309e+01  5.4216691885137109e+01  5.3482834701022036e+01  5.2771607510307163e+01  5.1573751144399949e+01  5.0326526931850424e+01  5.4143371122761195e+01  5.5304172257485433e+01  5.6629466125623935e+01  5.6394877695236410e+01  5.5678787780951147e+01  5.4956060842182801e+01  5.3564295299972386e+01  5.3271182799315767e+01  5.4185553257893218e+01  5.2452893284507923e+01  5.0733809912309958e+01  5.7595304504104419e+01  5.8270528893271447e+01  5.7941746314910077e+01  5.6782839953526413e+01  5.5892241885983744e+01  5.5235821078033943e+01  5.4292972119783165e+01  5.3996734362764961e+01  5.3631358703421533e+01  5.5929018813703969e+01  5.6759114649315919e+01  5.3849456909778887e+01  5.1152457407989985e+01  6.0045750128466445e+01  5.9057966863667708e+01  5.9878329387770606e+01  5.7742612718962924e+01  5.5501074583875415e+01  5.4914926248530975e+01  5.1592248987999611e+01  5.9873173690060518e+01  5.9336685824466379e+01  5.8027543733613392e+01  5.7152566194938068e+01  5.6282075836112838e+01  5.5881955241003368e+01  5.5299178311922319e+01  5.4646009416143762e+01  5.4254178897556415e+01  5.3855157208125192e+01  6.2072714478253395e+01  6.1267558008992623e+01  6.1357101456739954e+01  6.1359984616082663e+01  6.1134848278680231e+01  5.9882915765913125e+01  5.8168624846076376e+01  5.7295078978632397e+01  5.6945016072430576e+01  5.6098092020278450e+01  5.4963680115115686e+01  5.4594044259805443e+01  5.3946862845070804e+01  6.3903133909363717e+01  6.3930072347848146e+01  6.2797025392418689e+01  6.1870753402946512e+01  6.0192118284152606e+01  5.8841844881101139e+01  5.7845724013636385e+01  5.6868669414906648e+01  5.5932097654742925e+01  5.5314711451824536e+01  5.4533472178434806e+01  5.3914190081981801e+01  6.3682937591593642e+01  6.6400642014255070e+01  6.5844604683003055e+01  6.4099930560362083e+01  6.3898488645503534e+01  6.2317587471751892e+01  6.0579880905967002e+01  5.8792043445625431e+01  5.8170691702946364e+01  5.7561076665259009e+01  5.6803941356614907e+01  5.5886104422126053e+01  5.4931289410891026e+01  5.3767882646075904e+01  6.5729196988423666e+01  6.6323298485185646e+01  6.8146043337583052e+01  6.8394561575575807e+01  6.7573813496062598e+01  6.6856252034136674e+01  6.5437346923576868e+01  6.5196731557636610e+01  6.4625387160007890e+01  6.2869972486732898e+01  6.3390371055595701e+01  6.1085375857365641e+01  5.9442460564227595e+01  5.8306446917897972e+01  5.7730598300896666e+01  5.6726731718814825e+01  5.5301274479081918e+01  5.5890733319869497e+01  5.4414087122360733e+01  5.3518337399604654e+01  6.9123147377261105e+01  6.9856105619526218e+01  7.1137950754247257e+01  7.1766339832916557e+01  6.9952033444932752e+01  6.9041441018820834e+01  6.8798051621401896e+01  6.6675401368985732e+01  6.5911119898525854e+01  6.4852988658329977e+01  6.3625441411659274e+01  6.1837626513736261e+01  6.0145732784184581e+01  5.9424310995528195e+01  5.8703118928758649e+01  5.7342553941289530e+01  5.6054737488549947e+01  5.5767080846205886e+01  5.5039880322371523e+01  5.4173436604766799e+01  5.3177263035670755e+01  7.3227815118611403e+01  7.1615138770043700e+01  7.0525042977314641e+01  7.0570179784861864e+01  6.9550600157412504e+01  6.7842049822200082e+01  6.6924688933473334e+01  6.6487636809054067e+01  6.4294872462251519e+01  6.3249600587228713e+01  6.1724311874249366e+01  6.0211412229934815e+01  5.8616211109303826e+01  5.7263172865458870e+01  5.6185967126798879e+01  5.5331318844349802e+01  5.4500437628631794e+01  5.3605620909664253e+01  5.2757999929912451e+01  7.2985002058856622e+01  7.3920653889860915e+01  7.4937055382808637e+01  7.4529277165025718e+01  7.5463998072893617e+01  7.4499212617853331e+01  7.3359217314074499e+01  7.2061880185015980e+01  7.2369966416294105e+01  7.1071559402220004e+01  6.9022167914897125e+01  6.8609416474686256e+01  6.7715094256474387e+01  6.6131968041105367e+01  6.7662088501390613e+01  6.4980477218079130e+01  6.3093022325386158e+01  6.2766244183195511e+01  6.0942265082631714e+01  5.9594287478724347e+01  5.8827235572475963e+01  5.7394474798822934e+01  5.7951960372713557e+01  5.6363075518922429e+01  5.5354116321152937e+01  5.4607023573208771e+01  5.3747586401044970e+01  5.2992244305958742e+01  5.2272463229922387e+01  7.5853018242889164e+01  7.6514514186193466e+01  7.6175782633315663e+01  7.5087309910411790e+01  7.3659530497583503e+01  7.3592265056922955e+01  7.2432512376788509e+01  7.0754093002912811e+01  7.0336047936585217e+01  6.9445392709697160e+01  6.8316020567299560e+01  6.6604467563847294e+01  6.4085811980617137e+01  6.2519559322722451e+01  6.1402194741050138e+01  5.9841446393806322e+01  5.8466601347766279e+01  5.7521493812573283e+01  5.6187035360208718e+01  5.5528748088761525e+01  5.4579741486766352e+01  5.4352498516129842e+01  5.3779384965540288e+01  5.3147251897378602e+01  5.2545263933011228e+01  5.2134862558493012e+01  5.1733681351913404e+01  6.1985231637364464e+01  7.7253028615006684e+01  7.7138311380268362e+01  7.7339839260491019e+01  7.6372110203144587e+01  7.5072221387329947e+01  7.4485978101048232e+01  7.3685473678446485e+01  7.1990959929378292e+01  7.2090490822050199e+01  7.0672506736602401e+01  6.9550347805801948e+01  6.7700962934884430e+01  6.6119905316842619e+01  6.3809163741043989e+01  6.1597678364768811e+01  6.1241623005438889e+01  6.0271664726676576e+01  5.8514775243535048e+01  5.6832102920658315e+01  5.5739966727593242e+01  5.5238424269261223e+01  5.4260275585559185e+01  5.3823859176007730e+01  5.3391160083232322e+01  5.3614212089800311e+01  5.2964224430562844e+01  7.7080518040288297e+01  7.7620146218812536e+01  7.7605986621085492e+01  7.8053286376064747e+01  7.8145478089589233e+01  7.7665250508059728e+01  7.6788234750891718e+01  7.5513838862824059e+01  7.4725531158297244e+01  7.4031914301379658e+01  7.2506957897504080e+01  7.1159694886551137e+01  6.9089122425807830e+01  6.6439729842934341e+01  6.4656477753857160e+01  6.2808465043349656e+01  6.1173289537688582e+01  5.9351721890813039e+01  5.8967484986811868e+01  5.7582235872787301e+01  5.6188086853725714e+01  5.5134713273276020e+01  5.4697278433547936e+01  7.6595215740272138e+01  7.7128307073242979e+01  7.7567863310996600e+01  7.8172080414303011e+01  7.7933822618480775e+01  7.8504402358632447e+01  7.8778195368742473e+01  7.8699306198822811e+01  7.8173540953945817e+01  7.7707660214891149e+01  7.6848432746880007e+01  7.6994664015399309e+01  7.5953842840026766e+01  7.6003526730387662e+01  7.4682390822986264e+01  7.3010557136932405e+01  7.2686319314096025e+01  7.1271319014724540e+01  6.7280371952583721e+01  6.4338520079368536e+01  6.1729376842119493e+01  6.1151772252349154e+01  5.9692459367141844e+01  5.8225195511488280e+01  5.7610616282250703e+01  5.5995331681421774e+01  5.5568316405672107e+01  7.5609477954001846e+01  7.6368081149493477e+01  7.6998051793809452e+01  7.7836217846228479e+01  7.8565641404639123e+01  7.8756193591701361e+01  7.9144052854368439e+01  7.9246448521737577e+01  7.8996518127750008e+01  7.7892853419051846e+01  7.8493071420768487e+01  7.7444246121476922e+01  7.7008773116710614e+01  7.6075513502251098e+01  7.4422150233625274e+01  7.3683013293178107e+01  6.4868789752114282e+01  6.1809692355821191e+01  6.0362591728243828e+01  5.9568619198247902e+01  5.7217416236385802e+01  5.6819982999595688e+01  5.6414585247310377e+01  7.5521506687827269e+01  7.6275683811163205e+01  7.6304539884662873e+01  7.7546265988899918e+01  7.8100313742226973e+01  7.8600224234611915e+01  7.9083743396414945e+01  7.9164319319282370e+01  7.9667065836363264e+01  7.9590796118360970e+01  7.9687028795806214e+01  7.9851453211378598e+01  7.9595309436117617e+01  7.9478508899345400e+01  7.9387602125117169e+01  7.8457321752861120e+01  7.7906829816894472e+01  7.6686730499016718e+01  7.6185496565887519e+01  7.4005953884992010e+01  7.8697248325606310e+01  5.8288902972030549e+01  5.7950084030522277e+01  5.7590761530424984e+01  7.5273011347177587e+01  7.5448938798844225e+01  7.5388340328671021e+01  7.6932051430230075e+01  7.7589527406290244e+01  7.7823910014894764e+01  7.8682270099319268e+01  7.9164300379251273e+01  7.9554315751482164e+01  7.9843420497218872e+01  8.0144152725239735e+01  8.0152404143532380e+01  8.0632337727589942e+01  8.0175429303186448e+01  8.0321909029099416e+01  8.0181462827114544e+01  8.0087279246616532e+01  7.9108859956804281e+01  7.9271069030460097e+01  7.8095178831359192e+01  7.8465845823424317e+01  7.4372605652807962e+01  7.1897168877986772e+01  7.9931350603930895e+01  7.3389569269653265e+01  7.1327295582515418e+01  6.9622074953313117e+01  7.4109680872818458e+01  7.3875462793147051e+01  7.5149520784350756e+01  7.6121484577761706e+01  7.6851319499314073e+01  7.7490547377474513e+01  7.8024274611274009e+01  7.8704969131188065e+01  7.9135460118950149e+01  7.9687672216789196e+01  8.0058680636641483e+01  8.0700650873981402e+01  8.0611122743463739e+01  8.1075712157030651e+01  8.1274066440620004e+01  8.0841911075713142e+01  8.0807999255315011e+01  8.0893749957825833e+01  8.0577472581473998e+01  8.0203000582224064e+01  7.2452046438492602e+01  6.9936097251935436e+01  6.7490963788574177e+01  7.3127679005502685e+01  7.3747663316204438e+01  7.4884830568270388e+01  7.5825002892670213e+01  7.5941140474676104e+01  7.6942292739940044e+01  7.7566010062017071e+01  7.8160795441127377e+01  7.8881771586576534e+01  7.9474893793434319e+01  7.9813694473346672e+01  8.0183493586933281e+01  8.0627819835300542e+01  8.0992509111616314e+01  8.1079183746818970e+01  8.1416607701935831e+01  8.1661719923485251e+01  8.1608786358404487e+01  8.1305644711552588e+01  8.1310550246639622e+01  8.1670736455155179e+01  8.1352937207222425e+01  8.1284769632977984e+01  7.1905848879116903e+01  7.8523435538814525e+01  8.1382425230617585e+01  7.0829725882433365e+01  6.8318791675705086e+01  6.5646548113669638e+01  7.2787739579241105e+01  7.4087639450199362e+01  7.5055131781402451e+01  7.5043912725910531e+01  7.6124681121985532e+01  7.7162422910062077e+01  7.7661143204882890e+01  7.8094251970149855e+01  7.8646378156283347e+01  7.9271433809799149e+01  7.9975439276487151e+01  8.0448307235580529e+01  8.0191463962692978e+01  8.0951360761088438e+01  8.1341291121251743e+01  8.1635567332793386e+01  8.1686278401263849e+01  8.1871833629853072e+01  8.1911746355465439e+01  8.1795800197608457e+01  8.2006763536018681e+01  8.1929378916083550e+01  8.1836703448659335e+01  7.0793449033443650e+01  7.1697345526594276e+01  6.9656703320368010e+01  6.6652018276103448e+01  6.4975810751920889e+01  6.3308289486315324e+01  6.3505627694204151e+01  6.8149767047234505e+01  6.9464597763749950e+01  7.0586938628561342e+01  7.2092186153094545e+01  7.3014025080074830e+01  7.4219966963399173e+01  7.4432523396571952e+01  7.5489977239835042e+01  7.6701443733160289e+01  7.7536584815235798e+01  7.8241881086926924e+01  7.8794752232929042e+01  7.9417828110540299e+01  7.9862632064759026e+01  8.0355167325284810e+01  8.0762478543684892e+01  8.1100863876467585e+01  8.1291721924414773e+01  8.1573253016348374e+01  8.1787997100550186e+01  8.1873748678035241e+01  8.2008812886400662e+01  8.2069970595985481e+01  8.2092544183447686e+01  8.2055773207252841e+01  6.5839087415254369e+01  6.8064959520048319e+01  6.9065912644470330e+01  6.9690122664883020e+01  7.1202966165137951e+01  7.2489199425592659e+01  7.3369812488532091e+01  7.3117524268821100e+01  7.4185560611592763e+01  7.5093608154292582e+01  7.6303199746892673e+01  7.6954982264305286e+01  7.7324812436434385e+01  7.7938548457028730e+01  7.8532247008083331e+01  7.9013698476599586e+01  7.9637280030583369e+01  8.0186191335816957e+01  8.0629000808559482e+01  8.1103770389166243e+01  8.1365227860311634e+01  8.1550069778120417e+01  8.1768012658726434e+01  8.1929513211396397e+01  8.2009628051725329e+01  8.2098111270086420e+01  8.2093854701407579e+01  8.1897540275712061e+01  8.1966531429591768e+01  6.4821494848623487e+01  6.3661755445229680e+01  6.0851209122437155e+01  5.9912105677435889e+01  6.0754856772507353e+01  6.7510597134972585e+01  6.8194853301296277e+01  6.8797135346221950e+01  7.0370541313484921e+01  7.1846412795859209e+01  7.2336634408617769e+01  7.2612479711974359e+01  7.3417393239984477e+01  7.3519239472504196e+01  7.4806123845275152e+01  7.5592542016799442e+01  7.6163065453275308e+01  7.6718053244662769e+01  7.7352744232989693e+01  7.7902101325860286e+01  7.8635800793563391e+01  7.9122593143259536e+01  7.9502235083699134e+01  7.9883183908704567e+01  8.0173340170934352e+01  8.0582088061399688e+01  8.1022283092665518e+01  8.1269704227039199e+01  8.1504833595703047e+01  8.1701833557189659e+01  8.1845743278775132e+01  8.1946899140420655e+01  8.2002048857799011e+01  8.2050403717071362e+01  8.2040753110371469e+01  8.1926172568163423e+01  8.1579580633680592e+01  8.1491756454862852e+01  8.1708703788607039e+01  8.1556525282044348e+01  5.7367211864600023e+01  5.6473864008747164e+01  5.7350392947545828e+01  6.9795534028367726e+01  7.1275264278706089e+01  7.1698460947289533e+01  7.2744199813992481e+01  7.3683779544567344e+01  7.4455438876310495e+01  7.5062862794471826e+01  7.5707260771619772e+01  7.6341293026007463e+01  7.7070572735622264e+01  7.7508576955917448e+01  7.7980841425472690e+01  7.8762604106808425e+01  7.9398445856050756e+01  7