<?xml version="1.0"?>
<VTKFile type="UnstructuredGrid"  version="0.1"  >
<UnstructuredGrid>
<Piece  NumberOfPoints="2006" NumberOfCells="3618">
<Points>
<DataArray  type="Float64"  NumberOfComponents="3"  format="ascii">3 0.3378215821452335 0  2.833441594912761 0.3337663796510457 0  3 0.5329865384474093 0  2.661503918807094 0.3230078376141886 0  2.842489777594233 0.5274693327827005 0  3 0.7176341807104085 0  2.481388254524131 0.3085176726988411 0  2.675936639001904 0.5139049585028559 0  2.854783967522197 0.709567935044394 0  3 0.8839527516772595 0  2.292893218813257 0.2928932188132569 0  2.497472710738964 0.4974727107389642 0  2.692797973444407 0.6927979734444063 0  2.871431999438945 0.8714319994389447 0  3 1 0  2.308517672698841 0.4813882545241308 0  2.513904958502856 0.6759366390019039 0  2.709567935044394 0.854783967522197 0  2.883952751677259 1 0  3 1.116047248322741 0  3.128568000561055 1.128568000561055 0  3.116047248322741 1 0  2.323007837614188 0.6615039188070941 0  2.5274693327827 0.8424897775942335 0  2.717634180710409 1 0  2.871431999438945 1.128568000561055 0  3 1.282365819289591 0  3.145216032477803 1.290432064955606 0  3.307202026555593 1.307202026555594 0  3.290432064955606 1.145216032477803 0  3.282365819289591 1 0  2.333766379651045 0.8334415949127614 0  2.53298653844741 1 0  2.709567935044394 1.145216032477803 0  2.854783967522197 1.290432064955606 0  3 1.467013461552591 0  3.157510222405767 1.4725306672173 0  3.324063360998096 1.486095041497144 0  3.502527289261036 1.502527289261036 0  3.486095041497144 1.324063360998096 0  3.4725306672173 1.157510222405767 0  3.46701346155259 1 0  2.337821582145233 1 0  2.5274693327827 1.157510222405767 0  2.692797973444407 1.307202026555594 0  2.842489777594233 1.4725306672173 0  3 1.662178417854766 0  3.166558405087239 1.666233620348955 0  3.338496081192906 1.676992162385812 0  3.518611745475869 1.691482327301159 0  3.707106781186743 1.707106781186743 0  3.691482327301159 1.518611745475869 0  3.676992162385812 1.338496081192906 0  3.666233620348955 1.166558405087239 0  3.662178417854767 1 0  2.333766379651045 1.166558405087239 0  2.513904958502856 1.324063360998096 0  2.675936639001904 1.486095041497144 0  2.833441594912761 1.666233620348955 0  2.323007837614188 1.338496081192906 0  2.497472710738964 1.502527289261036 0  2.661503918807094 1.676992162385812 0  2.308517672698841 1.518611745475869 0  2.481388254524131 1.691482327301159 0  2.292893218813257 1.707106781186743 0  2 4.662178417854767 0  1.833441594912761 4.666233620348955 0  2 4.46701346155259 0  1.661503918807094 4.676992162385812 0  1.842489777594233 4.472530667217299 0  2 4.282365819289591 0  1.481388254524131 4.691482327301159 0  1.675936639001904 4.486095041497144 0  1.854783967522197 4.290432064955606 0  2 4.11604724832274 0  1.292893218813257 4.707106781186743 0  1.497472710738964 4.502527289261036 0  1.692797973444406 4.307202026555593 0  1.871431999438945 4.128568000561056 0  2 4 0  1.308517672698841 4.518611745475869 0  1.513904958502856 4.324063360998096 0  1.709567935044394 4.145216032477803 0  1.883952751677259 4 0  2 3.883952751677259 0  2.128568000561055 3.871431999438945 0  2.116047248322741 4 0  1.323007837614188 4.338496081192906 0  1.5274693327827 4.157510222405767 0  1.717634180710409 4 0  1.871431999438945 3.871431999438945 0  2 3.717634180710409 0  2.145216032477803 3.709567935044394 0  2.307202026555593 3.692797973444407 0  2.290432064955606 3.854783967522197 0  2.282365819289591 4 0  1.333766379651045 4.166558405087239 0  1.532986538447409 4 0  1.709567935044394 3.854783967522197 0  1.854783967522197 3.709567935044394 0  2 3.53298653844741 0  2.157510222405767 3.5274693327827 0  2.324063360998096 3.513904958502856 0  2.502527289261036 3.497472710738964 0  2.486095041497144 3.675936639001904 0  2.4725306672173 3.842489777594233 0  2.46701346155259 4 0  1.337821582145234 4 0  1.5274693327827 3.842489777594233 0  1.692797973444406 3.692797973444407 0  1.842489777594233 3.5274693327827 0  2 3.337821582145233 0  2.166558405087239 3.333766379651045 0  2.338496081192906 3.323007837614188 0  2.518611745475869 3.308517672698841 0  2.707106781186743 3.292893218813257 0  2.691482327301159 3.481388254524131 0  2.676992162385812 3.661503918807094 0  2.666233620348955 3.833441594912761 0  2.662178417854767 4 0  1.333766379651045 3.833441594912761 0  1.513904958502856 3.675936639001904 0  1.675936639001904 3.513904958502856 0  1.833441594912761 3.333766379651045 0  1.323007837614188 3.661503918807094 0  1.497472710738964 3.497472710738964 0  1.661503918807094 3.323007837614188 0  1.308517672698841 3.481388254524131 0  1.481388254524131 3.308517672698841 0  1.292893218813257 3.292893218813257 0  -6 5.662178417854767 0  -5.833441594912761 5.666233620348955 0  -6 5.46701346155259 0  -5.661503918807094 5.676992162385812 0  -5.842489777594234 5.472530667217299 0  -6 5.282365819289591 0  -5.481388254524131 5.691482327301159 0  -5.675936639001904 5.486095041497144 0  -5.854783967522197 5.290432064955606 0  -6 5.11604724832274 0  -5.292893218813257 5.707106781186743 0  -5.497472710738964 5.502527289261036 0  -5.692797973444407 5.307202026555593 0  -5.871431999438944 5.128568000561056 0  -6 5 0  -5.308517672698841 5.518611745475869 0  -5.513904958502856 5.324063360998096 0  -5.709567935044394 5.145216032477803 0  -5.88395275167726 5 0  -6 4.88395275167726 0  -6.128568000561056 4.871431999438944 0  -6.11604724832274 5 0  -5.323007837614188 5.338496081192906 0  -5.527469332782701 5.157510222405767 0  -5.717634180710409 5 0  -5.871431999438944 4.871431999438944 0  -6 4.717634180710409 0  -6.145216032477803 4.709567935044394 0  -6.307202026555593 4.692797973444407 0  -6.290432064955606 4.854783967522197 0  -6.282365819289591 5 0  -5.333766379651045 5.166558405087239 0  -5.53298653844741 5 0  -5.709567935044394 4.854783967522197 0  -5.854783967522197 4.709567935044394 0  -6 4.53298653844741 0  -6.157510222405766 4.527469332782701 0  -6.324063360998096 4.513904958502856 0  -6.502527289261036 4.497472710738964 0  -6.486095041497144 4.675936639001904 0  -6.472530667217299 4.842489777594234 0  -6.46701346155259 5 0  -5.337821582145233 5 0  -5.527469332782701 4.842489777594234 0  -5.692797973444407 4.692797973444407 0  -5.842489777594234 4.527469332782701 0  -6 4.337821582145233 0  -6.166558405087239 4.333766379651045 0  -6.338496081192906 4.323007837614188 0  -6.518611745475869 4.308517672698841 0  -6.707106781186743 4.292893218813257 0  -6.691482327301159 4.481388254524131 0  -6.676992162385812 4.661503918807094 0  -6.666233620348955 4.833441594912761 0  -6.662178417854767 5 0  -5.333766379651045 4.833441594912761 0  -5.513904958502856 4.675936639001904 0  -5.675936639001904 4.513904958502856 0  -5.833441594912761 4.333766379651045 0  -5.323007837614188 4.661503918807094 0  -5.497472710738964 4.497472710738964 0  -5.661503918807094 4.323007837614188 0  -5.308517672698841 4.481388254524131 0  -5.481388254524131 4.308517672698841 0  -5.292893218813257 4.292893218813257 0  -5 2.337821582145233 0  -4.833441594912761 2.333766379651045 0  -5 2.53298653844741 0  -4.661503918807094 2.323007837614189 0  -4.842489777594234 2.5274693327827 0  -5 2.717634180710409 0  -4.481388254524131 2.308517672698841 0  -4.675936639001904 2.513904958502856 0  -4.854783967522197 2.709567935044394 0  -5 2.883952751677259 0  -4.292893218813257 2.292893218813257 0  -4.497472710738964 2.497472710738964 0  -4.692797973444407 2.692797973444407 0  -4.871431999438944 2.871431999438945 0  -5 3 0  -4.308517672698841 2.481388254524131 0  -4.513904958502856 2.675936639001904 0  -4.709567935044394 2.854783967522197 0  -4.88395275167726 3 0  -5 3.116047248322741 0  -5.128568000561056 3.128568000561055 0  -5.11604724832274 3 0  -4.323007837614188 2.661503918807094 0  -4.527469332782701 2.842489777594233 0  -4.717634180710409 3 0  -4.871431999438944 3.128568000561055 0  -5 3.282365819289591 0  -5.145216032477803 3.290432064955606 0  -5.307202026555593 3.307202026555593 0  -5.290432064955606 3.145216032477803 0  -5.282365819289591 3 0  -4.333766379651045 2.833441594912761 0  -4.53298653844741 3 0  -4.709567935044394 3.145216032477803 0  -4.854783967522197 3.290432064955606 0  -5 3.46701346155259 0  -5.157510222405766 3.4725306672173 0  -5.324063360998096 3.486095041497144 0  -5.502527289261036 3.502527289261036 0  -5.486095041497144 3.324063360998096 0  -5.472530667217299 3.157510222405767 0  -5.46701346155259 3 0  -4.337821582145233 3 0  -4.527469332782701 3.157510222405767 0  -4.692797973444407 3.307202026555593 0  -4.842489777594234 3.4725306672173 0  -5 3.662178417854767 0  -5.166558405087239 3.666233620348955 0  -5.338496081192906 3.676992162385812 0  -5.518611745475869 3.691482327301159 0  -5.707106781186743 3.707106781186743 0  -5.691482327301159 3.518611745475869 0  -5.676992162385812 3.338496081192906 0  -5.666233620348955 3.166558405087239 0  -5.662178417854767 3 0  -4.333766379651045 3.166558405087239 0  -4.513904958502856 3.324063360998096 0  -4.675936639001904 3.486095041497144 0  -4.833441594912761 3.666233620348955 0  -4.323007837614188 3.338496081192906 0  -4.497472710738964 3.502527289261036 0  -4.661503918807094 3.676992162385812 0  -4.308517672698841 3.518611745475869 0  -4.481388254524131 3.691482327301159 0  -4.292893218813257 3.707106781186743 0  5 4 0  5 3.8125 0  4.853886151115923 4 0  5 3.625 0  4.80632430795117 3.775436298854279 0  4.707772302231846 4 0  4.79366141355045 3.578587735402333 0  4.673383251713283 3.680732660129706 0  4.561658453347769 3.792168701394072 0  4.56165845334777 4 0  5 3.4375 0  4.600014989010139 3.541027542505437 0  4.789717798409911 3.381371727615638 0  5 3.25 0  4.458472067662114 3.674611746363634 0  4.342487680021653 3.850039194045292 0  4.415544604463692 4 0  4.407847296295088 3.526611069368785 0  4.609194292726674 3.359404168011995 0  4.643840673849824 3.180879833384543 0  4.832283973092349 3.162038632311764 0  5 3.0625 0  4.302631777076505 3.688060601225307 0  4.165321303746107 3.8166374852
[...]
<PointData  Scalars="u"> 
<DataArray  type="Float64"  Name="u"  format="ascii">5.3448902532065347e+01  5.7455749806062656e+01  5.3682561530536937e+01  6.0810170960916260e+01  5.8635015060779857e+01  5.3813693919978554e+01  6.3516244090119891e+01  6.2801532732247338e+01  6.1036713054802064e+01  5.5317584147945290e+01  6.5666016405805721e+01  6.5499302040693379e+01  6.5550463287320525e+01  6.7134755121016710e+01  5.8133658268860245e+01  6.7458805783436901e+01  6.7935881405147853e+01  6.9661457675113084e+01  7.2993681271086231e+01  7.2641491070295629e+01  6.6363894550643792e+01  5.4974752180607688e+01  6.9548249736627369e+01  7.1074145868302310e+01  7.3549456102292510e+01  7.5392217323274807e+01  7.2677439105635088e+01  6.8334364998402961e+01  6.3704912451330181e+01  5.9751813850821158e+01  5.2996060190909049e+01  7.1814901467350353e+01  7.3728398701769251e+01  7.5758554153747923e+01  7.5304518755357904e+01  7.2257976323846222e+01  6.9113056971122163e+01  6.5449318142374665e+01  6.2467614114154934e+01  6.0414467552303186e+01  5.6816267980485151e+01  5.2361939927590846e+01  7.3979385930421188e+01  7.5581904005926987e+01  7.6089101343365698e+01  7.4579410138474628e+01  7.1851721332158846e+01  6.9165528150832301e+01  6.6357146475298151e+01  6.3716125429208219e+01  6.1380426064690241e+01  5.9942791548250895e+01  5.7883100859953444e+01  5.5109758516003559e+01  5.1625560753293264e+01  7.5577746938406207e+01  7.6421125183218365e+01  7.5900936037046861e+01  7.3963458534010712e+01  7.6584012717081862e+01  7.6582008843253334e+01  7.5488313897475066e+01  7.7090691711673998e+01  7.6533205178174967e+01  7.7263906465682581e+01  5.9276811961627644e+01  6.3160216294831947e+01  5.9571746387003031e+01  6.6379078517534282e+01  6.4389837843895833e+01  5.9774964028998703e+01  6.8939277357953245e+01  6.8397165084538685e+01  6.6847666539551923e+01  6.1356436760686435e+01  7.0937088668526826e+01  7.0925230303219038e+01  7.1184855279347261e+01  7.3020457201690974e+01  6.4236324394388873e+01  7.2698294549568800e+01  7.3362947573538378e+01  7.5337856514189966e+01  7.8943946565394711e+01  7.8815028822123509e+01  7.2719949065093715e+01  6.1215742867590102e+01  7.4756344839132026e+01  7.6513747676811036e+01  7.9266050823870160e+01  8.1388373021377120e+01  7.8970271175130307e+01  7.4851750226495156e+01  7.0453787091435089e+01  6.6309714125395459e+01  5.9411910601253034e+01  7.6990584052516780e+01  7.9167905039362253e+01  8.1501228109606032e+01  8.1357765082600608e+01  7.8711212006724352e+01  7.5849683257820914e+01  7.2444757532981782e+01  6.9689331499161142e+01  6.7362740264480422e+01  6.3555929218839495e+01  5.8932946704627334e+01  7.9119291120916941e+01  8.1016106385043656e+01  8.1853326169732327e+01  8.0729174466840234e+01  7.8514912890900945e+01  7.6166294016259727e+01  7.3662711424954210e+01  7.1273686610234478e+01  6.9110502291715463e+01  6.7327772220498801e+01  6.4985847730770459e+01  6.1983419986589354e+01  5.8311935250418323e+01  8.0658896543547925e+01  8.1828390806386452e+01  8.1692285231574189e+01  8.0236938167456557e+01  8.1590676564371094e+01  8.1962925700952269e+01  8.1325040340199877e+01  8.2002352154732478e+01  8.1874839618704982e+01  8.2070235049040775e+01  5.3633993828353930e+01  5.7823516467676392e+01  5.3737918120872976e+01  6.1370745207217716e+01  5.8877418276473669e+01  5.3717518861101880e+01  6.4276742168209339e+01  6.3255952111297070e+01  6.1137098726774326e+01  5.5056945933458302e+01  6.6627344786556293e+01  6.6174149997190241e+01  6.5877457740323408e+01  6.7067993982493434e+01  5.7737840733224452e+01  6.8364731542417800e+01  6.8518281246902447e+01  6.9851821393670036e+01  7.2777894601663547e+01  7.2093455706230245e+01  6.5597742837978871e+01  5.4411591955779585e+01  7.0389359703233822e+01  7.1544777154367381e+01  7.3602724150683642e+01  7.5038359869882399e+01  7.1871846957989106e+01  6.7278071189061663e+01  6.2382943162563009e+01  5.8735590172240492e+01  5.2211856407352528e+01  7.2583412874487905e+01  7.4092022154934085e+01  7.5674054020545526e+01  7.4753177688134699e+01  7.1100259728417598e+01  6.7667359848980851e+01  6.3731491737697311e+01  6.0510367428669383e+01  5.8851064170118384e+01  5.5565318644899598e+01  5.1363062121347937e+01  7.4667329017849227e+01  7.5825908642379019e+01  7.5834727055857499e+01  7.3730143447685933e+01  7.0230327464228466e+01  6.7230827519744423e+01  6.4146386748091800e+01  6.1278611685228860e+01  5.8775559891298073e+01  5.7789925454631785e+01  5.6112049666075464e+01  5.3656345106290182e+01  5.0436310620040707e+01  7.6191269781692256e+01  7.6536495348920994e+01  7.5412239065398893e+01  7.2711409625628178e+01  7.7111511617871670e+01  7.6514964554099194e+01  7.4668975172612491e+01  7.7513414311649427e+01  7.6229211891334273e+01  7.7530858965553790e+01  6.0468556347985221e+01  6.4372314171657834e+01  6.0765374697711856e+01  6.7599557097585532e+01  6.5596954312651818e+01  6.0972036466545575e+01  7.0157637292673073e+01  6.9604202860343392e+01  6.8048745269906107e+01  6.2556952768546758e+01  7.2144460769985798e+01  7.2121772393509659e+01  7.2378550484266540e+01  7.4218002592783051e+01  6.5439460828670121e+01  7.3872739140782841e+01  7.4534131985035074e+01  7.6516885408685937e+01  8.0136965384725855e+01  8.0019999768323714e+01  7.3931149140878645e+01  6.2416826889091887e+01  7.5894282882711039e+01  7.7659246827054218e+01  8.0428502131390104e+01  8.2573227169978551e+01  8.0174298971777745e+01  7.6075081294990056e+01  7.1669230857319633e+01  6.7503022651677824e+01  6.0585783807086287e+01  7.8086786699911571e+01  8.0279386347528714e+01  8.2638059471767477e+01  8.2519423663650130e+01  7.9905284478217169e+01  7.7091121199521638e+01  7.3693555854764753e+01  7.0882990441938787e+01  6.8514809207934121e+01  6.4680461389858124e+01  6.0036045337646328e+01  8.0165868052073975e+01  8.2083103012443829e+01  8.2946589409059712e+01  8.1851513459908645e+01  7.9682968559148350e+01  7.7416687481641901e+01  7.4953078687641749e+01  7.2527961814962595e+01  7.0205162241732637e+01  6.8374822166283238e+01  6.6001171286194179e+01  6.2976171600326509e+01  5.9285342290206430e+01  8.1637668020623821e+01  8.2826520687345806e+01  8.2711911031816328e+01  8.1285178566916741e+01  8.2478824905666684e+01  8.2861618890253837e+01  8.2232635676444048e+01  8.2765877490443955e+01  8.2626809978251600e+01  8.2665136599194895e+01  5.1733447161021921e+01  5.2280787652598278e+01  5.2144905644550910e+01  5.2766392674478830e+01  5.3012956013145917e+01  5.2551767824960926e+01  5.3648565484612320e+01  5.3788190545309369e+01  5.3801165423127600e+01  5.2984919873133045e+01  5.3178504089767671e+01  5.4543613894753790e+01  5.4170569470865388e+01  5.3521029914599545e+01  5.4653322256285087e+01  5.4342775912514526e+01  5.3423426057814360e+01  5.5433920152666673e+01  5.5031263543759295e+01  5.5294987562699085e+01  5.4415902417006826e+01  5.3770475287611092e+01  5.5223819269082412e+01  5.5166178666288189e+01  5.3856631370798389e+01  5.6399891726924245e+01  5.6127157898753602e+01  5.6672736159851375e+01  5.5780980612656052e+01  5.4932547075939901e+01  5.5933614690467138e+01  5.3916453845089691e+01  5.6220429999955869e+01  5.6267798081362827e+01  5.5821184129007754e+01  5.4752890737620127e+01  5.4293257051475507e+01  5.7318471611627118e+01  5.7396287695010933e+01  5.7475851311067785e+01  5.6923683025772903e+01  5.5182627309854908e+01  5.7449503039267768e+01  5.7740096322364593e+01  5.6821372124628262e+01  5.5886347353956538e+01  5.5335705325033167e+01  5.4545955388171279e+01  5.3951446780270537e+01  5.8846045403388160e+01  5.8665700712124384e+01  5.8733890962462226e+01  5.8238357697535342e+01  5.7595098726407414e+01  5.6430440436623044e+01  5.5719074471832499e+01  5.4974355886271020e+01  5.3863361978585132e+01  5.8534210497486782e+01  5.7721442027645566e+01  5.5637491734057086e+01  5.9663856166292476e+01  6.0248513353706670e+01  6.0507267795614489e+01  5.9650355178095921e+01  5.9451548658082586e+01  5.8591149701217986e+01  5.7327057462079622e+01  5.6114776677844240e+01  5.5555164895221822e+01  5.4672273990879837e+01  5.3637241669175246e+01  5.9911141266998364e+01  6.0240856098469230e+01  5.9521463038288914e+01  5.7704743231847466e+01  5.6049189681873607e+01  6.0923070561272183e+01  6.2366069001329805e+01  6.1857089610817667e+01  6.1060794186477040e+01  6.0579047358286601e+01  6.0180680014776030e+01  5.9433708027313507e+01  5.8183174372163364e+01  5.6300722317134301e+01  5.5262049007984153e+01  5.4308488203937408e+01  5.3279710550067783e+01  6.1366911505798946e+01  6.2508269531775369e+01  6.1397396327845073e+01  6.1069274309805365e+01  5.9561016294938540e+01  5.6881120858858473e+01  5.6481180929877915e+01  6.3207797358267541e+01  6.4267883768668099e+01  6.3125045209203115e+01  6.3178525452768788e+01  6.2278257354256546e+01  6.1860759632733533e+01  6.0578026744603839e+01  5.9274769116185432e+01  5.8009217492223350e+01  5.6809902301319696e+01  5.4969121676713428e+01  5.3490819453815327e+01  5.2779026641410965e+01  6.3390469346220428e+01  6.4057755801523541e+01  6.2468922166064694e+01  5.9526610562617549e+01  5.7306923857599941e+01  6.5015289614802569e+01  6.6643129053640990e+01  6.5858400425866975e+01  6.4626522220487558e+01  6.4189090201081072e+01  6.1596581193652561e+01  5.7655673935443254e+01  6.4544481449931709e+01  6.4613657110540089e+01  6.3495835415595835e+01  6.3427681612161813e+01  6.1232625537051106e+01  5.9457100381441776e+01  5.7861531650285890e+01  5.6306070689306921e+01  5.5045190244020318e+01  5.3380333795187084e+01  5.4229162712709595e+01  6.6459642739719769e+01  6.6080187000536640e+01  5.2135435031524558e+01  5.2429505702478515e+01  6.8258192091670324e+01  6.6292887623222114e+01  6.7341009187519958e+01  6.4972003812707442e+01  6.1845433583458004e+01  5.8058869798755964e+01  6.8469030974852927e+01  6.7668918154379156e+01  6.8721189274233936e+01  6.6720700208844818e+01  6.6461256984828040e+01  6.5249188428413078e+01  6.5600123301882363e+01  6.4224565258786839e+01  6.2679117296237585e+01  6.0148255805133587e+01  5.8341958530716731e+01  5.6652770872487210e+01  5.4878536144907976e+01  5.4078497561435569e+01  5.2710613022933913e+01  5.1936835936675088e+01  5.1380998039883643e+01  7.0241808358549847e+01  7.1601593188909433e+01  6.9096662617142258e+01  5.8391120511815821e+01  6.9291226203822688e+01  7.0288928601913440e+01  6.8600922450172547e+01  6.8527711863015668e+01  6.7445312870612369e+01  6.7281904699575520e+01  6.5734038847370925e+01  6.3790244761847248e+01  6.2178593743483695e+01  6.1355900224282387e+01  5.9104385469118448e+01  5.7701817943989553e+01  5.5342153887648244e+01  5.3044409426275237e+01  5.1835460740769683e+01  5.0913880176142143e+01  5.0489596338779592e+01  5.3272546701068087e+01  7.2083336693191939e+01  7.4240358033285261e+01  7.1319266120019194e+01  7.1310983228025776e+01  7.1019102380148567e+01  7.1838614503539304e+01  7.0936480850478262e+01  7.0408986743015447e+01  6.9456107872058737e+01  6.9786687959376223e+01  7.0752928156999161e+01  6.8711366544534485e+01  6.6374374429908499e+01  6.3717897818064003e+01  5.9950582430078441e+01  5.7036025106904816e+01  5.4346929937571055e+01  5.2112466924432638e+01  5.0945780761576579e+01  5.0214358387127604e+01  4.9523028379092281e+01  5.6062900999690463e+01  7.3360390775689538e+01  7.4900352158246349e+01  7.6529891680422750e+01  7.7112933870188655e+01  7.5601326381098090e+01  7.3717335761071794e+01  7.3290977355654931e+01  7.3422041855644125e+01  7.2062191795917016e+01  7.1391554596512876e+01  7.2623677518972102e+01  7.1818887050704376e+01  6.9179667091075274e+01  5.7807882546816060e+01  5.4168975234595237e+01  5.2577101078686468e+01  5.0360088439252493e+01  4.9985934726059341e+01  4.9570717959270418e+01  4.9206940029901205e+01  4.8835982337289444e+01  4.8490389860838647e+01  7.5369127177060022e+01  7.6774932683740786e+01  7.8297862103336143e+01  7.9065566024594048e+01  7.9235729393889500e+01  7.7866942247016894e+01  7.6229712776107093e+01  7.7690765068219406e+01  7.5243459792841122e+01  7.4994453428366526e+01  7.3532782989807117e+01  7.4230371340009341e+01  7.3043812089525730e+01  7.4239069504852509e+01  7.3949402850449346e+01  5.4977095116314864e+01  5.1181450551720772e+01  5.0809207553432927e+01  7.6682606495261808e+01  7.6668790539345679e+01  7.6180937055707943e+01  7.5253748874445762e+01  7.5451663771649905e+01  7.7824158752865515e+01  7.8656594675502419e+01  7.9360074132637010e+01  8.0198976270071896e+01  8.0176217168749858e+01  8.0554927799345975e+01  8.0235273815383110e+01  7.8477636737023346e+01  7.4861566410068349e+01  5.1708608318068173e+01  7.7408531516863675e+01  7.8108457095785994e+01  7.7274345853212679e+01  7.6658678059160209e+01  7.6499270075329221e+01  7.8979829658588301e+01  7.9615270127925399e+01  7.9476944692797986e+01  8.0224435622991180e+01  8.0844707890002624e+01  8.0912376573678387e+01  8.1123238063549721e+01  8.1396195560388449e+01  8.1304740768775559e+01  7.8085814354933575e+01  7.8780013656269901e+01  7.9205089914951813e+01  7.9862621651673734e+01  8.0660850569186536e+01  8.1201233930117965e+01  8.1444522725295144e+01  8.1847065370197143e+01  8.1887845096855216e+01  8.1849042055956701e+01  7.8054448883542690e+01  7.7408445826164964e+01  7.7287630118835622e+01  7.9313669321141731e+01  7.9026966221168905e+01  7.8564817523040603e+01  7.8223985693374502e+01  7.7571473841063920e+01  7.7063382259837425e+01  7.9970795378421826e+01  8.0615777714790610e+01  8.1121158096933968e+01  8.1458359832049439e+01  8.1722069038759159e+01  8.2045561476947185e+01  8.2086501527153956e+01  8.2084117026211786e+01  8.0282032432957848e+01  7.7804591386211285e+01  7.9476344026764650e+01  7.8858518127015586e+01  7.8402894380482294e+01  7.7899248525708956e+01  7.7101171144980711e+01  7.7024715398533516e+01  7.6557516432914596e+01  8.0180090215339860e+01  7.9713550863340586e+01  8.0749509335121616e+01  8.1376167758561110e+01  8.1705611237740655e+01  8.1909641127071737e+01  8.2045778426937602e+01  8.2114632429622162e+01  8.2134276185734635e+01  8.2111464641077532e+01  8.1991500210939066e+01  8.1972910184550756e+01  7.9286322334637902e+01  7.9721965945805366e+01  8.0225701081143356e+01  8.0629929494591991e+01  8.1028531429641291e+01  8.1373367078891604e+01  8.1677950642304978e+01  8.1881026685896970e+01  8.1921876865764176e+01  8.2041757303580454e+01  8.2086354240519071e+01  8.2052541735474634e+01  8.1861091648748285e+01  8.1522169172959281e+01  8.1378475386642066e+01  8.1735367198016149e+01  8.1572634046473780e+01  7.8748710748329756e+01  7.8170186226695293e+01  7.7403345565902157e+01  7.6403061269182857e+01  7.6385575932161174e+01  7.5570276591001260e+01  8.0174380677706409e+01  7.9254193508708909e+01  7.9184784776549790e+01  7.8737936677211209e+01  7.7857137790436312e+01  7.7003628831728633e+01  7.5455986675280386e+01  7.5202782134718049e+01  7.3979424264075121e+01  7.9730655899085733e+01  8.0043657807134892e+01  8.0493542150625800e+01  8.0912805093006909e+01  8.1332460772315457e+01  8.1626746937478941e+01  8.1767730443665414e+01  8.1884593032399167e+01  8.1945948984757266e+01  8.1905214777347268e+01  8.1754612529422715e+01  8.1463020165143902e+01  8.0908352768788561e+01  8.0709934176828028e+01  8.1268436135578384e+01  8.0637293396171557e+01  7.8886498832517518e+01  7.9476490725705730e+01  7.9905218942939939e+01  8.0389345924076650e+01  8.0794022787705416e+01  8.1147604463328463e+01  8.1575915297866814e+01  8.1680289457298599e+01  8.1826068386508894e+01  8.1858296348225124e+01  8.1748656605743861e+01  8.1572818310939610e+01  8.1161210665036108e+01  8.0703723283536760e+01  8.0257346629072529e+01  7.9713401044024423e+01  7.9872408365737869e+01  8.0492166347698088e+01  7.9064395233834958e+01  7.8659052345635260e+01  7.8072055078401206e+01  7.7493474501312818e+01  7.6888128919712400e+01  7.6154563872807003e+01  7.5099334939647179e+01  7.3957146445439989e+01  7.4103960861420589e+01  7.3215378254510483e+01  7.1855645039350620e+01  7.8639171048278726e+01  7.9299785152059798e+01  7.9675444427828154e+01  8.0212746376127015e+01  8.0657804412768812e+01  8.1126964874984310e+01  8.1400534585125115e+01  8.1507956874590946e+01  8.1666106814223070e+01  8.1705122548347688e+01  8.1725928458542910e+01  8.1648182727566237e+01  8.1497499738412159e+01  8.1215257713098538e+01  8.0834700938532066e+01  8.0128268824160685e+01  7.9684077159046637e+01  7.9380798795911431e+01  7.8598285836711639e+01  7.9087163095691210e+01  7.7010006018083971e+01  7.8224173894916959e+01  7.7635155543020389e+01  7.7024758772499311e+01  7.6017293269042852e+01  7.4990337281996602e+01  7.3874992581196366e+01  7.1856423518162131e+01  7.2426277314071811e+01  7.1507121056401942e+01  6.9594086577282326e+01  7.6047345184799056e+01  7.7766593336853660e+01  7.8392849009363687e+01  7.9051222820681133e+01  7.8882314161529308e+01  7.9518942176662989e+01  8.0085434351869452e+01  8.0596194569032875e+01  8.0970912871917633e+01  8.1244051525509690e+01  8.1301208865462442e+01  8.1512598240656843e+01  8.1540202686448211e+01  8.1604227505918161e+01  8.1502170232208243e+01  8.1513472569189560e+01  8.1111314884709884e+01  8.0642610784283775e+01  8.0325195833943766e+01  7.9533180422265019e+01  7.8971625480457845e+01  7.8565618249703903e+01  7.7478611771838047e+01  7.7147923237725138e+01  7.7444001568907595e+01  7.6489591206274127e+01  7.4807286364604010e+01  7.7894664041182324e+01  7.7222658272884914e+01  7.6213735004784255e+01  7.5095536278780159e+01  7.4210091877145615e+01  7.2829060587468305e+01  7.1322585768735792e+01  6.9617330209783944e+01  7.0679314403254224e+01  7.0127023075145672e+01  6.7486934364407162e+01  7.8488060744766258e+01  7.6515664634567472e+01  7.7103108451118771e+01  7.6025122131654086e+01  7.4912252547773775e+01  7.3634130071234054e+01  7.2557820207532444e+01  7.1404725617776435e+01  7.0521306055456961e+01  6.9825699084808889e+01  6.8039680639312451e+01  6.6657034880120094e+01  6.5678446358888209e+01  6.8350883871582639e+01  7.7357190309221892e+01  7.8168608470617045e+01  7.8093794861359683e+01  7.8744944887281122e+01  7.9314869487747700e+01  7.9770585549105192e+01  8.0355671662856082e+01  8.0750163051517688e+01  8.1049248283377636e+01  8.1333313315253619e+01  8.1389784222162334e+01  8.1395724849755354e+01  8.1517076259967070e+01  8.1455110780544700e+01  8.1323708604109029e+01  8.1227801442884626e+01  8.0896400014720641e+01  8.0527737969370179e+01  7.9995334037209204e+01  7.8991370518374083e+01  7.8380262549940895e+01  7.7664466141575588e+01  7.6614468011547217e+01  7.6125909932485428e+01  7.4681551767501134e+01  7.5175208743958891e+01  7.2696121353666200e+01  8.0967771680257087e+01  7.6449452286490427e+01  7.7141693589038823e+01  7.7156585523090740e+01  7.7843965032350070e+01  7.8459538644992620e+01  7.9093466796873130e+01  7.9671005529996762e+01  8.0123022147708369e+01  8.0569516142422685e+01  8.0834876394149148e+01  8.1013254449040332e+01  8.1139920518445379e+01  8.1233517297809868e+01  8.1317435583139385e+01  8.1417643711363041e+01  8.1337393304904069e+01  8.1335421481715827e+01  8.1201934628550575e+01  8.1065735789221193e+01  8.0664883707483995e+01  8.0263546890963497e+01  7.9516417146734042e+01  7.9012762142878145e+01  7.8422665452207340e+01  7.7758655931509182e+01  7.6925322967054569e+01  7.6206724563889523e+01  7.5413135455872592e+01  7.3380717579190332e+01  7.2702070846470079e+01  7.0916289201794456e+01  7.5415915712381889e+01  7.5769227392197621e+01  7.4218490967325536e+01  7.2933438227822393e+01  7.1889088802416154e+01  7.0388221315501653e+01  6.9613573608463767e+01  6.9004208652361925e+01  6.7534355701928959e+01  6.5884458751227911e+01  6.4998760036306848e+01  6.3323196994908315e+01  6.3539486241313760e+01  7.7618257552405112e+01  7.5325044532765389e+01  7.4974205331801201e+01  7.4619963842453146e+01  7.3187392159938568e+01  7.2111401624204262e+01  7.0984381671093672e+01  6.9810875940533549e+01  6.8813359539703242e+01  7.5850860809874860e+01  7.6510597535453329e+01  7.6533599302975219e+01  7.7111177993838979e+01  7.7607730579016660e+01  7.8271201340169640e+01  7.8787599795481626e+01  7.9496883843685168e+01  7.9944868833927757e+01  8