<?xml version="1.0"?>
<VTKFile type="UnstructuredGrid"  version="0.1"  >
<UnstructuredGrid>
<Piece  NumberOfPoints="1704" NumberOfCells="3029">
<Points>
<DataArray  type="Float64"  NumberOfComponents="3"  format="ascii">3 0.3819660112504897 0  2.843408347405157 0.3736333896206288 0  3 0.5986121811345446 0  2.675884240244967 0.3517684804899346 0  2.862309893853584 0.5869296815607524 0  3 0.7928932188140729 0  2.492225278930009 0.3229670385733456 0  2.705578223215987 0.5583673348239806 0  2.88819660112527 0.77639320225054 0  3 0.9409830056258242 0  2.292893218813648 0.2928932188136479 0  2.524397193004713 0.5243971930047131 0  2.741180954897836 0.7411809548978358 0  2.920540688701558 0.9205406887015585 0  3 1 0  2.322967038573346 0.4922252789300092 0  2.558367334823981 0.7055782232159871 0  2.77639320225054 0.88819660112527 0  2.940983005625824 1 0  3 1.059016994374176 0  3.079459311298442 1.079459311298441 0  3.059016994374176 1 0  2.351768480489935 0.6758842402449674 0  2.586929681560752 0.8623098938535841 0  2.792893218814073 1 0  2.920540688701558 1.079459311298441 0  3 1.207106781185927 0  3.11180339887473 1.22360679774946 0  3.258819045102164 1.258819045102164 0  3.22360679774946 1.11180339887473 0  3.207106781185927 1 0  2.373633389620628 0.843408347405157 0  2.598612181134545 1 0  2.77639320225054 1.11180339887473 0  2.88819660112527 1.22360679774946 0  3 1.401387818865455 0  3.137690106146416 1.413070318439248 0  3.294421776784013 1.441632665176019 0  3.475602806995287 1.475602806995287 0  3.441632665176019 1.294421776784013 0  3.413070318439248 1.137690106146416 0  3.401387818865455 1 0  2.38196601125049 1 0  2.586929681560752 1.137690106146416 0  2.741180954897836 1.258819045102164 0  2.862309893853584 1.413070318439248 0  3 1.61803398874951 0  3.156591652594843 1.626366610379372 0  3.324115759755033 1.648231519510065 0  3.507774721069991 1.677032961426654 0  3.707106781186353 1.707106781186352 0  3.677032961426654 1.507774721069991 0  3.648231519510065 1.324115759755033 0  3.626366610379372 1.156591652594843 0  3.61803398874951 1 0  2.373633389620628 1.156591652594843 0  2.558367334823981 1.294421776784013 0  2.705578223215987 1.441632665176019 0  2.843408347405157 1.626366610379372 0  2.351768480489935 1.324115759755033 0  2.524397193004713 1.475602806995287 0  2.675884240244967 1.648231519510065 0  2.322967038573346 1.507774721069991 0  2.492225278930009 1.677032961426654 0  2.292893218813647 1.707106781186352 0  2 4.61803398874951 0  1.843408347405157 4.626366610379371 0  2 4.401387818865455 0  1.675884240244967 4.648231519510065 0  1.862309893853584 4.413070318439248 0  2 4.207106781185927 0  1.492225278930009 4.677032961426654 0  1.705578223215987 4.441632665176019 0  1.88819660112527 4.22360679774946 0  2 4.059016994374176 0  1.292893218813648 4.707106781186353 0  1.524397193004713 4.475602806995287 0  1.741180954897836 4.258819045102165 0  1.920540688701559 4.079459311298441 0  2 4 0  1.322967038573346 4.507774721069991 0  1.558367334823981 4.294421776784013 0  1.77639320225054 4.11180339887473 0  1.940983005625824 4 0  2 3.940983005625824 0  2.079459311298442 3.920540688701558 0  2.059016994374176 4 0  1.351768480489935 4.324115759755033 0  1.586929681560752 4.137690106146416 0  1.792893218814073 4 0  1.920540688701559 3.920540688701558 0  2 3.792893218814073 0  2.11180339887473 3.77639320225054 0  2.258819045102164 3.741180954897836 0  2.22360679774946 3.88819660112527 0  2.207106781185927 4 0  1.373633389620628 4.156591652594843 0  1.598612181134545 4 0  1.77639320225054 3.88819660112527 0  1.88819660112527 3.77639320225054 0  2 3.598612181134545 0  2.137690106146416 3.586929681560752 0  2.294421776784013 3.558367334823981 0  2.475602806995287 3.524397193004713 0  2.441632665176019 3.705578223215987 0  2.413070318439248 3.862309893853584 0  2.401387818865455 4 0  1.38196601125049 4 0  1.586929681560752 3.862309893853584 0  1.741180954897836 3.741180954897836 0  1.862309893853584 3.586929681560752 0  2 3.38196601125049 0  2.156591652594843 3.373633389620628 0  2.324115759755033 3.351768480489935 0  2.507774721069991 3.322967038573346 0  2.707106781186353 3.292893218813647 0  2.677032961426654 3.492225278930009 0  2.648231519510065 3.675884240244967 0  2.626366610379372 3.843408347405157 0  2.61803398874951 4 0  1.373633389620628 3.843408347405157 0  1.558367334823981 3.705578223215987 0  1.705578223215987 3.558367334823981 0  1.843408347405157 3.373633389620628 0  1.351768480489935 3.675884240244967 0  1.524397193004713 3.524397193004713 0  1.675884240244967 3.351768480489935 0  1.322967038573346 3.492225278930009 0  1.492225278930009 3.322967038573346 0  1.292893218813648 3.292893218813647 0  -6 5.61803398874951 0  -5.843408347405157 5.626366610379371 0  -6 5.401387818865455 0  -5.675884240244967 5.648231519510065 0  -5.862309893853584 5.413070318439248 0  -6 5.207106781185927 0  -5.492225278930009 5.677032961426654 0  -5.705578223215987 5.441632665176019 0  -5.88819660112527 5.22360679774946 0  -6 5.059016994374176 0  -5.292893218813647 5.707106781186353 0  -5.524397193004713 5.475602806995287 0  -5.741180954897835 5.258819045102165 0  -5.920540688701559 5.079459311298441 0  -6 5 0  -5.322967038573346 5.507774721069991 0  -5.558367334823981 5.294421776784013 0  -5.77639320225054 5.11180339887473 0  -5.940983005625824 5 0  -6 4.940983005625824 0  -6.079459311298441 4.920540688701559 0  -6.059016994374176 5 0  -5.351768480489935 5.324115759755033 0  -5.586929681560752 5.137690106146416 0  -5.792893218814073 5 0  -5.920540688701559 4.920540688701559 0  -6 4.792893218814073 0  -6.11180339887473 4.77639320225054 0  -6.258819045102165 4.741180954897835 0  -6.22360679774946 4.88819660112527 0  -6.207106781185927 5 0  -5.373633389620628 5.156591652594843 0  -5.598612181134545 5 0  -5.77639320225054 4.88819660112527 0  -5.88819660112527 4.77639320225054 0  -6 4.598612181134545 0  -6.137690106146416 4.586929681560752 0  -6.294421776784013 4.558367334823981 0  -6.475602806995287 4.524397193004713 0  -6.441632665176019 4.705578223215987 0  -6.413070318439248 4.862309893853584 0  -6.401387818865455 5 0  -5.38196601125049 5 0  -5.586929681560752 4.862309893853584 0  -5.741180954897835 4.741180954897835 0  -5.862309893853584 4.586929681560752 0  -6 4.38196601125049 0  -6.156591652594843 4.373633389620628 0  -6.324115759755033 4.351768480489935 0  -6.507774721069991 4.322967038573346 0  -6.707106781186353 4.292893218813647 0  -6.677032961426654 4.492225278930009 0  -6.648231519510065 4.675884240244967 0  -6.626366610379372 4.843408347405157 0  -6.61803398874951 5 0  -5.373633389620628 4.843408347405157 0  -5.558367334823981 4.705578223215987 0  -5.705578223215987 4.558367334823981 0  -5.843408347405157 4.373633389620628 0  -5.351768480489935 4.675884240244967 0  -5.524397193004713 4.524397193004713 0  -5.675884240244967 4.351768480489935 0  -5.322967038573346 4.492225278930009 0  -5.492225278930009 4.322967038573346 0  -5.292893218813647 4.292893218813647 0  -5 2.38196601125049 0  -4.843408347405157 2.373633389620629 0  -5 2.598612181134545 0  -4.675884240244967 2.351768480489935 0  -4.862309893853584 2.586929681560752 0  -5 2.792893218814073 0  -4.492225278930009 2.322967038573346 0  -4.705578223215987 2.558367334823981 0  -4.88819660112527 2.77639320225054 0  -5 2.940983005625824 0  -4.292893218813647 2.292893218813648 0  -4.524397193004713 2.524397193004713 0  -4.741180954897835 2.741180954897836 0  -4.920540688701559 2.920540688701558 0  -5 3 0  -4.322967038573346 2.492225278930009 0  -4.558367334823981 2.705578223215987 0  -4.77639320225054 2.88819660112527 0  -4.940983005625824 3 0  -5 3.059016994374176 0  -5.079459311298441 3.079459311298442 0  -5.059016994374176 3 0  -4.351768480489935 2.675884240244967 0  -4.586929681560752 2.862309893853584 0  -4.792893218814073 3 0  -4.920540688701559 3.079459311298442 0  -5 3.207106781185927 0  -5.11180339887473 3.22360679774946 0  -5.258819045102165 3.258819045102164 0  -5.22360679774946 3.11180339887473 0  -5.207106781185927 3 0  -4.373633389620628 2.843408347405157 0  -4.598612181134545 3 0  -4.77639320225054 3.11180339887473 0  -4.88819660112527 3.22360679774946 0  -5 3.401387818865455 0  -5.137690106146416 3.413070318439248 0  -5.294421776784013 3.441632665176019 0  -5.475602806995287 3.475602806995287 0  -5.441632665176019 3.294421776784013 0  -5.413070318439248 3.137690106146416 0  -5.401387818865455 3 0  -4.38196601125049 3 0  -4.586929681560752 3.137690106146416 0  -4.741180954897835 3.258819045102164 0  -4.862309893853584 3.413070318439248 0  -5 3.61803398874951 0  -5.156591652594843 3.626366610379372 0  -5.324115759755033 3.648231519510065 0  -5.507774721069991 3.677032961426654 0  -5.707106781186353 3.707106781186353 0  -5.677032961426654 3.507774721069991 0  -5.648231519510065 3.324115759755033 0  -5.626366610379372 3.156591652594843 0  -5.61803398874951 3 0  -4.373633389620628 3.156591652594843 0  -4.558367334823981 3.294421776784013 0  -4.705578223215987 3.441632665176019 0  -4.843408347405157 3.626366610379372 0  -4.351768480489935 3.324115759755033 0  -4.524397193004713 3.475602806995287 0  -4.675884240244967 3.648231519510065 0  -4.322967038573346 3.507774721069991 0  -4.492225278930009 3.677032961426654 0  -4.292893218813647 3.707106781186353 0  5 1 0  5 1.1875 0  4.827254248593689 1 0  5 1.375 0  4.774625127436217 1.190725542188815 0  4.654508497187377 1 0  4.795685564948176 1.503494320171386 0  5 1.5625 0  4.633229176833026 1.366257369669115 0  4.535571696635581 1.176836689821396 0  4.481762745781066 1 0  4.856267205581102 1.661206773798245 0  5 1.75 0  4.689409473820198 1.687699236167515 0  4.60784560155642 1.536324222026939 0  4.458027710481697 1.451934295621926 0  4.353363905980899 1.28736948322329 0  4.309016994374755 1 0  4.813772758633532 1.87305606464568 0  5 1.9375 0  4.658258320854826 1.842998343199929 0  4.530548399033449 1.675635120559427 0  4.377973042682878 1.629775066020617 0  4.241466707589882 1.467498817908458 0  4.0683636
[...]
<PointData  Scalars="u"> 
<DataArray  type="Float64"  Name="u"  format="ascii">5.3447957261143472e+01  5.7437247864001613e+01  5.3747225185883309e+01  6.0811134635626480e+01  5.8380723993002931e+01  5.3959879324923072e+01  6.3513552292917602e+01  6.2679071543402799e+01  6.0500211845583046e+01  5.6921998789650168e+01  6.5679679766547551e+01  6.5384564837436514e+01  6.5134147432058541e+01  6.6781658570902849e+01  5.6722236943018302e+01  6.7444622986794798e+01  6.7641878402127730e+01  6.9249467570620922e+01  7.1583671647989945e+01  7.1406015490204666e+01  6.6305361762921322e+01  5.6746290425830601e+01  6.9489385510458888e+01  7.0817792728006197e+01  7.2909585245847524e+01  7.4423254887407381e+01  7.2275690245345061e+01  6.8232940415558573e+01  6.3580467686244702e+01  5.9506976069696840e+01  5.3354129829928404e+01  7.1724415781045394e+01  7.3359826047923477e+01  7.5227224020859367e+01  7.4881044161263858e+01  7.2105149500208967e+01  6.9112687851445443e+01  6.5389388099712463e+01  6.2517134351555107e+01  6.0507287835606022e+01  5.6782850659222639e+01  5.2601794851883788e+01  7.3879621755797785e+01  7.5270557957547894e+01  7.5767706560042484e+01  7.4400003735580697e+01  7.1903176095992734e+01  6.9244421026717561e+01  6.6442676535628735e+01  6.3784425092047911e+01  6.1394560222337617e+01  6.0013494188692825e+01  5.8003057172376380e+01  5.5222356892679336e+01  5.1735189223070883e+01  7.5458415927835730e+01  7.6191081677331141e+01  7.5720229870709829e+01  7.3945887770394108e+01  7.6487694906767700e+01  7.6461032259013308e+01  7.5439762743918180e+01  7.7037251895115091e+01  7.6491146038091159e+01  7.7265042823726944e+01  5.9289321090445704e+01  6.3156921508576609e+01  5.9659703486267340e+01  6.6392762822007001e+01  6.4168846935394242e+01  5.9953712460694447e+01  6.8943139043041327e+01  6.8307497747381348e+01  6.6368081895864805e+01  6.2990415149760302e+01  7.0949169262121941e+01  7.0835740879369411e+01  7.0831436171556192e+01  7.2746380988584889e+01  6.2825065313572772e+01  7.2694204389110126e+01  7.3119147818707546e+01  7.5019236405749396e+01  7.7609373220556321e+01  7.7542348854750912e+01  7.2561548980590800e+01  6.2920674549032128e+01  7.4726473851254696e+01  7.6337643564019771e+01  7.8733634591661001e+01  8.0465273115458288e+01  7.8510478992832617e+01  7.4641708338896791e+01  7.0219139200681326e+01  6.5961364123335898e+01  5.9695082664434501e+01  7.6951671705613848e+01  7.8898793924027174e+01  8.1067633653738810e+01  8.0952565623224729e+01  7.8496492913584930e+01  7.5750342287507095e+01  7.2284976985775089e+01  6.9672089338155430e+01  6.7378060668815422e+01  6.3452304940179189e+01  5.9123411665514148e+01  7.9089081187577619e+01  8.0807088337525400e+01  8.1604371277801647e+01  8.0547893477146246e+01  7.8515130951215340e+01  7.6169056660357555e+01  7.3677129693238456e+01  7.1302148107473272e+01  6.9124249527596788e+01  6.7373286545329094e+01  6.5070596937825513e+01  6.2063802281535928e+01  5.8401157090644993e+01  8.0615318543419050e+01  8.1687114609932920e+01  8.1559763818481940e+01  8.0210648446644740e+01  8.1560252385434708e+01  8.1904021788179335e+01  8.1301924829546294e+01  8.1989326450592685e+01  8.1863643404942991e+01  8.2072528770211235e+01  5.3605633351561259e+01  5.7772973145075255e+01  5.3753093251433896e+01  6.1344609561459450e+01  5.8558611404021242e+01  5.3793988435011094e+01  6.4259528231358416e+01  6.3073289924183086e+01  6.0500409305949404e+01  5.6598054358357864e+01  6.6642807310194229e+01  6.6015697991559520e+01  6.5360862790537396e+01  6.6593994226511796e+01  5.6326217335724039e+01  6.8332967435134748e+01  6.8149188941924976e+01  6.9311050541654382e+01  7.1279339306007714e+01  7.0936796350989866e+01  6.5683805014474387e+01  5.6264151066490619e+01  7.0289550461821605e+01  7.1184716917844597e+01  7.2839988831772374e+01  7.4051416895206842e+01  7.1594270614210785e+01  6.7345111690853400e+01  6.2411799802313318e+01  5.8631413231199161e+01  5.2666236003026604e+01  7.2430274225102110e+01  7.3613115296824205e+01  7.5060313290644672e+01  7.4368648845733347e+01  7.1082511947788490e+01  6.7825882129388901e+01  6.3810678282537992e+01  6.0647404619028315e+01  5.9048709512195970e+01  5.5629824310706837e+01  5.1674593816476445e+01  7.4493606595634134e+01  7.5420055121492410e+01  7.5481490314170202e+01  7.3622726387845148e+01  7.0398394611637229e+01  6.7435450213577511e+01  6.4330063550116478e+01  6.1395669938662628e+01  5.8788979419174908e+01  5.7893916234918571e+01  5.6282802641947860e+01  5.3820417202265851e+01  5.0585145623685378e+01  7.6000910737144750e+01  7.6240985435408319e+01  7.5235790964583458e+01  7.2767730992384770e+01  7.6960539161766704e+01  7.6361789393939276e+01  7.4642109780185976e+01  7.7430103399722114e+01  7.6177222468840142e+01  7.7530830456501747e+01  6.0481469177298969e+01  6.4367124356637376e+01  6.0854256414315905e+01  6.7611010767643236e+01  6.5373846280040794e+01  6.1152080467847838e+01  7.0160118948991197e+01  6.9512278251980419e+01  6.7567973198572531e+01  6.4191806191252383e+01  7.2156296705026278e+01  7.2031445172094863e+01  7.2025611862422309e+01  7.3945577394904760e+01  6.4027746331833498e+01  7.3868429737924657e+01  7.4292783049265140e+01  7.6205175949654276e+01  7.8808597638229003e+01  7.8746384631541176e+01  7.3769919155710269e+01  6.4124258410766259e+01  7.5867004390872324e+01  7.7493020304593102e+01  7.9912002439305439e+01  8.1661531749081476e+01  7.9715248274555250e+01  7.5858422041626227e+01  7.1434711440542344e+01  6.7163697062515183e+01  6.0885922783587652e+01  7.8056265893132974e+01  8.0029798612550607e+01  8.2230258810714062e+01  8.2132608051000048e+01  7.9695069125411820e+01  7.6984044773814517e+01  7.3527284252802133e+01  7.0871288222341008e+01  6.8545783241224015e+01  6.4602011620179425e+01  6.0258317182666140e+01  8.0151541501903537e+01  8.1903286358865216e+01  8.2730133491710987e+01  8.1693382562750415e+01  7.9692102192147857e+01  7.7414784627458658e+01  7.4959653716145112e+01  7.2555724976891042e+01  7.0221026287589368e+01  6.8434426308564426e+01  6.6110474714622640e+01  6.3088325024107341e+01  5.9409122930763850e+01  8.1616300657449884e+01  8.2719997730919317e+01  8.2615113466405717e+01  8.1283436777231117e+01  8.2472250772499549e+01  8.2835586320306817e+01  8.2239663902429314e+01  8.2770431541205610e+01  8.2636451819858323e+01  8.2667933873791981e+01  4.8489897922211377e+01  4.9536591003985691e+01  4.8847628087116902e+01  5.0493050152443615e+01  5.0205641382660929e+01  4.9233215284297970e+01  5.1931732051059917e+01  5.1380658054292574e+01  5.1828725849057143e+01  5.0884479641679235e+01  4.9608915491098074e+01  5.2428764525382398e+01  5.2135446672625875e+01  5.3372317319251025e+01  5.2986973403196480e+01  5.3236285271766050e+01  5.2498451869517751e+01  5.0053880299302129e+01  5.3491376563415294e+01  5.2778999863086256e+01  5.4229436706215516e+01  5.4186428049709605e+01  5.4855146075128950e+01  5.4623706701054495e+01  5.4590995072036677e+01  5.1875378535812388e+01  5.0453791050791239e+01  5.4964666349195923e+01  5.5317332687821271e+01  5.6645193150081134e+01  5.6145201221756629e+01  5.7547667501604870e+01  5.4528530810057170e+01  5.0875012084611029e+01  5.2779382697759964e+01  5.4306465147850680e+01  5.3279175981901801e+01  5.6272519291580004e+01  5.4685693547249116e+01  5.3637551248317294e+01  5.6906982892198542e+01  5.7161330465517167e+01  5.8389788023065393e+01  5.9884411472834088e+01  6.1338790590057457e+01  6.0008540051620258e+01  5.7921086682429056e+01  5.5101072294776692e+01  5.1281345285711360e+01  5.7676165645744476e+01  5.6134716528348186e+01  5.7298625075566129e+01  5.8184294644631464e+01  5.8760959916572027e+01  6.0147533086900246e+01  6.1910715068849626e+01  6.3247299395055457e+01  6.3773514559646671e+01  5.4980694920377786e+01  5.3863326924185351e+01  5.1830446307703212e+01  5.7880205289539369e+01  5.9372911128542547e+01  6.0642161006880421e+01  6.1773908035675795e+01  6.3059814946922280e+01  6.4547365155277006e+01  6.7091054670314378e+01  6.6499615612761033e+01  5.6935726861435057e+01  5.5353689125416672e+01  5.3952360235332769e+01  5.9435109862928940e+01  6.0773977356753292e+01  6.2053999609019776e+01  6.3417424422910187e+01  6.4710746893219564e+01  6.6509490652756071e+01  6.8253884282589112e+01  7.0290078323044412e+01  7.0746927046060847e+01  6.8477846038985390e+01  6.9326161506490308e+01  5.8103706839161738e+01  5.6832113377490138e+01  5.5862444268145644e+01  5.4899302020091639e+01  5.3921538536921261e+01  5.8319643181623860e+01  5.9516589499495794e+01  6.0776378541350077e+01  6.1918372149020414e+01  6.4181603143880096e+01  6.6036725497660285e+01  6.8172956125232190e+01  7.0187110523069904e+01  7.2411230547145294e+01  7.3097809607041654e+01  7.2428208226307746e+01  7.1848694502918761e+01  5.6602267987263033e+01  5.7627962611731498e+01  5.5275311153905321e+01  5.4409464508213034e+01  5.3770712217932427e+01  5.8762338964251448e+01  5.7611900912837136e+01  5.6234422188793289e+01  5.5022279804210413e+01  5.4155458443849966e+01  5.3521208472677941e+01  6.0294864002029072e+01  6.1854518855061514e+01  6.3962464859890588e+01  6.5975627636630307e+01  6.5944556798308525e+01  6.7784015588155782e+01  7.0695027114263510e+01  7.2765675340222870e+01  7.3970308468877931e+01  7.4928514294206479e+01  7.4527550770996370e+01  7.3927248482442607e+01  6.3066650523300588e+01  5.8797983941246621e+01  6.0214261003196839e+01  6.2123921902230109e+01  6.4276703400126166e+01  6.6188378409372305e+01  6.8389578612068291e+01  7.0881654594433385e+01  7.1944660422566955e+01  7.3720117529056068e+01  7.4267642183513686e+01  7.5391154003208342e+01  7.6418341346522197e+01  7.6515032636431798e+01  7.6526586591591695e+01  7.5409554872227019e+01  5.7388743438877952e+01  5.6249361404903702e+01  5.5514570109976113e+01  5.4596312429839308e+01  5.3529954901677399e+01  5.3185025368175815e+01  5.9409442092881193e+01  5.8029040128666111e+01  5.6530711365912033e+01  5.5241333750832119e+01  5.5247867429891308e+01  5.3964936240215920e+01  5.3342189931017238e+01  5.2759421366031027e+01  6.0666566941685993e+01  6.2605125463208630e+01  6.4946972354678664e+01  6.5803794557049613e+01  6.7670776050780901e+01  7.0281782703702532e+01  7.3375772751075303e+01  7.5578240549749736e+01  7.6076044453803021e+01  7.6794545434782336e+01  7.7375972204151438e+01  7.7327548382007365e+01  7.7261210038398602e+01  7.2655209352467153e+01  5.8543995846875006e+01  5.9866306825683523e+01  6.2462967843746924e+01  6.4268699583040217e+01  6.6560171482982739e+01  6.8210148238277469e+01  6.9108606830849382e+01  7.2533061154351785e+01  7.4541281422911197e+01  7.6359123289468855e+01  7.6884194657930706e+01  7.7680455029231481e+01  7.7940923117246456e+01  7.8094036735579124e+01  7.8003412595972520e+01  7.8207824204001184e+01  7.7734496638593697e+01  7.7006179049856442e+01  5.6381022384184014e+01  5.4795891451482099e+01  5.4345146327376256e+01  5.3452399159828417e+01  5.2579875817809409e+01  5.2152401356658636e+01  5.2279587943652281e+01  5.4412467633960247e+01  5.7156786220220283e+01  5.5254428603332002e+01  5.9302313205405852e+01  6.1253214386740616e+01  6.3154001500830738e+01  6.6066646057730566e+01  6.7382341115138985e+01  6.5757972707095590e+01  7.2256527621850154e+01  7.4418186968911741e+01  7.7267407809787599e+01  7.7850136335765768e+01  7.8638556245933728e+01  7.8935147839935667e+01  7.9009288304492173e+01  7.8753051424404163e+01  7.8868650457461229e+01  7.8552823369311085e+01  7.8053494691735679e+01  7.7638660918573137e+01  7.6993441782070988e+01  7.6468989330080461e+01  7.1309492031760058e+01  5.1733668013605701e+01  5.6147261036320643e+01  5.7689461773573740e+01  5.8893435663157398e+01  6.2190581431605366e+01  6.3918496638086971e+01  6.5043747062255036e+01  7.3736401072884519e+01  7.6240139599335947e+01  7.8527227083810658e+01  8.0080024950186726e+01  8.0028988169231312e+01  7.9993431593905839e+01  7.9783757680574439e+01  7.9668445429997462e+01  7.9240714537262818e+01  7.8820636938401606e+01  7.8250045194165423e+01  7.7248137008161621e+01  7.6160832692693646e+01  7.6993452356074926e+01  7.9001285090122209e+01  7.5492912522765195e+01  7.5443736905808095e+01  5.6569165377015658e+01  5.6987598878717186e+01  5.9449350267747583e+01  6.1559649189892220e+01  6.2006555982120361e+01  8.0181678896660486e+01  8.1285747701442361e+01  8.1080024735066971e+01  8.0994804348992048e+01  8.0738755522058696e+01  8.0484517249987817e+01  8.0607001886909529e+01  8.0177221442218027e+01  8.0220484004834987e+01  7.9641458861278537e+01  7.8838900896725960e+01  7.8218138481324246e+01  7.7258635559879977e+01  7.5888541274624998e+01  7.4450415850835441e+01  7.3837827441415214e+01  7.3880272110311182e+01  7.9727584997295750e+01  5.7794262824433559e+01  5.8589012977044639e+01  8.1852048432739522e+01  8.1717245058151477e+01  8.1403490409013727e+01  8.1090208230511863e+01  8.1244961427908152e+01  8.1268541125594211e+01  8.0723985037687783e+01  8.0652953969909134e+01  8.0126832885384871e+01  7.9727044817767947e+01  7.9224789021382378e+01  7.8679592874583861e+01  7.8023110092113455e+01  7.6523794616426628e+01  7.5794688715874486e+01  7.3872584488225854e+01  7.1912489630477310e+01  7.1522820948181106e+01  7.1810867765919966e+01  7.3006851787201995e+01  8.2078098432371988e+01  8.2094337820119236e+01  8.1833494355391849e+01  8.1663549735206914e+01  8.1575805587087956e+01  8.1066715055253283e+01  8.1083301035074939e+01  8.0218425239095822e+01  8.0661552078879026e+01  8.0164105172068247e+01  7.9498983582033574e+01  7.8943316665509073e+01  7.8385587837391128e+01  7.7740888256397653e+01  7.7257264702413622e+01  7.6286834984224853e+01  7.5211272957890188e+01  7.5043282820342412e+01  7.3958834860281456e+01  7.2679617148534675e+01  7.2036226191544174e+01  7.0204070003443078e+01  6.9387994640322333e+01  6.7469096694887483e+01  6.9528139484525255e+01  8.1967588481067423e+01  8.2087841681219984e+01  8.2126300622515302e+01  8.1989560193956336e+01  8.1888160369369075e+01  8.1629594735762993e+01  8.1024701073169425e+01  8.0615429435149053e+01  8.0422586148592444e+01  7.9933437776679241e+01  7.9240392961389006e+01  7.8636157126202960e+01  7.7957461993856171e+01  7.6679074083579636e+01  7.5623524526537096e+01  7.4800019302373173e+01  7.3633929100545075e+01  7.1973632332619289e+01  7.1177763838838445e+01  6.9573401298469577e+01  6.7837799289899067e+01  6.5684705095040130e+01  8.1561118710373236e+01  8.1533547939563519e+01  8.1650504894261516e+01  8.1904428749067264e+01  8.2091512108072351e+01  8.2076619022227518e+01  8.1941051348300434e+01  8.1588298935328567e+01  8.1316075912124745e+01  8.0852647161851621e+01  8.0613461529743972e+01  8.0143172599046821e+01  7.9656067370806028e+01  7.9052151247478335e+01  7.8220293340009619e+01  7.7479599130231989e+01  7.6248448314007049e+01  7.5316835879596439e+01  7.4227009857536501e+01  7.2773901558187646e+01  7.1559966402999123e+01  7.0533468112793713e+01  6.9117255781259942e+01  6.7788979110760266e+01  6.5824766429760174e+01  6.3344893147738119e+01  6.3528631132990988e+01  8.0571751128164053e+01  8.0598922878914109e+01  8.0973410878082532e+01  8.1239260433211470e+01  8.1604038348854502e+01  8.1822813832719859e+01  8.2025265002814791e+01  8.2026498963961913e+01  8.1874471242663375e+01  8.1777718333485382e+01  8.1524396904196536e+01  8.1122233478382114e+01  8.0488974981703407e+01  7.9913222692035646e+01  7.9380442846934599e+01  7.8870836531324514e+01  7.8000505701634538e+01  7.7166098404805481e+01  7.6962613886343306e+01  7.5515521920672569e+01  7.4854478865582280e+01  7.3688399156072052e+01  7.3163856770129058e+01  7.2056311957970976e+01  7.0973616315317727e+01  7.0283938753484435e+01  6.8809652423767204e+01  6.7522718967743330e+01  6.5853251691828774e+01  6.3699116004786681e+01  6.0868069843553620e+01  6.0434712629411123e+01  6.0737805565465010e+01  7.9031163399899810e+01  7.9057103679745268e+01  7.9839150213362629e+01  8.0322288652999276e+01  8.0708355663418146e+01  8.1081648848078274e+01  8.1427772583763016e+01  8.1685581286573708e+01  8.1756040995601467e+01  8.1673969608583960e+01  8.1343955703582964e+01  8.1077070124653687e+01  8.0755434909585176e+01  8.0364450694055719e+01  7.9840655272956582e+01  7.9299704447352156e+01  7.8436619588850959e+01  7.7749753738101688e+01  7.6803822080374289e+01  7.5877414241030081e+01  7.4872762997545678e+01  7.4344858390142505e+01  7.3386625529160327e+01  7.2620260541341651e+01  7.1653806618411537e+01  7.0574562051843230e+01  6.9810899449713986e+01  8.1949884174624117e+01  5.7371244349458323e+01  5.7206982285863418e+01  5.7304285124986521e+01  7.7314511710795372e+01  7.7263083525520713e+01  7.6971481706411723e+01  7.8726737665158240e+01  7.8564187748286997e+01  7.9351150129640345e+01  8.0119114640208679e+01  8.0713368935777893e+01  8.1187551734234191e+01  8.1462421438813607e+01  8.1457703932032985e+01  8.1594352225685270e+01  8.1616966072702823e+01  8.1505419468643808e+01  8.1152907546208326e+01  8.0860364208831470e+01  8.0469849617389315e+01  8.0162712447738002e+01  7.9732083732479609e+01  7.9131394718933677e+01  7.8655912285633818e+01  7.7646030612011558e+01  7.6819189976710746e+01  7.6116876436249370e+01  7.5344808925989454e+01  7.4172198161449543e+01  7.3815941230256627e+01  7.2907826780122733e+01  7.2103117508669726e+01  7.1170535149298573e+01  7.4209158280223022e+01  5.3351133314974767e+01  5.3483756569024045e+01  5.3547049509767312e+01  7.6363115547245158e+01  7.5200578846999989e+01  7.4795931704305445e+01  7.7375356762383191e+01  7.8360562207450997e+01  7.9286679326500106e+01  7.9960375175542524e+01  8.0396301275191902e+01  8.0797118065459841e+01  8.0896583141994043e+01  8.1221103898776533e+01  8.1317158028154168e+01  8.1448440463622859e+01  8.1468311566029811e+01  8.1463867019448983e+01  8.1312600137601805e+01  8.1032937898609234e+01  8.0727561493034699e+01  8.0392954574768908e+01  7.9968329240557338e+01  7.9528004990379074e+01  7.8679886146539047e+01  7.8203261196463643e+01  7.7294807785947000e+01  7.6334615908923865e+01  7.5509034997568307e+01  7.4676539163157315e+01  7.3397897437913997e+01  7.3118032876443806e+01  7.2810912000942182e+01  7.1623039299263567e+01  7.4523807360061411e+01  7.3463720060894559e+01  7.2682526479280284e+01  7.5335019202738479e+01  7.6716418128644364e+01  7.7872616701305461e+01  7.8436216375573593e+01  7.8863031012503541e+01  7.9688779090786838e+01  8.0078072559948666e+01  8.0608002294783233e+01  8.1071655369338941e+01  8.1240973811681826e+01  8.1341512940954274e+01  8.1332089294493301e+01  8.1232041716308700e+01  8.0926652473973149e+01  8.0623791214417707e+01  8.0089327608238023e+01  7.9745820099739618e+01  7.9207215026980009e+01  7.8682315791371224e+01  7.8186293389508435e+01  7.7564800176573613e+01  7.6800026711391254e+01  7.5648793475881305e+01  7.4696256009571385e+01  7.4072232108119849e+01  7.3120924749162256e+01  7.2283974176572357e+01  7.2161388836347854e+01  7.1945774747629613e+01  7.2136033172238356e+01  7.0921483672000349e+01  7.3643805808796031e+01  7.3414339464452297e+01  7.4796722598332266e+01  7.6158072687652577e+01  7.6852085852769335e+01  7.7705736865187504e+01  7.8405126180163663e+01  7.9230162505316898e+01  7.9558939270940726e+01  7.9884507708239511e+01  8.0362706773918603e+01  8.0778702686180097e+01  8.0937862912227104e+01  8.1116851197722923e+01  8.1251864403301227e+01  8.1206363512986044e+01  8.1180650466114457e+01  8.0941926664989325e+01  8.0637191748626392e+01  8.0340099715925149e+01  7.9942617821414657e+01  7.9633019555731195e+01  7.9594184265632350e+01  7.9039408583126743e+01  7.8521772518734522e+01  7.7981471290977325e+01  7.7421780298800925e+01  7.6740281164804941e+01  7.5935089782786733e+01  7.4818796580336510e+01  7.3816367120922294e+01  7.3230604253212462e+01  7.2314810828099112e+01  7.0330991368236425e+01  7.0216605349081789e+01  7.1545905212823996e+01  7.2310755124739018e+01  7.3629794308150366e+01  7.4222657533218339e+01  7.5385818507646803e+01  7.6004112111351489e+01  7.6932022786753393e+01  7.8261602312459843e+01  7.8935854728106463e+01  7.9397415889945080e+01  8.0037477287398275e+01  8.0457151379618296e+01  8.0795623892097751e+01  8