<?xml version="1.0"?>
<VTKFile type="UnstructuredGrid"  version="0.1"  >
<UnstructuredGrid>
<Piece  NumberOfPoints="1863" NumberOfCells="3341">
<Points>
<DataArray  type="Float64"  NumberOfComponents="3"  format="ascii">3 0.3578783626580142 0  2.837980074580334 0.3519202983213376 0  3 0.562360081589721 0  2.668095006086507 0.3361900121730148 0  2.851377214834756 0.5541316445042701 0  3 0.7513957619668947 0  2.486405553557287 0.3152074047430488 0  2.689313205761768 0.5339698086426523 0  2.869719245232929 0.7394384904658591 0  3 0.9113080676370099 0  2.292893218813248 0.2928932188132478 0  2.509760203133004 0.509760203133004 0  2.714421710057237 0.7144217100572372 0  2.89402123560811 0.8940212356081096 0  3 1 0  2.315207404743049 0.4864055535572865 0  2.533969808642652 0.6893132057617682 0  2.739438490465859 0.8697192452329295 0  2.91130806763701 1 0  3 1.08869193236299 0  3.10597876439189 1.10597876439189 0  3.08869193236299 1 0  2.336190012173015 0.6680950060865074 0  2.55413164450427 0.8513772148347567 0  2.751395761966895 1 0  2.89402123560811 1.10597876439189 0  3 1.248604238033105 0  3.130280754767071 1.260561509534141 0  3.285578289942763 1.285578289942763 0  3.260561509534141 1.130280754767071 0  3.248604238033105 1 0  2.351920298321338 0.8379800745803344 0  2.562360081589721 1 0  2.739438490465859 1.130280754767071 0  2.869719245232929 1.260561509534141 0  3 1.437639918410279 0  3.148622785165244 1.44586835549573 0  3.310686794238232 1.466030191357348 0  3.490239796866996 1.490239796866996 0  3.466030191357348 1.310686794238232 0  3.44586835549573 1.148622785165243 0  3.437639918410279 1 0  2.357878362658014 1 0  2.55413164450427 1.148622785165243 0  2.714421710057237 1.285578289942763 0  2.851377214834756 1.44586835549573 0  3 1.642121637341986 0  3.162019925419666 1.648079701678662 0  3.331904993913493 1.663809987826985 0  3.513594446442713 1.684792595256951 0  3.707106781186752 1.707106781186752 0  3.684792595256951 1.513594446442713 0  3.663809987826985 1.331904993913493 0  3.648079701678662 1.162019925419666 0  3.642121637341986 1 0  2.351920298321338 1.162019925419666 0  2.533969808642652 1.310686794238232 0  2.689313205761768 1.466030191357348 0  2.837980074580334 1.648079701678662 0  2.336190012173015 1.331904993913493 0  2.509760203133004 1.490239796866996 0  2.668095006086507 1.663809987826985 0  2.315207404743049 1.513594446442713 0  2.486405553557287 1.684792595256951 0  2.292893218813248 1.707106781186752 0  2 4.642121637341986 0  1.837980074580335 4.648079701678663 0  2 4.437639918410279 0  1.668095006086507 4.663809987826985 0  1.851377214834757 4.44586835549573 0  2 4.248604238033105 0  1.486405553557287 4.684792595256951 0  1.689313205761768 4.466030191357348 0  1.869719245232929 4.260561509534141 0  2 4.08869193236299 0  1.292893218813248 4.707106781186752 0  1.509760203133004 4.490239796866996 0  1.714421710057237 4.285578289942762 0  1.89402123560811 4.105978764391891 0  2 4 0  1.315207404743049 4.513594446442713 0  1.533969808642652 4.310686794238232 0  1.739438490465859 4.13028075476707 0  1.91130806763701 4 0  2 3.91130806763701 0  2.10597876439189 3.89402123560811 0  2.08869193236299 4 0  1.336190012173015 4.331904993913493 0  1.55413164450427 4.148622785165244 0  1.751395761966895 4 0  1.89402123560811 3.89402123560811 0  2 3.751395761966895 0  2.130280754767071 3.739438490465859 0  2.285578289942763 3.714421710057237 0  2.260561509534141 3.869719245232929 0  2.248604238033105 4 0  1.351920298321338 4.162019925419665 0  1.562360081589721 4 0  1.739438490465859 3.869719245232929 0  1.869719245232929 3.739438490465859 0  2 3.562360081589721 0  2.148622785165244 3.55413164450427 0  2.310686794238232 3.533969808642652 0  2.490239796866996 3.509760203133004 0  2.466030191357348 3.689313205761768 0  2.44586835549573 3.851377214834756 0  2.437639918410279 4 0  1.357878362658014 4 0  1.55413164450427 3.851377214834756 0  1.714421710057237 3.714421710057237 0  1.851377214834757 3.55413164450427 0  2 3.357878362658014 0  2.162019925419666 3.351920298321338 0  2.331904993913493 3.336190012173015 0  2.513594446442713 3.315207404743049 0  2.707106781186752 3.292893218813248 0  2.684792595256951 3.486405553557287 0  2.663809987826985 3.668095006086507 0  2.648079701678662 3.837980074580334 0  2.642121637341986 4 0  1.351920298321338 3.837980074580334 0  1.533969808642652 3.689313205761768 0  1.689313205761768 3.533969808642652 0  1.837980074580334 3.351920298321338 0  1.336190012173015 3.668095006086507 0  1.509760203133004 3.509760203133004 0  1.668095006086507 3.336190012173015 0  1.315207404743049 3.486405553557287 0  1.486405553557287 3.315207404743049 0  1.292893218813248 3.292893218813248 0  -6 5.642121637341986 0  -5.837980074580335 5.648079701678663 0  -6 5.437639918410279 0  -5.668095006086507 5.663809987826985 0  -5.851377214834756 5.44586835549573 0  -6 5.248604238033105 0  -5.486405553557287 5.684792595256951 0  -5.689313205761768 5.466030191357348 0  -5.86971924523293 5.260561509534141 0  -6 5.08869193236299 0  -5.292893218813248 5.707106781186752 0  -5.509760203133004 5.490239796866996 0  -5.714421710057238 5.285578289942762 0  -5.894021235608109 5.105978764391891 0  -6 5 0  -5.315207404743049 5.513594446442713 0  -5.533969808642652 5.310686794238232 0  -5.739438490465859 5.13028075476707 0  -5.91130806763701 5 0  -6 4.91130806763701 0  -6.105978764391891 4.894021235608109 0  -6.08869193236299 5 0  -5.336190012173015 5.331904993913493 0  -5.55413164450427 5.148622785165244 0  -5.751395761966895 5 0  -5.894021235608109 4.894021235608109 0  -6 4.751395761966895 0  -6.13028075476707 4.739438490465859 0  -6.285578289942762 4.714421710057238 0  -6.260561509534141 4.86971924523293 0  -6.248604238033105 5 0  -5.351920298321337 5.162019925419665 0  -5.562360081589721 5 0  -5.739438490465859 4.86971924523293 0  -5.86971924523293 4.739438490465859 0  -6 4.562360081589721 0  -6.148622785165244 4.55413164450427 0  -6.310686794238232 4.533969808642652 0  -6.490239796866996 4.509760203133004 0  -6.466030191357348 4.689313205761768 0  -6.44586835549573 4.851377214834756 0  -6.437639918410279 5 0  -5.357878362658014 5 0  -5.55413164450427 4.851377214834756 0  -5.714421710057238 4.714421710057238 0  -5.851377214834756 4.55413164450427 0  -6 4.357878362658014 0  -6.162019925419665 4.351920298321337 0  -6.331904993913493 4.336190012173015 0  -6.513594446442713 4.315207404743049 0  -6.707106781186752 4.292893218813248 0  -6.684792595256951 4.486405553557287 0  -6.663809987826985 4.668095006086507 0  -6.648079701678663 4.837980074580335 0  -6.642121637341986 5 0  -5.351920298321337 4.837980074580335 0  -5.533969808642652 4.689313205761768 0  -5.689313205761768 4.533969808642652 0  -5.837980074580335 4.351920298321337 0  -5.336190012173015 4.668095006086507 0  -5.509760203133004 4.509760203133004 0  -5.668095006086507 4.336190012173015 0  -5.315207404743049 4.486405553557287 0  -5.486405553557287 4.315207404743049 0  -5.292893218813248 4.292893218813248 0  -5 2.357878362658014 0  -4.837980074580335 2.351920298321338 0  -5 2.562360081589721 0  -4.668095006086507 2.336190012173015 0  -4.851377214834756 2.55413164450427 0  -5 2.751395761966895 0  -4.486405553557287 2.315207404743049 0  -4.689313205761768 2.533969808642652 0  -4.86971924523293 2.739438490465859 0  -5 2.91130806763701 0  -4.292893218813248 2.292893218813248 0  -4.509760203133004 2.509760203133004 0  -4.714421710057238 2.714421710057237 0  -4.894021235608109 2.89402123560811 0  -5 3 0  -4.315207404743049 2.486405553557287 0  -4.533969808642652 2.689313205761768 0  -4.739438490465859 2.869719245232929 0  -4.91130806763701 3 0  -5 3.08869193236299 0  -5.105978764391891 3.10597876439189 0  -5.08869193236299 3 0  -4.336190012173015 2.668095006086507 0  -4.55413164450427 2.851377214834756 0  -4.751395761966895 3 0  -4.894021235608109 3.10597876439189 0  -5 3.248604238033105 0  -5.13028075476707 3.260561509534141 0  -5.285578289942762 3.285578289942763 0  -5.260561509534141 3.130280754767071 0  -5.248604238033105 3 0  -4.351920298321337 2.837980074580334 0  -4.562360081589721 3 0  -4.739438490465859 3.130280754767071 0  -4.86971924523293 3.260561509534141 0  -5 3.437639918410279 0  -5.148622785165244 3.44586835549573 0  -5.310686794238232 3.466030191357348 0  -5.490239796866996 3.490239796866996 0  -5.466030191357348 3.310686794238232 0  -5.44586835549573 3.148622785165244 0  -5.437639918410279 3 0  -4.357878362658014 3 0  -4.55413164450427 3.148622785165244 0  -4.714421710057238 3.285578289942763 0  -4.851377214834756 3.44586835549573 0  -5 3.642121637341986 0  -5.162019925419665 3.648079701678662 0  -5.331904993913493 3.663809987826985 0  -5.513594446442713 3.684792595256951 0  -5.707106781186752 3.707106781186752 0  -5.684792595256951 3.513594446442713 0  -5.663809987826985 3.331904993913493 0  -5.648079701678663 3.162019925419666 0  -5.642121637341986 3 0  -4.351920298321337 3.162019925419666 0  -4.533969808642652 3.310686794238232 0  -4.689313205761768 3.466030191357348 0  -4.837980074580335 3.648079701678662 0  -4.336190012173015 3.331904993913493 0  -4.509760203133004 3.490239796866996 0  -4.668095006086507 3.663809987826985 0  -4.315207404743049 3.513594446442713 0  -4.486405553557287 3.684792595256951 0  -4.292893218813248 3.707106781186752 0  5 1 0  5 1.1875 0  4.830265204667748 1 0  4.77562324865802 1.192679506345228 0  4.787911267192283 1.348081986778286 0  5 1.375 0  4.660530409335497 1 0  4.633059348939607 1.366021042988467 0  4.541978946488643 1.175143747516595 0  4.490795614003245 1 0  4.795362838541691 1.50379133270418 0  5 1.5625 0  4.359954284754179 1.282832206312045 0  4.321060818670993 1 0  4.457676687866868 1.451904123929002 0  4.607881543291101 1.536622050583134 0  4.689532883909252 1.688515711625484 0  4.856235702683054 1.661343413014644 0  5 1.75 0  4.238111322001059 1.40000554689391 0  4.378421381089813 1.630379830243528 0  4.52610451519947 1.664149318775792 0  4.505222861494965 1.814198120819483 0  4.659530852044655 1
[...]
<PointData  Scalars="u"> 
<DataArray  type="Float64"  Name="u"  format="ascii">5.3448451594339133e+01  5.7449073116591656e+01  5.3710914077213673e+01  6.0809897527106358e+01  5.8543980898759472e+01  5.3875836193448933e+01  6.3513858940447030e+01  6.2751748640788762e+01  6.0854775371131261e+01  5.5884487493570113e+01  6.5671390368398306e+01  6.5451027584283125e+01  6.5391171241541954e+01  6.7010151684912685e+01  5.7643717432244301e+01  6.7450862048347275e+01  6.7819160862821633e+01  6.9495454990289844e+01  7.2464555714773070e+01  7.2196364720073390e+01  6.6374822126218419e+01  5.5621527581680311e+01  6.9521060037916357e+01  7.0969221875897802e+01  7.3299549590081483e+01  7.5051555438765760e+01  7.2534795336864434e+01  6.8307549112223654e+01  6.3676147303324498e+01  5.9699982130392051e+01  5.3152743367965193e+01  7.1774071629671482e+01  7.3580237709368504e+01  7.5554998798407723e+01  7.5149378040951760e+01  7.2206717555180930e+01  6.9123298383435738e+01  6.5438422456345791e+01  6.2494333773392974e+01  6.0461775126118241e+01  5.6823977851767864e+01  5.2468314128640351e+01  7.3933519894811980e+01  7.5455663873490749e+01  7.5965653675874378e+01  7.4512477663793860e+01  7.1874741556222162e+01  6.9202031373327884e+01  6.6396231987806615e+01  6.3746354682527503e+01  6.1386005830882397e+01  5.9974397566843244e+01  5.7937326432165591e+01  5.5162637603917510e+01  5.1675164669083976e+01  7.5523291203588144e+01  7.6325650299288682e+01  7.5827731366010710e+01  7.3955382861058197e+01  7.6539700462944893e+01  7.6529768966791664e+01  7.5465868989885465e+01  7.7065865342333950e+01  7.6513638690237343e+01  7.7264428246854465e+01  5.9282416398435217e+01  6.3160364069990109e+01  5.9610370933548779e+01  6.6384573674766287e+01  6.4313384854567246e+01  5.9851417820660394e+01  6.8939941698743183e+01  6.8361887444532172e+01  6.6690573646124179e+01  6.1937269768432884e+01  7.0941773340417413e+01  7.0888289622559327e+01  7.1053112248187304e+01  7.2931747719981601e+01  6.3746430568951290e+01  7.2695032429618067e+01  7.3268557441853801e+01  7.5213258902908876e+01  7.8451307483297981e+01  7.8351755191572167e+01  7.2684547482101308e+01  6.1830968933378863e+01  7.4742337370462053e+01  7.6444570707108227e+01  7.9064791413704043e+01  8.1069616022166812e+01  7.8801078477201543e+01  7.4775481847066388e+01  7.0375372687892380e+01  6.6211798979423577e+01  5.9535822709772297e+01  7.6973105562989431e+01  7.9064464754531386e+01  8.1342451182408766e+01  8.1211366866557853e+01  7.8631760226638008e+01  7.5814709499128924e+01  7.2388361349715467e+01  6.9685532273611599e+01  6.7375154418295836e+01  6.3532591486686485e+01  5.9017894951058700e+01  7.9105013193882229e+01  8.0936309637892180e+01  8.1763180758000814e+01  8.0661575016006921e+01  7.8514313759785693e+01  7.6167706345019681e+01  7.3669033413622145e+01  7.1285533175965938e+01  6.9115921455669650e+01  6.7347728044079162e+01  6.5024044446377914e+01  6.2021884849989135e+01  5.8352580566144489e+01  8.0639103902989604e+01  8.1773597238600843e+01  8.1641381102864770e+01  8.0224934853763884e+01  8.1576749889702199e+01  8.1939352119327395e+01  8.1314453006304731e+01  8.1996302192391397e+01  8.1869642218634013e+01  8.2071280045203764e+01  5.3621218873476472e+01  5.7802408898674919e+01  5.3744494171047201e+01  6.1358133505904405e+01  5.8757971353987713e+01  5.3749054360814903e+01  6.4267610234492594e+01  6.3179375932161719e+01  6.0911195980656444e+01  5.5593987438821728e+01  6.6633497098266162e+01  6.6106157958540635e+01  6.5674054182874400e+01  6.6888337205057084e+01  5.7247824369868169e+01  6.8348631692351475e+01  6.8368080899229597e+01  6.9628682476469763e+01  7.2206036425381029e+01  7.1686753808034652e+01  6.5675571148334868e+01  5.5096878942732012e+01  7.0343533547105551e+01  7.1393699628094623e+01  7.3297360796598369e+01  7.4689075847118076e+01  7.1786133635611122e+01  6.7327665409155458e+01  6.2422998759090241e+01  5.8746393298380937e+01  5.2411081702960153e+01  7.2514258120212304e+01  7.3894400809441748e+01  7.5432820972242027e+01  7.4615658698525664e+01  7.1110710508061715e+01  6.7749971481142168e+01  6.3783722986747925e+01  6.0576993063121293e+01  5.8945536562665929e+01  5.5616547548517900e+01  5.1501019396727578e+01  7.4587970268249848e+01  7.5656873393197927e+01  7.5696578474938178e+01  7.3696129600552595e+01  7.0307171826952256e+01  6.7325171309002386e+01  6.4230542064995788e+01  6.1331315410644109e+01  5.8780807891523480e+01  5.7836927902406124e+01  5.6189460025920006e+01  5.3732469777602375e+01  5.0503515494928131e+01  7.6104380501993234e+01  7.6410975059021311e+01  7.5340814550507403e+01  7.2737467127480173e+01  7.7041994349960746e+01  7.6447811441938612e+01  7.4656483277402373e+01  7.7474695464965137e+01  7.6204971813741167e+01  7.7530853833259641e+01  6.0474330656791984e+01  6.4371584880366058e+01  6.0804402700183331e+01  6.7604022880472314e+01  6.5519500044785971e+01  6.1049070381928644e+01  7.0157664487087317e+01  6.9567868912677724e+01  6.7891033793256454e+01  6.3138197283372385e+01  7.2149036651073445e+01  7.2084425566103747e+01  7.2246968467797885e+01  7.4130021887182366e+01  6.4949287004660775e+01  7.3869373113996915e+01  7.4440814040265437e+01  7.6395432439367809e+01  7.9647580422497043e+01  7.9556290999233028e+01  7.3894487716980606e+01  6.3033651893700295e+01  7.5881447266249950e+01  7.7594535176214734e+01  8.0234762345089536e+01  8.2260380419799048e+01  8.0005579760884473e+01  7.5995693532546227e+01  7.1591052334715116e+01  6.7409692922499545e+01  6.0718156066657848e+01  7.8073123702854687e+01  8.0184876106697871e+01  8.2491522888980242e+01  8.2381973364836114e+01  7.9828085734266111e+01  7.7052554563079937e+01  7.3634200424247766e+01  7.0881914620484821e+01  6.8534708555225365e+01  6.4669115454878451e+01  6.0135942714033852e+01  8.0158835634265316e+01  8.2016725833903124e+01  8.2871707460098676e+01  8.1794886770036911e+01  7.9686617176321789e+01  7.7415959944848964e+01  7.4955767850655789e+01  7.2539531674261156e+01  7.0211517565506639e+01  6.8401339083825320e+01  6.6050865158181836e+01  6.3029477965963324e+01  5.9342014350189757e+01  8.1628061189177927e+01  8.2787755583294526e+01  8.2677663478654324e+01  8.1284703388921514e+01  8.2475894762930849e+01  8.2853273364478071e+01  8.2236086320541744e+01  8.2767991494696503e+01  8.2631300002018008e+01  8.2666408960961562e+01  4.8490251206673406e+01  4.9518924966486040e+01  4.8841153855881402e+01  5.0208714827491555e+01  5.1108598592906432e+01  5.0490953508513485e+01  4.9219700018866327e+01  5.1835133118111074e+01  5.0848856277794752e+01  4.9588096865687248e+01  5.1929974485251847e+01  5.1380849389184100e+01  5.2411181122000286e+01  5.0023844651121642e+01  5.3225166322164782e+01  5.2984342836637644e+01  5.3378477788036669e+01  5.2427496265652074e+01  5.2135196399754712e+01  5.4066216782916882e+01  5.4865591339361075e+01  5.4146175881921117e+01  5.5027357197294073e+01  5.4230183459214693e+01  5.3486851371650118e+01  5.2775921990102560e+01  5.1792524176709357e+01  5.0415077466476184e+01  5.5784765200548179e+01  5.4455099525386714e+01  5.2703875162617095e+01  5.0826706982473731e+01  5.6480379508351440e+01  5.5916312447394780e+01  5.5849337348937773e+01  5.4967388229522200e+01  5.4149346211214862e+01  5.3272401817947525e+01  5.8193736704395249e+01  5.7603114960767606e+01  5.6826341987219202e+01  5.6551380196147392e+01  5.5794561678768225e+01  5.4696448262811870e+01  5.3637010657043909e+01  5.7676283180265045e+01  5.7233802746105631e+01  5.4342808428639657e+01  5.1226941767213106e+01  5.9782493332937314e+01  5.8850641609006360e+01  5.7607666839378858e+01  5.8178354923265353e+01  5.6936853891595270e+01  5.5870270862416014e+01  5.4912330303026927e+01  5.3860579926488931e+01  5.9850265137840921e+01  6.1394388813958969e+01  5.9998956601571948e+01  5.7863371864974987e+01  5.5033088820133486e+01  5.1763891571825908e+01  6.1109877253399944e+01  5.9590857286336124e+01  6.0260954020012981e+01  5.8975629124559433e+01  5.7672750528910477e+01  5.6465910263976419e+01  5.5118029911749232e+01  5.3953790527010035e+01  6.1708281232278551e+01  6.4956913806014128e+01  6.3750144811496199e+01  6.2682489229922105e+01  6.3863580862383238e+01  6.4243263300157324e+01  6.7203132923800297e+01  6.8336590118357705e+01  6.6439742139884444e+01  6.1078132629820850e+01  6.1663814459745069e+01  6.0745472832186252e+01  5.9512426763796611e+01  5.8136594684926372e+01  5.6724021042208634e+01  5.5566167829454159e+01  5.4640548577821299e+01  5.3911332754850001e+01  6.5106394638592377e+01  6.3699604004547190e+01  6.2322446453345499e+01  6.1292001642556848e+01  5.9986574397205445e+01  5.8261224829775408e+01  5.6679403775823751e+01  5.5282300372205974e+01  5.4361929331136054e+01  5.3776040720897221e+01  6.5586902961961982e+01  6.7291668310064736e+01  6.9649758326215235e+01  7.1572874441414370e+01  6.9221640276574632e+01  6.9395711021367305e+01  5.7524808710475597e+01  6.4621520904726609e+01  6.3028429063015061e+01  6.1842276092723310e+01  6.0330500546581206e+01  5.9162963179657154e+01  5.7578200133290018e+01  5.6618395894582854e+01  5.5733131059343890e+01  5.4880395808586265e+01  5.4074431217973121e+01  5.3522373881241620e+01  6.6431688530054956e+01  6.8486840062756130e+01  7.0778557274986809e+01  7.1822897296754917e+01  7.3724915826235843e+01  7.3473547790346785e+01  7.1853792924417803e+01  6.6675405500196547e+01  6.4274075316272217e+01  6.2791434522347508e+01  6.1551391813430051e+01  5.9950483186518547e+01  5.8457123926387602e+01  5.7623938450680214e+01  5.6735553861530150e+01  5.5709462945027632e+01  5.4574552591567283e+01  5.3581981234883351e+01  5.3180697637316079e+01  7.0843220693763953e+01  7.3017245459742057e+01  7.4799177254481322e+01  7.4994143346941968e+01  7.5434896582373582e+01  7.3939935337287622e+01  6.8746732295215452e+01  6.6703082455092840e+01  6.4950934414302793e+01  6.2951511134053611e+01  6.1125305952314307e+01  5.9750141243193426e+01  5.8325024911749665e+01  5.6825330174715027e+01  5.6037498481826049e+01  5.5095534289705668e+01  5.3957645607715122e+01  5.4250332188620405e+01  5.2757971658303326e+01  5.2886888779588453e+01  6.8792480289959087e+01  7.1592192743470264e+01  7.2232744095406034e+01  7.3843859064812406e+01  7.5036214625008114e+01  7.5450806662921494e+01  7.6471395974077623e+01  7.5855096304698677e+01  7.6525890409305958e+01  6.6392290939659475e+01  6.4759969529738925e+01  6.2297777010015160e+01  6.0689876400058957e+01  5.8951810632248929e+01  5.7402497866580937e+01  5.6269080454309417e+01  5.5371577472389617e+01  5.4269126828966940e+01  5.3275155128724272e+01  5.2565570421075691e+01  5.1724600712546476e+01  5.2277005770018675e+01  6.8147933547709314e+01  6.9911677808020201e+01  7.1621907731167539e+01  7.3577194750360789e+01  7.5103917271249827e+01  7.6146117570378763e+01  7.6853030613665027e+01  7.7428762645039413e+01  7.6763516219394162e+01  7.7268041393514437e+01  6.7677312105878258e+01  6.9753376233966051e+01  7.1235841760956063e+01  7.3545126952395151e+01  7.5349153947393361e+01  7.6511236433165450e+01  7.7250056154779031e+01  7.8053499947493634e+01  7.8165977767161451e+01  7.7899169794433689e+01  7.7636183741062752e+01  7.7044779847508224e+01  6.5765342873562957e+01  6.3904936627613807e+01  6.2066926838606840e+01  5.9581160307774162e+01  5.7844416558400262e+01  5.7659051998670272e+01  5.5936035241932480e+01  5.5176397892663509e+01  5.3880674467103361e+01  5.3427446350126949e+01  5.2994257733755724e+01  6.9163376046257824e+01  6.7021527628993965e+01  6.3838388345654288e+01  6.1694890475268181e+01  5.9950282746958649e+01  5.8014408332077977e+01  5.5666251683005008e+01  5.6479300445594340e+01  5.5210769815189856e+01  5.4323032479922233e+01  7.2425803226085890e+01  7.4147496352891423e+01  7.5453156445065048e+01  7.7013727702115986e+01  7.7726444659417481e+01  7.8729925229907693e+01  7.9330109391515322e+01  7.8809762844740263e+01  7.8648417695096526e+01  7.8246330327345078e+01  7.8018504927964329e+01  7.7151990955778118e+01  7.6982053465137298e+01  7.6513327602823281e+01  6.9119685571657669e+01  6.5047407809627515e+01  6.1920935696331554e+01  5.9625311998379509e+01  5.8185706649578151e+01  5.6096299266893915e+01  7.1298409760363683e+01  7.3684297977355214e+01  7.5451419257643266e+01  7.7366514260058707e+01  7.8623277521566251e+01  7.7149599453771629e+01  7.8221226441490685e+01  7.9321307556783182e+01  7.9654978573963049e+01  7.9918602347508241e+01  7.9388610848171851e+01  7.8875989867303147e+01  7.8551689018046218e+01  7.7452077486686917e+01  7.6084397946443531e+01  7.6014823700820443e+01  7.5510907801966695e+01  6.7355419021450032e+01  6.4987128936647053e+01  6.2133444125224557e+01  6.0054197038401426e+01  5.7303698118073655e+01  5.6930614661129233e+01  7.3722758116002140e+01  7.6212768157177180e+01  7.8512913218980600e+01  7.9456248449863367e+01  8.0579865208146984e+01  7.9990203927209407e+01  8.0105271141670400e+01  8.0251014274562081e+01  8.0415363860870940e+01  8.0500367301035070e+01  8.0033348220483006e+01  7.9531578204215620e+01  7.9126220317227435e+01  7.8541707013339007e+01  7.7850408668301924e+01  7.6931466519911012e+01  7.5964550461060625e+01  7.5286897696437862e+01  7.4549413062909466e+01  7.4593865619994475e+01  7.3885092114953608e+01  6.1961821566053821e+01  5.8103028608185895e+01  5.7694628812604179e+01  8.0205587770557472e+01  8.0840326690746394e+01  8.1435382005128631e+01  8.0911653862391958e+01  8.0702123119296971e+01  8.0839105111955590e+01  8.0923842899999542e+01  8.0864112466954509e+01  8.0437768856951834e+01  7.9983439661849658e+01  7.9173857781597818e+01  7.9563250140616532e+01  7.8364943109353035e+01  7.7494404405025193e+01  7.6439677562772701e+01  7.5682085178073692e+01  7.4238631204785548e+01  7.3205662684918806e+01  7.2077785133302839e+01  7.1865994984509314e+01  5.8437730309146453e+01  8.1288860617725831e+01  8.1848094257429011e+01  8.1867463069775781e+01  8.1648203774655983e+01  8.1283063726165722e+01  8.1486484139774007e+01  8.1354942752824599e+01  8.1298661540862810e+01  8.1272277024373963e+01  8.0998278227688388e+01  8.0566011967908366e+01  8.0137610163786235e+01  7.9578324464141147e+01  7.8889883453912191e+01  7.8325305258376886e+01  7.7280916614766355e+01  7.6313024620586830e+01  7.5269495213091773e+01  7.4560016970604167e+01  7.2840632239635767e+01  7.1688038106925276e+01  6.9839351775497477e+01  6.9583698567910133e+01  8.2078452461746579e+01  8.2072048019925361e+01  8.1852765175564286e+01  8.1614964357120030e+01  8.1583559835861024e+01  8.1333902795495291e+01  8.0869113796312647e+01  8.0434431737521052e+01  8.0094951675690524e+01  7.9214451887737084e+01  7.8733003355460838e+01  7.7853602462569100e+01  7.6943658200417175e+01  7.6045846041721774e+01  7.5191406766971454e+01  7.4039680487289345e+01  7.2720530702608499e+01  7.1392809682673501e+01  7.0056985541912141e+01  6.7817411085065885e+01  6.7471474143756978e+01  8.2114531046512823e+01  8.2119943135149668e+01  8.2045064823300606e+01  8.1878748749961161e+01  8.1808691615537938e+01  8.1527492987562667e+01  8.1208133736499050e+01  8.0777432186233668e+01  8.0347960753654093e+01  7.9831355599703002e+01  7.9268984645124590e+01  7.9715587918947094e+01  8.1973078299617001e+01  8.2042267297559349e+01  7.7607053968630751e+01  7.8325963574662154e+01  7.6618016742092067e+01  7.5589178863031549e+01  7.4584409197760579e+01  7.4697631982325134e+01  7.3619277538194694e+01  7.2272403263095526e+01  7.0843510299451054e+01  6.9612307136224118e+01  6.7860562358707327e+01  6.5681849847062622e+01  8.1958193427556651e+01  8.2085335711397704e+01  8.2072453575045145e+01  8.1960101559282293e+01  8.1968561997794566e+01  8.1751274676366762e+01  8.1613157934859160e+01  8.1731430899281648e+01  8.1590369711714587e+01  8.1778931087674991e+01  8.1416639137990941e+01  8.1118970098479963e+01  8.0567927939178304e+01  7.9942888751436641e+01  7.9394608451703917e+01  7.8819374671419368e+01  7.8313480348551394e+01  7.7480058634955014e+01  7.6389188708322592e+01  7.5780993798645198e+01  7.4853385316185438e+01  7.3993300426216436e+01  7.3287631735764265e+01  7.2280888893117336e+01  7.0562991664672637e+01  6.8811619786230665e+01  6.9188261447562581e+01  6.7801201884855246e+01  6.5825209075431943e+01  6.3342188740677024e+01  6.3534510760290644e+01  7.3765839128422172e+01  8.2022754452198441e+01  8.1955555976705426e+01  8.1889688837754846e+01  8.1665939865403487e+01  8.1415762848748102e+01  8.1135121628415860e+01  8.0879036765325040e+01  8.0426375557204338e+01  8.0022703022875262e+01  7.9535032680131124e+01  7.8934181649341838e+01  7.8276136215746774e+01  7.7807387605513981e+01  7.7142374001938890e+01  7.6671115905440558e+01  7.5781933961592060e+01  7.5217139331543407e+01  7.4611946048549058e+01  7.3570661990667816e+01  7.2872928194371610e+01  7.2008884058420222e+01  7.1133174687450634e+01  6.9808647870368446e+01  8.1720992419714278e+01  8.1260292131937192e+01  8.0931862778038294e+01  8.0977289614305292e+01  8.0182398812924347e+01  8.0623414438077504e+01  8.1807800331053045e+01  6.7534909061139544e+01  6.5853390625619625e+01  6.3698864331016203e+01  6.0869931417733660e+01  6.0647472146542086e+01  6.0737300218061293e+01  8.1861443226339290e+01  8.1803210951976197e+01  8.1599442127913264e+01  8.1260956437861253e+01  8.0955810013627072e+01  8.0643800919651170e+01  8.0134576297685172e+01  7.9723916559170519e+01  7.9240209025202304e+01  7.9015539142375260e+01  7.8572838362401981e+01  7.7953623989123329e+01  7.7620514760622214e+01  7.7306774681472618e+01  7.6422273701122037e+01  7.5964797989723010e+01  7.4831387310980332e+01  7.4407619984921055e+01  7.3768309844033610e+01  7.2686599226246528e+01  7.2238739619802189e+01  7.1896271681883164e+01  7.0886552036649192e+01  7.0574650307280834e+01  8.0835010937179007e+01  8.1458767741285243e+01  8.1532310469971534e+01  8.1752262725553507e+01  8.0499436462966145e+01  8.0187958007133943e+01  7.9851963750820005e+01  7.8845297033677014e+01  7.9071072408208082e+01  8.1033889024861935e+01  5.7365936499579860e+01  5.6972326187498275e+01  5.7308655402108904e+01  8.1668619127455031e+01  8.1587331079795689e+01  8.1460136231776929e+01  8.1005155407363986e+01  8.0746189795866869e+01  8.0038356089494243e+01  7.9691338879494467e+01  7.9086487993767449e+01  7.8690622454154067e+01  7.7249508356558366e+01  7.7114470806409670e+01  7.6992425701032332e+01  8.1485108476540802e+01  8.1334546205631980e+01  8.1031898728043856e+01  8.0859203274338569e+01  8.0426244894701682e+01  7.9683699486860377e+01  7.9265235548795317e+01  7.8541607954535337e+01  7.8012213318435258e+01  7.7385127012714037e+01  7.6699346985153298e+01  7.5638851739745618e+01  7.5450887488804085e+01  7.5406385242548168e+01  7.4145253387563443e+01  7.3117702251577015e+01  7.1945517978312779e+01  7.1619755597601440e+01  7.1169598659904324e+01  8.1231690350001713e+01  5.3359539837676706e+01  5.3478298624686488e+01  5.3539573466836210e+01  8.1527306614128065e+01  8.1380756343825368e+01  8.1241841413428332e+01  8.0994399531918688e+01  8.0624198976736508e+01  8.0175681006902508e+01  7.9639589687293878e+01  7.9151534418649547e+01  7.9178764168928481e+01  7.8626834763001099e+01  7.8218368799661931e+01  7.7707215707305323e+01  7.7172256706567268e+01  7.6589935569369288e+01  7.6065923330454055e+01  7.5100039600336672e+01  7.4914097926516845e+01  7.4635562483355315e+01  7.3383976646985758e+01  7.2161581701208689e+01  8.1459943323313453e+01  8.1440128799599989e+01  8.1078056266013547e+01  8.0524070425038630e+01  7.9832780853686685e+01  7.9427956340858017e+01  7.8885650984692461e+01  7.7944287246025880e+01  7.7069038535539391e+01  7.8025448359810596e+01  7.5974842320821352e+01  7.5152342818163916e+01  7.4804426901740726e+01  8.1420189001710185e+01  8.1287799445821236e+01  8.1360065554506448e+01  8.1256755299843846e+01  8.0960773025597504e+01  8.0661433441322501e+01  8.0240274288095378e+01  7.9456507026464621e+01  7.8760325989383929e+01  7.7930477847470826e+01  7.7157305684306152e+01  7.6195240439456967e+01  7.5529960640330643e+01  7.4102249498832521e+01  7.3302295824149581e+01  7.2689644867508434e+01  8.1084904572807474e+01  8.0694575704701464e+01  8