<?xml version="1.0"?>
<VTKFile type="UnstructuredGrid"  version="0.1"  >
<UnstructuredGrid>
<Piece  NumberOfPoints="7062" NumberOfCells="13364">
<Points>
<DataArray  type="Float64"  NumberOfComponents="3"  format="ascii">3 0.3578783626580142 0  2.837980074580334 0.3519202983213376 0  3 0.562360081589721 0  2.668095006086507 0.3361900121730148 0  2.851377214834756 0.5541316445042701 0  3 0.7513957619668947 0  2.486405553557287 0.3152074047430488 0  2.689313205761768 0.5339698086426523 0  2.869719245232929 0.7394384904658591 0  3 0.9113080676370099 0  2.292893218813248 0.2928932188132478 0  2.509760203133004 0.509760203133004 0  2.714421710057237 0.7144217100572372 0  2.89402123560811 0.8940212356081096 0  3 1 0  2.315207404743049 0.4864055535572865 0  2.533969808642652 0.6893132057617682 0  2.739438490465859 0.8697192452329295 0  2.91130806763701 1 0  3 1.08869193236299 0  3.10597876439189 1.10597876439189 0  3.08869193236299 1 0  2.336190012173015 0.6680950060865074 0  2.55413164450427 0.8513772148347567 0  2.751395761966895 1 0  2.89402123560811 1.10597876439189 0  3 1.248604238033105 0  3.130280754767071 1.260561509534141 0  3.285578289942763 1.285578289942763 0  3.260561509534141 1.130280754767071 0  3.248604238033105 1 0  2.351920298321338 0.8379800745803344 0  2.562360081589721 1 0  2.739438490465859 1.130280754767071 0  2.869719245232929 1.260561509534141 0  3 1.437639918410279 0  3.148622785165244 1.44586835549573 0  3.310686794238232 1.466030191357348 0  3.490239796866996 1.490239796866996 0  3.466030191357348 1.310686794238232 0  3.44586835549573 1.148622785165243 0  3.437639918410279 1 0  2.357878362658014 1 0  2.55413164450427 1.148622785165243 0  2.714421710057237 1.285578289942763 0  2.851377214834756 1.44586835549573 0  3 1.642121637341986 0  3.162019925419666 1.648079701678662 0  3.331904993913493 1.663809987826985 0  3.513594446442713 1.684792595256951 0  3.707106781186752 1.707106781186752 0  3.684792595256951 1.513594446442713 0  3.663809987826985 1.331904993913493 0  3.648079701678662 1.162019925419666 0  3.642121637341986 1 0  2.351920298321338 1.162019925419666 0  2.533969808642652 1.310686794238232 0  2.689313205761768 1.466030191357348 0  2.837980074580334 1.648079701678662 0  2.336190012173015 1.331904993913493 0  2.509760203133004 1.490239796866996 0  2.668095006086507 1.663809987826985 0  2.315207404743049 1.513594446442713 0  2.486405553557287 1.684792595256951 0  2.292893218813248 1.707106781186752 0  2 4.642121637341986 0  1.837980074580335 4.648079701678663 0  2 4.437639918410279 0  1.668095006086507 4.663809987826985 0  1.851377214834757 4.44586835549573 0  2 4.248604238033105 0  1.486405553557287 4.684792595256951 0  1.689313205761768 4.466030191357348 0  1.869719245232929 4.260561509534141 0  2 4.08869193236299 0  1.292893218813248 4.707106781186752 0  1.509760203133004 4.490239796866996 0  1.714421710057237 4.285578289942762 0  1.89402123560811 4.105978764391891 0  2 4 0  1.315207404743049 4.513594446442713 0  1.533969808642652 4.310686794238232 0  1.739438490465859 4.13028075476707 0  1.91130806763701 4 0  2 3.91130806763701 0  2.10597876439189 3.89402123560811 0  2.08869193236299 4 0  1.336190012173015 4.331904993913493 0  1.55413164450427 4.148622785165244 0  1.751395761966895 4 0  1.89402123560811 3.89402123560811 0  2 3.751395761966895 0  2.130280754767071 3.739438490465859 0  2.285578289942763 3.714421710057237 0  2.260561509534141 3.869719245232929 0  2.248604238033105 4 0  1.351920298321338 4.162019925419665 0  1.562360081589721 4 0  1.739438490465859 3.869719245232929 0  1.869719245232929 3.739438490465859 0  2 3.562360081589721 0  2.148622785165244 3.55413164450427 0  2.310686794238232 3.533969808642652 0  2.490239796866996 3.509760203133004 0  2.466030191357348 3.689313205761768 0  2.44586835549573 3.851377214834756 0  2.437639918410279 4 0  1.357878362658014 4 0  1.55413164450427 3.851377214834756 0  1.714421710057237 3.714421710057237 0  1.851377214834757 3.55413164450427 0  2 3.357878362658014 0  2.162019925419666 3.351920298321338 0  2.331904993913493 3.336190012173015 0  2.513594446442713 3.315207404743049 0  2.707106781186752 3.292893218813248 0  2.684792595256951 3.486405553557287 0  2.663809987826985 3.668095006086507 0  2.648079701678662 3.837980074580334 0  2.642121637341986 4 0  1.351920298321338 3.837980074580334 0  1.533969808642652 3.689313205761768 0  1.689313205761768 3.533969808642652 0  1.837980074580334 3.351920298321338 0  1.336190012173015 3.668095006086507 0  1.509760203133004 3.509760203133004 0  1.668095006086507 3.336190012173015 0  1.315207404743049 3.486405553557287 0  1.486405553557287 3.315207404743049 0  1.292893218813248 3.292893218813248 0  -6 5.642121637341986 0  -5.837980074580335 5.648079701678663 0  -6 5.437639918410279 0  -5.668095006086507 5.663809987826985 0  -5.851377214834756 5.44586835549573 0  -6 5.248604238033105 0  -5.486405553557287 5.684792595256951 0  -5.689313205761768 5.466030191357348 0  -5.86971924523293 5.260561509534141 0  -6 5.08869193236299 0  -5.292893218813248 5.707106781186752 0  -5.509760203133004 5.490239796866996 0  -5.714421710057238 5.285578289942762 0  -5.894021235608109 5.105978764391891 0  -6 5 0  -5.315207404743049 5.513594446442713 0  -5.533969808642652 5.310686794238232 0  -5.739438490465859 5.13028075476707 0  -5.91130806763701 5 0  -6 4.91130806763701 0  -6.105978764391891 4.894021235608109 0  -6.08869193236299 5 0  -5.336190012173015 5.331904993913493 0  -5.55413164450427 5.148622785165244 0  -5.751395761966895 5 0  -5.894021235608109 4.894021235608109 0  -6 4.751395761966895 0  -6.13028075476707 4.739438490465859 0  -6.285578289942762 4.714421710057238 0  -6.260561509534141 4.86971924523293 0  -6.248604238033105 5 0  -5.351920298321337 5.162019925419665 0  -5.562360081589721 5 0  -5.739438490465859 4.86971924523293 0  -5.86971924523293 4.739438490465859 0  -6 4.562360081589721 0  -6.148622785165244 4.55413164450427 0  -6.310686794238232 4.533969808642652 0  -6.490239796866996 4.509760203133004 0  -6.466030191357348 4.689313205761768 0  -6.44586835549573 4.851377214834756 0  -6.437639918410279 5 0  -5.357878362658014 5 0  -5.55413164450427 4.851377214834756 0  -5.714421710057238 4.714421710057238 0  -5.851377214834756 4.55413164450427 0  -6 4.357878362658014 0  -6.162019925419665 4.351920298321337 0  -6.331904993913493 4.336190012173015 0  -6.513594446442713 4.315207404743049 0  -6.707106781186752 4.292893218813248 0  -6.684792595256951 4.486405553557287 0  -6.663809987826985 4.668095006086507 0  -6.648079701678663 4.837980074580335 0  -6.642121637341986 5 0  -5.351920298321337 4.837980074580335 0  -5.533969808642652 4.689313205761768 0  -5.689313205761768 4.533969808642652 0  -5.837980074580335 4.351920298321337 0  -5.336190012173015 4.668095006086507 0  -5.509760203133004 4.509760203133004 0  -5.668095006086507 4.336190012173015 0  -5.315207404743049 4.486405553557287 0  -5.486405553557287 4.315207404743049 0  -5.292893218813248 4.292893218813248 0  -5 2.357878362658014 0  -4.837980074580335 2.351920298321338 0  -5 2.562360081589721 0  -4.668095006086507 2.336190012173015 0  -4.851377214834756 2.55413164450427 0  -5 2.751395761966895 0  -4.486405553557287 2.315207404743049 0  -4.689313205761768 2.533969808642652 0  -4.86971924523293 2.739438490465859 0  -5 2.91130806763701 0  -4.292893218813248 2.292893218813248 0  -4.509760203133004 2.509760203133004 0  -4.714421710057238 2.714421710057237 0  -4.894021235608109 2.89402123560811 0  -5 3 0  -4.315207404743049 2.486405553557287 0  -4.533969808642652 2.689313205761768 0  -4.739438490465859 2.869719245232929 0  -4.91130806763701 3 0  -5 3.08869193236299 0  -5.105978764391891 3.10597876439189 0  -5.08869193236299 3 0  -4.336190012173015 2.668095006086507 0  -4.55413164450427 2.851377214834756 0  -4.751395761966895 3 0  -4.894021235608109 3.10597876439189 0  -5 3.248604238033105 0  -5.13028075476707 3.260561509534141 0  -5.285578289942762 3.285578289942763 0  -5.260561509534141 3.130280754767071 0  -5.248604238033105 3 0  -4.351920298321337 2.837980074580334 0  -4.562360081589721 3 0  -4.739438490465859 3.130280754767071 0  -4.86971924523293 3.260561509534141 0  -5 3.437639918410279 0  -5.148622785165244 3.44586835549573 0  -5.310686794238232 3.466030191357348 0  -5.490239796866996 3.490239796866996 0  -5.466030191357348 3.310686794238232 0  -5.44586835549573 3.148622785165244 0  -5.437639918410279 3 0  -4.357878362658014 3 0  -4.55413164450427 3.148622785165244 0  -4.714421710057238 3.285578289942763 0  -4.851377214834756 3.44586835549573 0  -5 3.642121637341986 0  -5.162019925419665 3.648079701678662 0  -5.331904993913493 3.663809987826985 0  -5.513594446442713 3.684792595256951 0  -5.707106781186752 3.707106781186752 0  -5.684792595256951 3.513594446442713 0  -5.663809987826985 3.331904993913493 0  -5.648079701678663 3.162019925419666 0  -5.642121637341986 3 0  -4.351920298321337 3.162019925419666 0  -4.533969808642652 3.310686794238232 0  -4.689313205761768 3.466030191357348 0  -4.837980074580335 3.648079701678662 0  -4.336190012173015 3.331904993913493 0  -4.509760203133004 3.490239796866996 0  -4.668095006086507 3.663809987826985 0  -4.315207404743049 3.513594446442713 0  -4.486405553557287 3.684792595256951 0  -4.292893218813248 3.707106781186752 0  5 1 0  5 1.1875 0  4.830265204667748 1 0  4.77562324865802 1.192679506345228 0  4.787911267192283 1.348081986778286 0  5 1.375 0  4.660530409335497 1 0  4.633059348939607 1.366021042988467 0  4.541978946488643 1.175143747516595 0  4.490795614003245 1 0  4.795362838541691 1.50379133270418 0  5 1.5625 0  4.359954284754179 1.282832206312045 0  4.321060818670993 1 0  4.457676687866868 1.451904123929002 0  4.607881543291101 1.536622050583134 0  4.689532883909252 1.688515711625484 0  4.856235702683054 1.661343413014644 0  5 1.75 0  4.238111322001059 1.40000554689391 0  4.378421381089813 1.630379830243528 0  4.52610451519947 1.664149318775792 0  4.505222861494965 1.814198120819483 0  4.659530852044655 
[...]
<PointData  Scalars="u"> 
<DataArray  type="Float64"  Name="u"  format="ascii">5.3469928862707917e+01  5.7362752054849743e+01  5.3568286157527368e+01  6.0750095923559201e+01  5.8458018355050761e+01  5.3643962727414667e+01  6.3496731987719777e+01  6.2471688156321889e+01  6.0431273191901283e+01  5.4166528954622194e+01  6.5652437142148429e+01  6.5358039797078746e+01  6.4941164928907398e+01  6.4668691954503473e+01  5.6893307033137368e+01  6.7467496634549150e+01  6.7714202079395406e+01  6.8547709755371173e+01  7.1300021028467114e+01  7.1031901796754113e+01  6.4184195936065848e+01  5.3903734518419846e+01  6.9558993332035243e+01  7.0527536034621349e+01  7.2475124143715433e+01  7.4260391508222483e+01  7.1710407626731424e+01  6.7359332425697332e+01  6.3264789400147436e+01  5.9277602393745546e+01  5.2921375141229973e+01  7.1793050217989631e+01  7.3203716301763905e+01  7.4856867537733180e+01  7.4451043951030087e+01  7.1830492108292646e+01  6.8682435293067599e+01  6.5334280145057377e+01  6.2418652007166727e+01  6.0181246051163157e+01  5.6710165292484703e+01  5.2326358112957799e+01  7.3899644148816975e+01  7.5145602796753678e+01  7.5564794299167460e+01  7.4188870771229261e+01  7.1840910192167499e+01  6.9220217663956689e+01  6.6433164427501580e+01  6.3762094001079561e+01  6.1365234403070879e+01  5.9956905513757498e+01  5.7877428789778982e+01  5.5076486062966239e+01  5.1695240400256623e+01  7.5483230382321267e+01  7.6091995395062654e+01  7.5594490178694940e+01  7.3914977220039603e+01  7.6496138935648048e+01  7.6431959367329242e+01  7.5422008907997480e+01  7.7028557928634555e+01  7.6476255273445929e+01  7.7255027221145767e+01  5.9303763966264960e+01  6.3075031568263455e+01  5.9469756267036985e+01  6.6326463960009605e+01  6.4226120427348718e+01  5.9621705825949583e+01  6.8925149065001420e+01  6.8082435337386343e+01  6.6268214690770662e+01  6.0221086256157172e+01  7.0926233428163329e+01  7.0793378849210072e+01  7.0601105421781853e+01  7.0589473896815548e+01  6.2996700323870407e+01  7.2714409665747269e+01  7.3164759833089278e+01  7.4266062049667511e+01  7.7288724885675578e+01  7.7188400817930457e+01  7.0491742427159977e+01  6.0114122442760767e+01  7.4782763122026893e+01  7.6000611668137680e+01  7.8242163057467494e+01  8.0277821820690306e+01  7.7977098234647272e+01  7.3827406147237213e+01  6.9960461870571379e+01  6.5787020256817527e+01  5.9304574032776287e+01  7.6994000395512614e+01  7.8689521379906381e+01  8.0644677854158530e+01  8.0513565487567007e+01  7.8254840031562068e+01  7.5370157464957018e+01  7.2282695559479009e+01  6.9607398571490890e+01  6.7095330561251799e+01  6.3416966391630808e+01  5.8875131781578339e+01  7.9070233179561384e+01  8.0625315506901586e+01  8.1361091528584481e+01  8.0335916315708218e+01  7.8479254992780270e+01  7.6187849272585183e+01  7.3708022438489706e+01  7.1302329951242129e+01  6.9096534969327905e+01  6.7330106893346425e+01  6.4964052101397527e+01  6.1935375610246219e+01  5.8371585889261183e+01  8.0600398816932938e+01  8.1540741280457596e+01  8.1407634423612905e+01  8.0185774971091675e+01  8.1534725252558431e+01  8.1839172721934744e+01  8.1272099728027925e+01  8.1961403184613459e+01  8.1834549350575614e+01  8.2058645615839907e+01  5.3639579887700641e+01  5.7715667438839183e+01  5.3601696756688817e+01  6.1295537228422113e+01  5.8761372595535882e+01  5.3524614948888498e+01  6.4245943541043417e+01  6.2998987351306326e+01  6.0759257664080209e+01  5.3964820491636480e+01  6.6609121420582426e+01  6.6070269876692507e+01  6.5499870468955990e+01  6.5404595274495662e+01  5.7308180556230887e+01  6.8359641042942954e+01  6.8405093150613467e+01  6.9265189306461068e+01  7.3339795875019959e+01  7.2822159364473421e+01  6.4370598297526669e+01  5.3469168618880367e+01  7.0375381172198701e+01  7.1232262064659608e+01  7.3389310925508283e+01  7.5579112562249620e+01  7.1881199945128586e+01  6.6965240842836707e+01  6.2292123342585256e+01  5.8600356560372681e+01  5.2189932824937294e+01  7.2528555154607801e+01  7.3894714529699954e+01  7.5593656188127270e+01  7.4776094112096828e+01  7.1116747689120970e+01  6.7590798259152976e+01  6.3825623426875786e+01  6.0558307209710790e+01  5.8765018965095045e+01  5.5590192355336612e+01  5.1362311725661712e+01  7.4556303019819183e+01  7.5709438629786064e+01  7.5841769973286176e+01  7.3734852915323202e+01  7.0274932773086718e+01  6.7339405539982991e+01  6.4263427008313755e+01  6.1345268104092789e+01  5.8759636362745688e+01  5.7818605426364087e+01  5.6129143012717904e+01  5.3647437923403643e+01  5.0521320967753724e+01  7.6062802043530112e+01  7.6422015036044812e+01  7.5355490246838031e+01  7.2695948936736926e+01  7.6995759769176928e+01  7.6461807451402677e+01  7.4610087843109881e+01  7.7432341807932630e+01  7.6162951031880141e+01  7.7522598760782046e+01  6.0492915691199421e+01  6.4287221259767676e+01  6.0666443225594655e+01  6.7545460703959108e+01  6.5520271139054344e+01  6.0829831589174027e+01  7.0141593263608485e+01  6.9388744335127015e+01  6.7742208866757508e+01  6.1513213102806908e+01  7.2132517976781983e+01  7.2044225762256673e+01  7.2068219468777130e+01  7.2644590690690734e+01  6.5010955843338095e+01  7.3887009488859675e+01  7.4480785092854532e+01  7.6033128985016759e+01  8.0785799399258252e+01  8.0693082752621166e+01  7.2583337560944642e+01  6.1407299247036484e+01  7.5919469691452704e+01  7.7427718295539648e+01  8.0330920616637314e+01  8.3148364675584773e+01  8.0099599133667098e+01  7.5631842393100598e+01  7.1451071575208829e+01  6.7255225895534721e+01  6.0495352479994224e+01  7.8092364810279179e+01  8.0188958813389888e+01  8.2652653302348583e+01  8.2542922816722765e+01  7.9829721436221703e+01  7.6884033307929769e+01  7.3670297060665973e+01  7.0858457728233390e+01  6.8354779732289884e+01  6.4638747736230783e+01  5.9992433958834880e+01  8.0125439727667725e+01  8.2066771485201244e+01  8.3013342286523979e+01  8.1827401826002742e+01  7.9651516585937273e+01  7.7433680391202017e+01  7.4990963210424766e+01  7.2551298292984413e+01  7.0185124661007066e+01  6.8377728081059644e+01  6.5987233525994355e+01  6.2941890347289124e+01  5.9357135263710809e+01  8.1590422049859740e+01  8.2800995722707214e+01  8.2690391350654465e+01  8.1246206309892301e+01  8.2434485335914260e+01  8.2861238993740130e+01  8.2194132008337775e+01  8.2733396081949763e+01  8.2596648613747561e+01  8.2651162900645929e+01  4.8491007142031314e+01  4.9523805456443462e+01  4.8843846543039852e+01  5.0204895185246372e+01  5.1103536646111166e+01  5.0492856340636855e+01  4.9214027214935349e+01  5.1826410394072312e+01  5.0838560127194100e+01  4.9591811706840851e+01  5.1930705092415423e+01  5.1373025824719065e+01  5.2409157210652900e+01  5.0000994016229718e+01  5.3218719097206417e+01  5.2982976381246473e+01  5.3367085966914438e+01  5.2422270048841256e+01  5.2134886651008323e+01  5.4050672595381748e+01  5.4851024203758151e+01  5.4142204374312122e+01  5.5016334482991013e+01  5.4220113209794135e+01  5.3483657811155240e+01  5.2772211013734228e+01  5.1787563861512055e+01  5.0408737244161969e+01  5.5776478794519569e+01  5.4451054966636413e+01  5.2682536218215354e+01  5.0831244243435897e+01  5.6466010535207793e+01  5.5908595800564676e+01  5.5840830173832813e+01  5.4959409134605636e+01  5.4142326489037927e+01  5.3270916816576623e+01  5.8180210013374698e+01  5.7587985673070079e+01  5.6822366550868182e+01  5.6538155526617537e+01  5.5786640442088512e+01  5.4688247037202544e+01  5.3632521333173997e+01  5.7636296000590690e+01  5.7179776393857182e+01  5.4279449563754596e+01  5.1262662118073422e+01  5.9769840122989649e+01  5.8848065478684660e+01  5.7602340893860891e+01  5.8173002831206404e+01  5.6936532266221882e+01  5.5872739425774078e+01  5.4904326201525670e+01  5.3856972955084110e+01  5.9836825536987192e+01  6.1365721430968172e+01  5.9962197701016201e+01  5.7865030994487931e+01  5.5051127632099195e+01  5.1748883807750815e+01  6.1113378198469277e+01  5.9583140694603323e+01  6.0257879020804616e+01  5.8970754442437084e+01  5.7666619509622983e+01  5.6462156219842051e+01  5.5111308077716991e+01  5.3947846263488209e+01  6.1722673942622713e+01  6.4990995319730146e+01  6.3759047858942651e+01  6.2674474124899675e+01  6.3856302060778646e+01  6.4240026237471980e+01  6.7219645013601394e+01  6.8339576713314244e+01  6.6438572992555123e+01  6.1079898164971404e+01  6.1657746555705650e+01  6.0745169832987891e+01  5.9505541566618987e+01  5.8129373602593176e+01  5.6714078275693922e+01  5.5559013256386834e+01  5.4633874001721601e+01  5.3913416791736701e+01  6.5094807273311247e+01  6.3694873329982727e+01  6.2321679974884766e+01  6.1291114182240619e+01  5.9987994206177540e+01  5.8261725064223548e+01  5.6679905369606729e+01  5.5273949911230382e+01  5.4358138993273819e+01  5.3769755515728122e+01  6.5591397049163632e+01  6.7274658363839350e+01  6.9647357111650848e+01  7.1498760515854897e+01  6.9222569124664133e+01  6.9415925418810076e+01  5.7519733187317065e+01  6.4612411109786734e+01  6.3018249199603602e+01  6.1847345495319374e+01  6.0330141368368778e+01  5.9160127669227514e+01  5.7570500580930343e+01  5.6614644877733383e+01  5.5726434242525031e+01  5.4877487125432836e+01  5.4067267791260811e+01  5.3519195238794438e+01  6.6420068456918742e+01  6.8474386365058706e+01  7.0767149568133135e+01  7.1806649538233700e+01  7.3702697774026163e+01  7.3440273779115159e+01  7.1828068925052023e+01  6.6672202338610177e+01  6.4264194200851804e+01  6.2775435401372242e+01  6.1537669420149307e+01  5.9946952111661581e+01  5.8455755410873643e+01  5.7617240114822465e+01  5.6736136943584832e+01  5.5708036215902908e+01  5.4570413659902037e+01  5.3568252450298267e+01  5.3177930660234352e+01  7.0826595088680378e+01  7.2989524580949521e+01  7.4787579371818950e+01  7.4970483210179523e+01  7.5417849983458510e+01  7.3915190002673228e+01  6.8750898018309883e+01  6.6689564690187325e+01  6.4940864584194557e+01  6.2943803773441026e+01  6.1114270297300578e+01  5.9749519436567532e+01  5.8314777072070960e+01  5.6818585678161298e+01  5.6037757597978661e+01  5.5090859942804769e+01  5.3961189311499169e+01  5.4250544452907548e+01  5.2756517378959465e+01  5.2884166340993332e+01  6.8785872245899697e+01  7.1587395583660111e+01  7.2228692131350144e+01  7.3837873981218522e+01  7.5022947890896276e+01  7.5438880499170267e+01  7.6457859873117314e+01  7.5850960692001365e+01  7.6481167990819984e+01  6.6377541906763170e+01  6.4751124660604575e+01  6.2286922798992961e+01  6.0689874031907799e+01  5.8938360120598546e+01  5.7402633717109623e+01  5.6268308837004582e+01  5.5372230656737656e+01  5.4261871978679579e+01  5.3276080815926647e+01  5.2564362555308250e+01  5.1731674382903975e+01  5.2273800170401074e+01  6.8141443288348782e+01  6.9905857871372348e+01  7.1621098692768300e+01  7.3566148189147327e+01  7.5094822904427303e+01  7.6141728247260843e+01  7.6828259854305202e+01  7.7410127917695121e+01  7.6741011806001097e+01  7.7255803130367042e+01  6.7664764634483873e+01  6.9744510131875217e+01  7.1224402911656085e+01  7.3528540189822351e+01  7.5347505984336379e+01  7.6503048599634511e+01  7.7228014884211859e+01  7.8038255281061183e+01  7.8159110951230900e+01  7.7874140726411241e+01  7.7601262162108640e+01  7.7024829677976086e+01  6.5744826085357488e+01  6.3895925752286331e+01  6.2053890749204584e+01  5.9580074386349523e+01  5.7837132442529509e+01  5.7655281713187009e+01  5.5928798011617850e+01  5.5182916457007359e+01  5.3874588602430791e+01  5.3429020433984114e+01  5.2993323813815309e+01  6.9157153982417043e+01  6.7015494505752770e+01  6.3806678771940398e+01  6.1684415173969981e+01  5.9937189995784074e+01  5.8020990053180029e+01  5.5657969743680475e+01  5.6479383286430618e+01  5.5210058067778228e+01  5.4322275641747659e+01  7.2423986796108053e+01  7.4146107863757194e+01  7.5451359831300820e+01  7.7001093096105052e+01  7.7721932916816257e+01  7.8712019753167567e+01  7.9300719814748462e+01  7.8794154978943070e+01  7.8630369085056643e+01  7.8227966198706099e+01  7.7996296183118062e+01  7.7129800337570586e+01  7.6968831199751321e+01  7.6493383786519772e+01  6.9096227388891378e+01  6.4989927179406138e+01  6.1917722169783424e+01  5.9598579962320606e+01  5.8191132237353742e+01  5.6091331230239575e+01  7.1298954386719331e+01  7.3674839792522434e+01  7.5471023780094413e+01  7.7332617472613379e+01  7.8593330195533966e+01  7.7155122908334164e+01  7.8215300267500794e+01  7.9311843666317003e+01  7.9637883901350435e+01  7.9892263303488136e+01  7.9372042556730847e+01  7.8856609849291090e+01  7.8533896836387427e+01  7.7426741540234090e+01  7.6066839543610001e+01  7.5974507283932127e+01  7.5494781169270510e+01  6.7337605579823546e+01  6.4959388565233112e+01  6.2097263138019088e+01  6.0035579367698524e+01  5.7320939695480149e+01  5.6929601866679320e+01  7.3712392112517904e+01  7.6199921944469196e+01  7.8468154996093702e+01  7.9426215022778933e+01  8.0554251983309669e+01  7.9977959843093373e+01  8.0095969015225720e+01  8.0246081387748674e+01  8.0404983612105227e+01  8.0486891505175564e+01  8.0018841111110589e+01  7.9518217117763484e+01  7.9108726089132446e+01  7.8537442736539546e+01  7.7833257470134924e+01  7.6923534220941463e+01  7.5947341256850635e+01  7.5287524960575226e+01  7.4523878936971755e+01  7.4540572040091874e+01  7.3874996466382058e+01  6.1928281341988473e+01  5.8074903891230171e+01  5.7702749894516302e+01  8.0184037846893801e+01  8.0818999267168323e+01  8.1404979225089633e+01  8.0886047312349547e+01  8.0683164534874805e+01  8.0822600711238664e+01  8.0907895991583700e+01  8.0848311132753054e+01  8.0423874235474173e+01  7.9972833971016158e+01  7.9161496471556944e+01  7.9553309233571696e+01  7.8353619217110392e+01  7.7480680193056173e+01  7.6432273939654451e+01  7.5662619794016592e+01  7.4217003788552304e+01  7.3209491144883231e+01  7.2097671237737089e+01  7.1814088527364575e+01  5.8423457915929148e+01  8.1268137204372522e+01  8.1830811831102366e+01  8.1858468612548180e+01  8.1627251338234828e+01  8.1277345605570289e+01  8.1477712177126648e+01  8.1348365583768256e+01  8.1284920139443770e+01  8.1262995448764585e+01  8.0986686784551964e+01  8.0551481532518991e+01  8.0130378515713531e+01  7.9567958437857314e+01  7.8877756721545651e+01  7.8310514868053517e+01  7.7273830225707783e+01  7.6298460383805235e+01  7.5255011755816369e+01  7.4553645465151547e+01  7.2832559001743533e+01  7.1678633205435034e+01  6.9854666168556662e+01  6.9573410148006104e+01  8.2060812577501892e+01  8.2046937965002428e+01  8.1831849855161067e+01  8.1602287359377613e+01  8.1569382630378058e+01  8.1318924022680008e+01  8.0854545711546749e+01  8.0422770551865881e+01  8.0083088826995663e+01  7.9198819966775716e+01  7.8724352932324919e+01  7.7844997164882827e+01  7.6931811023696127e+01  7.6035113976256682e+01  7.5178004517271901e+01  7.4032994609579717e+01  7.2708053083701429e+01  7.1377607056100317e+01  7.0027191612785359e+01  6.7843331618689206e+01  6.7466704333505206e+01  8.2085791983384254e+01  8.2111528461264029e+01  8.2028622758185918e+01  8.1865646517463063e+01  8.1791839107260174e+01  8.1514040825736174e+01  8.1197455410803371e+01  8.0767887552986451e+01  8.0337788058777519e+01  7.9820143246036352e+01  7.9254477362010263e+01  7.9707906698985781e+01  8.1957262289316716e+01  8.2036980043088448e+01  7.7597885758872422e+01  7.8315762350195556e+01  7.6605503278730311e+01  7.5583255148537049e+01  7.4577514309970169e+01  7.4692261840232177e+01  7.3611587489353127e+01  7.2268630166501595e+01  7.0835112334543084e+01  6.9591783180616886e+01  6.7841175871120754e+01  6.5653639410393779e+01  8.1948646614301808e+01  8.2075828883533930e+01  8.2063735872626111e+01  8.1943255327588417e+01  8.1958106992970485e+01  8.1743054316755305e+01  8.1578531677533675e+01  8.1719996714633993e+01  8.1541738001306300e+01  8.1768437759746988e+01  8.1406988807418543e+01  8.1104688710486570e+01  8.0555533850716145e+01  7.9932140515994149e+01  7.9385097773645697e+01  7.8813624240641744e+01  7.8305002355499340e+01  7.7468792898679325e+01  7.6381016672236782e+01  7.5770680054577809e+01  7.4847285011040171e+01  7.3987686053715549e+01  7.3278451064462303e+01  7.2270785555205890e+01  7.0550747850821068e+01  6.8800360267556584e+01  6.9178159698276957e+01  6.7778078283438774e+01  6.5798900164182257e+01  6.3314466367422355e+01  6.3502528970209873e+01  7.3756908714916179e+01  8.2012300504489588e+01  8.1945753978790492e+01  8.1879931440355634e+01  8.1655497525788007e+01  8.1410057830989061e+01  8.1124382894718110e+01  8.0870799913488398e+01  8.0415078174291168e+01  8.0014064621932761e+01  7.9526215381556838e+01  7.8926046878930492e+01  7.8266850817881448e+01  7.7800821583632469e+01  7.7137122203490904e+01  7.6663476072614770e+01  7.5777676874312348e+01  7.5212177394676033e+01  7.4607669201388930e+01  7.3562599918723109e+01  7.2863595162608902e+01  7.1999004563972349e+01  7.1127762088650883e+01  6.9798177445418503e+01  8.1714320273568731e+01  8.1242599695867824e+01  8.0915279588906756e+01  8.0978367244199006e+01  8.0144425454381221e+01  8.0606335974387463e+01  8.1793487296508403e+01  6.7515949869837954e+01  6.5842204014550532e+01  6.3670703111156847e+01  6.0855276930367623e+01  6.0601012492000095e+01  6.0737672580585297e+01  8.1850487533690938e+01  8.1795011190524320e+01  8.1583341585050547e+01  8.1249017406520593e+01  8.0950665983774925e+01  8.0635285630868836e+01  8.0125856510786605e+01  7.9719499679207004e+01  7.9229425192666469e+01  7.9009831681030875e+01  7.8566509346390262e+01  7.7944557445805344e+01  7.7613388112949508e+01  7.7300323116615345e+01  7.6413038447409264e+01  7.5957539843517068e+01  7.4823716822425979e+01  7.4403073661615394e+01  7.3761773203691590e+01  7.2678329597487505e+01  7.2230684700846282e+01  7.1892590891071421e+01  7.0886585476830078e+01  7.0570801743123951e+01  8.0828302010632910e+01  8.1442340158211437e+01  8.1522499876931676e+01  8.1740190062270699e+01  8.0488120486354688e+01  8.0174686693727168e+01  7.9828159702431407e+01  7.8837071201790010e+01  7.9049837252787029e+01  8.1029174030089351e+01  5.7366945722988049e+01  5.6932229641114617e+01  5.7335112263440905e+01  8.1656537595166839e+01  8.1577468206570870e+01  8.1452519053991651e+01  8.0994262606496591e+01  8.0733152210799972e+01  8.0031164804230897e+01  7.9680245131879488e+01  7.9066538289176748e+01  7.8674433062430282e+01  7.7251813774099176e+01  7.7115365152948897e+01  7.6995726679662056e+01  8.1475075166926871e+01  8.1327834767220480e+01  8.1022303824147357e+01  8.0850497500193498e+01  8.0415539700155847e+01  7.9673371673797647e+01  7.9255623515361393e+01  7.8533400425515808e+01  7.8002461774648509e+01  7.7376212798874874e+01  7.6691817799358816e+01  7.5634039675764058e+01  7.5447042652931145e+01  7.5400200219281757e+01  7.4138409700117762e+01  7.3109128583763479e+01  7.1940234532912655e+01  7.1615094691886156e+01  7.1165777890906583e+01  8.1223276004247779e+01  5.3396067363799006e+01  5.3464713885423990e+01  5.3525553891710196e+01  8.1517897230452647e+01  8.1369051534144702e+01  8.1233126166796310e+01  8.0986329092575417e+01  8.0612726472739467e+01  8.0166211721392557e+01  7.9632084265481296e+01  7.9141425816923061e+01  7.9174949220717750e+01  7.8620503232551044e+01  7.8209658559478569e+01  7.7699978538521734e+01  7.7165342934804244e+01  7.6584888785475727e+01  7.6062171518763336e+01  7.5094973765506538e+01  7.4908246477006713e+01  7.4629753466890179e+01  7.3375776750848431e+01  7.2157021738916541e+01  8.1450879550559478e+01  8.1428179700851814e+01  8.1063046565430255e+01  8.0504426040554677e+01  7.9821437354780372e+01  7.9428162163040540e+01  7.8875895570380251e+01  7.7939117479371887e+01  7.7055545818742573e+01  7.8019205455067919e+01  7.5972286203581945e+01  7.5159161787870161e+01  7.4789077686919171e+01  8.1410721618721254e+01  8.1274525195925378e+01  8.1348101356989332e+01  8.1251110764638966e+01  8.0951133295922830e+01  8.0655104929037805e+01  8.0229578342843979e+01  7.9443872858228460e+01  7.8747347252020859e+01  7.7925980693734786e+01  7.7152766399663562e+01  7.6189803266273188e+01  7.5518484868102689e+01  7.4108657455105231e+01  7.3300562407777733e+01  7.2707503565429704e+01  8.1073155282588701e+01  8.0684205945132064e+01  8