<?xml version="1.0"?>
<VTKFile type="UnstructuredGrid"  version="0.1"  >
<UnstructuredGrid>
<Piece  NumberOfPoints="2388" NumberOfCells="4365">
<Points>
<DataArray  type="Float64"  NumberOfComponents="3"  format="ascii">3 0.3059179772177343 0  2.826192235005252 0.3047689400210052 0  3 0.4876840732277087 0  2.650848904718999 0.3016978094379971 0  2.828721773526102 0.4861653205783054 0  3 0.6663313827030033 0  2.473127361874204 0.2975031491656049 0  2.654933606300413 0.4824004094506196 0  2.832075157123596 0.6641503142471923 0  3 0.8400450330852545 0  2.292893218813298 0.2928932188132978 0  2.477765466230188 0.4777654662301873 0  2.659590949023722 0.6595909490237226 0  2.836584264135747 0.8365842641357473 0  3 1 0  2.297503149165605 0.4731273618742037 0  2.482400409450619 0.654933606300413 0  2.664150314247192 0.8320751571235961 0  2.840045033085254 1 0  3 1.159954966914746 0  3.163415735864253 1.163415735864253 0  3.159954966914746 1 0  2.301697809437997 0.6508489047189985 0  2.486165320578305 0.8287217735261018 0  2.666331382703003 1 0  2.836584264135747 1.163415735864253 0  3 1.333668617296997 0  3.167924842876404 1.335849685752808 0  3.340409050976278 1.340409050976277 0  3.335849685752808 1.167924842876404 0  3.333668617296997 1 0  2.304768940021005 0.8261922350052512 0  2.487684073227709 1 0  2.664150314247192 1.167924842876404 0  2.832075157123596 1.335849685752808 0  3 1.512315926772291 0  3.171278226473898 1.513834679421695 0  3.345066393699587 1.51759959054938 0  3.522234533769812 1.522234533769813 0  3.517599590549381 1.345066393699587 0  3.513834679421695 1.171278226473898 0  3.512315926772291 1 0  2.305917977217734 1 0  2.486165320578305 1.171278226473898 0  2.659590949023722 1.340409050976277 0  2.828721773526102 1.513834679421695 0  3 1.694082022782266 0  3.173807764994749 1.695231059978995 0  3.349151095281001 1.698302190562003 0  3.526872638125796 1.702496850834395 0  3.707106781186702 1.707106781186702 0  3.702496850834395 1.526872638125796 0  3.698302190562003 1.349151095281002 0  3.695231059978995 1.173807764994749 0  3.694082022782266 1 0  2.304768940021005 1.173807764994749 0  2.482400409450619 1.345066393699587 0  2.654933606300413 1.51759959054938 0  2.826192235005251 1.695231059978995 0  2.301697809437997 1.349151095281002 0  2.477765466230188 1.522234533769813 0  2.650848904718999 1.698302190562003 0  2.297503149165605 1.526872638125796 0  2.473127361874204 1.702496850834395 0  2.292893218813298 1.707106781186702 0  2 4.694082022782266 0  1.826192235005251 4.695231059978995 0  2 4.512315926772291 0  1.650848904718999 4.698302190562003 0  1.828721773526102 4.513834679421695 0  2 4.333668617296997 0  1.473127361874204 4.702496850834395 0  1.654933606300413 4.517599590549381 0  1.832075157123596 4.335849685752808 0  2 4.159954966914746 0  1.292893218813298 4.707106781186702 0  1.477765466230187 4.522234533769812 0  1.659590949023723 4.340409050976278 0  1.836584264135747 4.163415735864253 0  2 4 0  1.297503149165605 4.526872638125797 0  1.48240040945062 4.345066393699587 0  1.664150314247192 4.167924842876404 0  1.840045033085254 4 0  2 3.840045033085254 0  2.163415735864253 3.836584264135747 0  2.159954966914746 4 0  1.301697809437997 4.349151095281002 0  1.486165320578305 4.171278226473898 0  1.666331382703003 4 0  1.836584264135747 3.836584264135747 0  2 3.666331382703003 0  2.167924842876404 3.664150314247192 0  2.340409050976278 3.659590949023722 0  2.335849685752808 3.832075157123596 0  2.333668617296997 4 0  1.304768940021005 4.173807764994748 0  1.487684073227709 4 0  1.664150314247192 3.832075157123596 0  1.832075157123596 3.664150314247192 0  2 3.487684073227709 0  2.171278226473898 3.486165320578305 0  2.345066393699587 3.482400409450619 0  2.522234533769812 3.477765466230188 0  2.517599590549381 3.654933606300413 0  2.513834679421695 3.828721773526102 0  2.512315926772291 4 0  1.305917977217734 4 0  1.486165320578305 3.828721773526102 0  1.659590949023723 3.659590949023722 0  1.828721773526102 3.486165320578305 0  2 3.305917977217734 0  2.173807764994749 3.304768940021005 0  2.349151095281001 3.301697809437997 0  2.526872638125796 3.297503149165605 0  2.707106781186702 3.292893218813298 0  2.702496850834395 3.473127361874204 0  2.698302190562003 3.650848904718999 0  2.695231059978995 3.826192235005251 0  2.694082022782266 4 0  1.304768940021005 3.826192235005251 0  1.48240040945062 3.654933606300413 0  1.654933606300413 3.482400409450619 0  1.826192235005251 3.304768940021005 0  1.301697809437997 3.650848904718999 0  1.477765466230187 3.477765466230188 0  1.650848904718998 3.301697809437997 0  1.297503149165605 3.473127361874204 0  1.473127361874204 3.297503149165605 0  1.292893218813298 3.292893218813298 0  -6 5.694082022782266 0  -5.826192235005252 5.695231059978995 0  -6 5.512315926772291 0  -5.650848904718998 5.698302190562003 0  -5.828721773526102 5.513834679421695 0  -6 5.333668617296997 0  -5.473127361874203 5.702496850834395 0  -5.654933606300413 5.517599590549381 0  -5.832075157123596 5.335849685752808 0  -6 5.159954966914746 0  -5.292893218813298 5.707106781186702 0  -5.477765466230188 5.522234533769812 0  -5.659590949023722 5.340409050976278 0  -5.836584264135747 5.163415735864253 0  -6 5 0  -5.297503149165605 5.526872638125797 0  -5.482400409450619 5.345066393699587 0  -5.664150314247192 5.167924842876404 0  -5.840045033085254 5 0  -6 4.840045033085254 0  -6.163415735864253 4.836584264135747 0  -6.159954966914746 5 0  -5.301697809437997 5.349151095281002 0  -5.486165320578305 5.171278226473898 0  -5.666331382703003 5 0  -5.836584264135747 4.836584264135747 0  -6 4.666331382703003 0  -6.167924842876404 4.664150314247192 0  -6.340409050976278 4.659590949023722 0  -6.335849685752808 4.832075157123596 0  -6.333668617296997 5 0  -5.304768940021005 5.173807764994748 0  -5.487684073227709 5 0  -5.664150314247192 4.832075157123596 0  -5.832075157123596 4.664150314247192 0  -6 4.487684073227709 0  -6.171278226473898 4.486165320578305 0  -6.345066393699587 4.482400409450619 0  -6.522234533769812 4.477765466230188 0  -6.517599590549381 4.654933606300413 0  -6.513834679421695 4.828721773526102 0  -6.512315926772291 5 0  -5.305917977217734 5 0  -5.486165320578305 4.828721773526102 0  -5.659590949023722 4.659590949023722 0  -5.828721773526102 4.486165320578305 0  -6 4.305917977217734 0  -6.173807764994748 4.304768940021005 0  -6.349151095281002 4.301697809437997 0  -6.526872638125797 4.297503149165605 0  -6.707106781186702 4.292893218813298 0  -6.702496850834395 4.473127361874203 0  -6.698302190562003 4.650848904718998 0  -6.695231059978995 4.826192235005252 0  -6.694082022782266 5 0  -5.304768940021005 4.826192235005252 0  -5.482400409450619 4.654933606300413 0  -5.654933606300413 4.482400409450619 0  -5.826192235005252 4.304768940021005 0  -5.301697809437997 4.650848904718998 0  -5.477765466230188 4.477765466230188 0  -5.650848904718998 4.301697809437997 0  -5.297503149165605 4.473127361874203 0  -5.473127361874203 4.297503149165605 0  -5.292893218813298 4.292893218813298 0  -5 2.305917977217734 0  -4.826192235005252 2.304768940021005 0  -5 2.487684073227709 0  -4.650848904718998 2.301697809437997 0  -4.828721773526102 2.486165320578305 0  -5 2.666331382703003 0  -4.473127361874203 2.297503149165605 0  -4.654933606300413 2.482400409450619 0  -4.832075157123596 2.664150314247192 0  -5 2.840045033085254 0  -4.292893218813298 2.292893218813298 0  -4.477765466230188 2.477765466230188 0  -4.659590949023722 2.659590949023722 0  -4.836584264135747 2.836584264135747 0  -5 3 0  -4.297503149165605 2.473127361874204 0  -4.482400409450619 2.654933606300413 0  -4.664150314247192 2.832075157123596 0  -4.840045033085254 3 0  -5 3.159954966914746 0  -5.163415735864253 3.163415735864253 0  -5.159954966914746 3 0  -4.301697809437997 2.650848904718999 0  -4.486165320578305 2.828721773526102 0  -4.666331382703003 3 0  -4.836584264135747 3.163415735864253 0  -5 3.333668617296997 0  -5.167924842876404 3.335849685752808 0  -5.340409050976278 3.340409050976278 0  -5.335849685752808 3.167924842876404 0  -5.333668617296997 3 0  -4.304768940021005 2.826192235005251 0  -4.487684073227709 3 0  -4.664150314247192 3.167924842876404 0  -4.832075157123596 3.335849685752808 0  -5 3.512315926772291 0  -5.171278226473898 3.513834679421695 0  -5.345066393699587 3.517599590549381 0  -5.522234533769812 3.522234533769812 0  -5.517599590549381 3.345066393699587 0  -5.513834679421695 3.171278226473898 0  -5.512315926772291 3 0  -4.305917977217734 3 0  -4.486165320578305 3.171278226473898 0  -4.659590949023722 3.340409050976278 0  -4.828721773526102 3.513834679421695 0  -5 3.694082022782266 0  -5.173807764994748 3.695231059978995 0  -5.349151095281002 3.698302190562003 0  -5.526872638125797 3.702496850834395 0  -5.707106781186702 3.707106781186702 0  -5.702496850834395 3.526872638125796 0  -5.698302190562003 3.349151095281001 0  -5.695231059978995 3.173807764994749 0  -5.694082022782266 3 0  -4.304768940021005 3.173807764994749 0  -4.482400409450619 3.345066393699587 0  -4.654933606300413 3.517599590549381 0  -4.826192235005252 3.695231059978995 0  -4.301697809437997 3.349151095281001 0  -4.477765466230188 3.522234533769812 0  -4.650848904718998 3.698302190562003 0  -4.297503149165605 3.526872638125796 0  -4.473127361874203 3.702496850834395 0  -4.292893218813298 3.707106781186702 0  5 1 0  5 1.1875 0  4.836760252847784 1 0  4.777715803246315 1.196559610919311 0  4.839460463216996 1.347314472439327 0  5 1.375 0  4.673520505695566 1 0  4.632635625466378 1.365213346993499 0  4.556044961094186 1.171744017769988 0  4.510280758543349 1 0  4.794773055276885 1.503974827597894 0  5 1.5625 0  4.509532852384659 1.302052263620541 0  4.410856208148409 1.131488582867765 0  4.347041011391132 1 0  4.456349169075412 1.451051581694457 0  4.607229733549753 1.536976478139674 0  4.689743592565922 1.689749170841861 0  4.856245648493844 1.661305922135441 0  5 1.75 0  4.374259326167071 1.272988741846429 0  4.255464305052109 1.375617786941471
[...]
<PointData  Scalars="u"> 
<DataArray  type="Float64"  Name="u"  format="ascii">5.3448834885905448e+01  5.7462258459307279e+01  5.3642687483806505e+01  6.0812021561262561e+01  5.8725595432114822e+01  5.3736920828812089e+01  6.3522212647995381e+01  6.2863144361847993e+01  6.1205258920977585e+01  5.4774239135394993e+01  6.5659807219021431e+01  6.5565268844178732e+01  6.5735450592992237e+01  6.7267561237576530e+01  5.8582707438598973e+01  6.7474874938570181e+01  6.8081532066069130e+01  6.9866773067029825e+01  7.3551324399527815e+01  7.3063273812294824e+01  6.6287467878934066e+01  5.4304289165744741e+01  6.9591938583428487e+01  7.1209987967547121e+01  7.3841844022981363e+01  7.5715298394417516e+01  7.2805465337007647e+01  6.8326881137323042e+01  6.3689170017215901e+01  5.9723325719551454e+01  5.2777228076107008e+01  7.1879015202204897e+01  7.3915018173340385e+01  7.5987828627726770e+01  7.5459619605731490e+01  7.2294060158422212e+01  6.9069240798461820e+01  6.5428152001707247e+01  6.2413187562652375e+01  6.0323848309990630e+01  5.6754814223678608e+01  5.2202997408582881e+01  7.4053692678315159e+01  7.5742208629387420e+01  7.6229995491217281e+01  7.4647413770602483e+01  7.1815818921161821e+01  6.9105387370425873e+01  6.6293340388791691e+01  6.3669371520127292e+01  6.1373916781106814e+01  5.9892768398666036e+01  5.7797016380365577e+01  5.5021641099321002e+01  5.1546511565029022e+01  7.5664873364137947e+01  7.6548199607594754e+01  7.5993055598607071e+01  7.3976367692328139e+01  7.6655868180808028e+01  7.6656583473313120e+01  7.5524923401328792e+01  7.7131690350649563e+01  7.6565577902389606e+01  7.7263144083123379e+01  5.9267307494416087e+01  6.3156157669582292e+01  5.9516496906543679e+01  6.6371829883055938e+01  6.4458891910999270e+01  5.9677298886873750e+01  6.8940207999333012e+01  6.8436903804456293e+01  6.6980213573191719e+01  6.0791568038329366e+01  7.0931879077875791e+01  7.0973625710101388e+01  7.1329246523293691e+01  7.3099496576042043e+01  6.4685415229601205e+01  7.2706658203280952e+01  7.3474544992044414e+01  7.5481361023691051e+01  7.9441885199217495e+01  7.9267029313370884e+01  7.2716373241776907e+01  6.0594353540414602e+01  7.4779094612462075e+01  7.6595047188135382e+01  7.9483230337234147e+01  8.1675032156286562e+01  7.9140299536740457e+01  7.4922328667150225e+01  7.0515447567392116e+01  6.6350657392070772e+01  5.9240233515492733e+01  7.7017862303167547e+01  7.9284991001373797e+01  8.1659104560367965e+01  8.1497715788864724e+01  7.8792419659262976e+01  7.5878645423159128e+01  7.2496438751330231e+01  6.9683993175826700e+01  6.7326531456746949e+01  6.3541138666137037e+01  5.8804852753097400e+01  7.9143426310053925e+01  8.1102722779496972e+01  8.1940143988178733e+01  8.0797615873007885e+01  7.8517779262418770e+01  7.6163695799815599e+01  7.3652506765410592e+01  7.1257037242580637e+01  6.9104206250928698e+01  6.7296873728444609e+01  6.4925243005416007e+01  6.1917408433042212e+01  5.8246049289884546e+01  8.0690082190501045e+01  8.1889529397399983e+01  8.1747490789451376e+01  8.0255956599267819e+01  8.1612739580802725e+01  8.1990344749250355e+01  8.1341737182672404e+01  8.2012180471854990e+01  8.1883244542543949e+01  8.2068658276143864e+01  5.3653077535541193e+01  5.7852537136225166e+01  5.3730488089894408e+01  6.1392234724587304e+01  5.9010450817719416e+01  5.3685306218431705e+01  6.4293852758357929e+01  6.3358467361299724e+01  6.1370062631441961e+01  5.4559799064294516e+01  6.6620024394421137e+01  6.6270998651939593e+01  6.6128045228258756e+01  6.7283752175740915e+01  5.8186930733059583e+01  6.8394244441823332e+01  6.8715246320476354e+01  7.0142520483482429e+01  7.3405104383044829e+01  7.2451220648467128e+01  6.5416768010707131e+01  5.3680665648137392e+01  7.0462722796715923e+01  7.1750900692996012e+01  7.3980324417193202e+01  7.5375795457219937e+01  7.1909313299750195e+01  6.7150948860869960e+01  6.2260715557347503e+01  5.8612660316597044e+01  5.1930461649610429e+01  7.2692056077664617e+01  7.4355049236152055e+01  7.5963154618991439e+01  7.4880809714127935e+01  7.1036952141408108e+01  6.7507829115065377e+01  6.3610169085463184e+01  6.0392097406295299e+01  5.8686960864270475e+01  5.5437710977261844e+01  5.1156997493895453e+01  7.4794487711517291e+01  7.6053771363610494e+01  7.5999685599168174e+01  7.3744997289319727e+01  7.0105820639415043e+01  6.7076247508350491e+01  6.4009390811778232e+01  6.1195152765070226e+01  5.8769590570594566e+01  5.7714626470253194e+01  5.5988869189346197e+01  5.3531782674103496e+01  5.0329993531247787e+01  7.6330489483809259e+01  7.6712418189656276e+01  7.5502089493197843e+01  7.2668035652060723e+01  7.7224680085184858e+01  7.6614229254727249e+01  7.4689462453014599e+01  7.7577536725043586e+01  7.6269575394062485e+01  7.7530918400381637e+01  6.0458826814309909e+01  6.4369703012086944e+01  6.0709544086068767e+01  6.7594000127007817e+01  6.5667712964557154e+01  6.0873508367573443e+01  7.0159615694062254e+01  6.9645719227350909e+01  6.8182481996585039e+01  6.1991445243213562e+01  7.2139416582616462e+01  7.2170896853862885e+01  7.2522869850199797e+01  7.4296035121284433e+01  6.5889246729081336e+01  7.3881283727136818e+01  7.4644150369685619e+01  7.6655491519229017e+01  8.0628676174858015e+01  8.0472602222392936e+01  7.3929343448717489e+01  6.1791328212479627e+01  7.5915189855329601e+01  7.7733557575765346e+01  8.0633158648954975e+01  8.2848514775626057e+01  8.0343072585006624e+01  7.6150910625710381e+01  7.1729893592541885e+01  6.7535148505333922e+01  6.0398534118840765e+01  7.8107992054982063e+01  8.0382152954288244e+01  8.2775190000455254e+01  8.2643350566356816e+01  7.9982165278756398e+01  7.7126060177036337e+01  7.3749990288363790e+01  7.0872600392886099e+01  6.8465361295592885e+01  6.4644752617837440e+01  5.9882596890153614e+01  8.0178392369471325e+01  8.2147942382995893e+01  8.3007635555998448e+01  8.1900928874319376e+01  7.9678344576368019e+01  7.7417546876246888e+01  7.4948894069396303e+01  7.2511605071418742e+01  7.0197475634146556e+01  6.8332927845737331e+01  6.5921056899806828e+01  6.2885123703386718e+01  5.9192839463308189e+01  8.1652349461494111e+01  8.2861379896465039e+01  8.2739164431534917e+01  8.1284510468893828e+01  8.2482881846729725e+01  8.2863838229810355e+01  8.2225826883304293e+01  8.2762169502633554e+01  8.2619111653395137e+01  8.2663207281931619e+01  4.8490567684132138e+01  4.9523178495222623e+01  4.8827198936686301e+01  5.0225238065299983e+01  5.0917551234296283e+01  5.0489691734493874e+01  4.9190659249204593e+01  5.1817798359679188e+01  5.0766528961659660e+01  4.9549004234540448e+01  5.1934294453908493e+01  5.1381039429829976e+01  5.1900507335886353e+01  5.0930431392960450e+01  4.9929587442834844e+01  5.3228106831395806e+01  5.2990411277240753e+01  5.3367128930387722e+01  5.2426881017926554e+01  5.2134934737472982e+01  5.2272441239115565e+01  5.3747030994190844e+01  5.4308740450167726e+01  5.4860067353165512e+01  5.5031573486806529e+01  5.4218597070428658e+01  5.3494234643699137e+01  5.2780932051093053e+01  5.1571597035814634e+01  5.0333836230272325e+01  5.4147202173488658e+01  5.5324619307504776e+01  5.6645675025453556e+01  5.6409521121170592e+01  5.5686485415101856e+01  5.4972115942995210e+01  5.3567048857260311e+01  5.3278800721260716e+01  5.4181878446563822e+01  5.2477707296276748e+01  5.0728242434394026e+01  5.7636524690285377e+01  5.8277635434817810e+01  5.7955638682953470e+01  5.6788542748818500e+01  5.5897576808355581e+01  5.5242745100363457e+01  5.4304623773223021e+01  5.4005068329944393e+01  5.3634044618300983e+01  5.5954933326911636e+01  5.6797918583078520e+01  5.3923025926772972e+01  5.1109333525003052e+01  6.0077908159772733e+01  5.9119234010396312e+01  5.9917480649256682e+01  5.7774652740416876e+01  5.5524428496391749e+01  5.4960825259344972e+01  5.1623207231790751e+01  5.9876136409337839e+01  5.9351539637701229e+01  5.8031224285079524e+01  5.7161013313815005e+01  5.6289323300775180e+01  5.5885472005351360e+01  5.5315969921164154e+01  5.4653415152844431e+01  5.4262115074753879e+01  5.3864534149781555e+01  6.2065328174782259e+01  6.1273186472314862e+01  6.1362113193592400e+01  6.1374560586868100e+01  6.1142388283924156e+01  5.9891470708415284e+01  5.8176143988419298e+01  5.7300470959102896e+01  5.6956310942285867e+01  5.6106638064892806e+01  5.4968373997408456e+01  5.4599896451095255e+01  5.3953358206037116e+01  6.3920886361309996e+01  6.3941723686583437e+01  6.2818444694386713e+01  6.1876146231662098e+01  6.0199949025240578e+01  5.8849221337069103e+01  5.7851385055978177e+01  5.6880361551223309e+01  5.5937028417766548e+01  5.5323466484122314e+01  5.4539016401108967e+01  5.3915855246288785e+01  6.3667199239540189e+01  6.6415702345104208e+01  6.5841722611855459e+01  6.4108194539992994e+01  6.3905116642678230e+01  6.2333915591707260e+01  6.0588995400593816e+01  5.8800313794353279e+01  5.8175856961224731e+01  5.7576246711255152e+01  5.6809674595455263e+01  5.5896643608308807e+01  5.4948191953258615e+01  5.3770470721528021e+01  6.5708865844829603e+01  6.6337707750355975e+01  6.8168482445783667e+01  6.8401936999949498e+01  6.7578798798070906e+01  6.6874458994918854e+01  6.5447709671187013e+01  6.5204015471486613e+01  6.4633194390818133e+01  6.2879557372601589e+01  6.3391775436413070e+01  6.1086236078141766e+01  5.9447974391543880e+01  5.8307139170912123e+01  5.7743689429079737e+01  5.6732164127682061e+01  5.5306236468370003e+01  5.5888988933890062e+01  5.4421831468671250e+01  5.3520941799893741e+01  6.9154467159961683e+01  6.9858492446328270e+01  7.1159163087685201e+01  7.1781541092665591e+01  6.9961238279669132e+01  6.9049457407100888e+01  6.8810329178646796e+01  6.6686190941529290e+01  6.5922511166879161e+01  6.4869459252898267e+01  6.3633010599285271e+01  6.1840109010894103e+01  6.0153490853118548e+01  5.9429306632116123e+01  5.8705268409517281e+01  5.7353894994176969e+01  5.6057107397639413e+01  5.5770262824026048e+01  5.5039283041407572e+01  5.4180146850500968e+01  5.3178507230012144e+01  7.3241284918014188e+01  7.1632398115194746e+01  7.0532376012491355e+01  7.0581112553678736e+01  6.9556079957000946e+01  6.7851010193890758e+01  6.6930647423527660e+01  6.6491310539736531e+01  6.4310622092524454e+01  6.3254689627425556e+01  6.1727166353790764e+01  6.0219672047199786e+01  5.8627146302461739e+01  5.7264903691747328e+01  5.6194630002493703e+01  5.5337464616566763e+01  5.4506949254810621e+01  5.3612494606081462e+01  5.2766479293963307e+01  7.3025195784636495e+01  7.3963039181288977e+01  7.4961697548220840e+01  7.4539884673232095e+01  7.5502928448973393e+01  7.4515198795283993e+01  7.3377742369378240e+01  7.2074509017317737e+01  7.2381899324473935e+01  7.1080755991422635e+01  6.9031466537105928e+01  6.8616502236507813e+01  6.7719227771417678e+01  6.6136575244912308e+01  6.7670550438393320e+01  6.4988172163749283e+01  6.3103777871646265e+01  6.2768232066736346e+01  6.0947194756132802e+01  5.9603539841010893e+01  5.8831949193345295e+01  5.7396358230685195e+01  5.7956828930947928e+01  5.6367027361320325e+01  5.5364340543079607e+01  5.4608614725170206e+01  5.3750900001681636e+01  5.3000287409960436e+01  5.2280712724705161e+01  7.5874679512610356e+01  7.6537671124747007e+01  7.6206223514616113e+01  7.5101748242866663e+01  7.3679976613236562e+01  7.3606381135145497e+01  7.2444762622341472e+01  7.0757640625428849e+01  7.0343582483028470e+01  6.9455340776363869e+01  6.8335781699816735e+01  6.6620596002280863e+01  6.4096261733078819e+01  6.2521962639515735e+01  6.1421892034049783e+01  5.9851067954285874e+01  5.8469755050116916e+01  5.7525545733542650e+01  5.6193527117160180e+01  5.5532255369415608e+01  5.4577349200916679e+01  5.4353312229388088e+01  5.3779197584316563e+01  5.3148128038143454e+01  5.2549231606689816e+01  5.2139156079688512e+01  5.1733524396885187e+01  6.1994323369263157e+01  7.7272353595345777e+01  7.7160595639710877e+01  7.7362510111764081e+01  7.6395460016805288e+01  7.5095045653216530e+01  7.4493111167238609e+01  7.3700842291113318e+01  7.1998142784729012e+01  7.2110322803842607e+01  7.0674246052776425e+01  6.9561827907037951e+01  6.7712337402644721e+01  6.6132929125468209e+01  6.3828387893133595e+01  6.1607080656571519e+01  6.1254558235537367e+01  6.0276384666723665e+01  5.8522083540679489e+01  5.6828750436381995e+01  5.5743993253309952e+01  5.5234971968192433e+01  5.4266623725938643e+01  5.3825769336136965e+01  5.3391921522941090e+01  5.3613919266831097e+01  5.2962762554761397e+01  7.7100884222453018e+01  7.7654485839662627e+01  7.7615595784145654e+01  7.8070578748442472e+01  7.8170924360763948e+01  7.7683909752196740e+01  7.6808515632040368e+01  7.5532233307510694e+01  7.4728906330083163e+01  7.4041146745936047e+01  7.2522638045558566e+01  7.1157652741013223e+01  6.9099762636155987e+01  6.6468633397804311e+01  6.4669420452005284e+01  6.2836050015183304e+01  6.1168302114400007e+01  5.9352578966991160e+01  5.8982444313759025e+01  5.7583483538268375e+01  5.6187729930139888e+01  5.5138538207221650e+01  5.4694588315278992e+01  7.6622860036610703e+01  7.7160255177158390e+01  7.7582517365575555e+01  7.8199587361438304e+01  7.7939762450883975e+01  7.8528443904166707e+01  7.8791424473369446e+01  7.8713131709552087e+01  7.8187222766711244e+01  7.7729872176825566e+01  7.6856339336464629e+01  7.7012118222735765e+01  7.5972470538925947e+01  7.6005313667727904e+01  7.4676269783743820e+01  7.2994634925105089e+01  7.2664738381207670e+01  7.1267419794366091e+01  6.7295190695949103e+01  6.4380578757055375e+01  6.1755613381092488e+01  6.1150008036793224e+01  5.9719142229871885e+01  5.8225302672518659e+01  5.7614097284523233e+01  5.5990483392852042e+01  5.5571612246104834e+01  7.5646492329307307e+01  7.6394723922585015e+01  7.7020210623573789e+01  7.7858843269229837e+01  7.8584347332948482e+01  7.8781057492757981e+01  7.9161845162694604e+01  7.9273013905448877e+01  7.9030808522177182e+01  7.7915673704945391e+01  7.8511316334329038e+01  7.7455304746016424e+01  7.7021378467325093e+01  7.6082378531981263e+01  7.4414616055669441e+01  7.3692645091959093e+01  6.4872308097964435e+01  6.1836828763137994e+01  6.0362123167126363e+01  5.9560192506104336e+01  5.7238995486207344e+01  5.6798991277086373e+01  5.6420926971813188e+01  7.5555922046198575e+01  7.6304340606277592e+01  7.6322532717334198e+01  7.7569166565529855e+01  7.8115331674312756e+01  7.8621294992274727e+01  7.9103381934019907e+01  7.9175715498442642e+01  7.9691827341486416e+01  7.9601730617746185e+01  7.9698590880427901e+01  7.9876438704293221e+01  7.9615381682049772e+01  7.9491874366267282e+01  7.9404675311358972e+01  7.8470547885543397e+01  7.7938853076972876e+01  7.6718962655084141e+01  7.6245784855226873e+01  7.4062689662500134e+01  7.8702490724762299e+01  5.8345226124020023e+01  5.7959258278745246e+01  5.7598747216516294e+01  7.5289489152796506e+01  7.5472782392109224e+01  7.5415076966254347e+01  7.6943144349005948e+01  7.7608254834022134e+01  7.7843062645580133e+01  7.8698792829656981e+01  7.9179372483379225e+01  7.9569784500995155e+01  7.9850213832050102e+01  8.0163909903809028e+01  8.0172076786457751e+01  8.0661362277565743e+01  8.0200360367813971e+01  8.0336716640285687e+01  8.0197745278026233e+01  8.0120765175534586e+01  7.9130281742694393e+01  7.9319404392581873e+01  7.8107357666500320e+01  7.8497806067447414e+01  7.4381031851038927e+01  7.1912605199629240e+01  7.9940799178769737e+01  7.3416538659844733e+01  7.1328825476190616e+01  6.9628768078690555e+01  7.4119737327481744e+01  7.3895128387952198e+01  7.5160734168365977e+01  7.6131998507085228e+01  7.6867064378602038e+01  7.7502732578007780e+01  7.8037567884421890e+01  7.8713456278869785e+01  7.9150172254180845e+01  7.9700841509346745e+01  8.0070119343388882e+01  8.0718897581875837e+01  8.0631729946581686e+01  8.1094969016612993e+01  8.1297245415655027e+01  8.0864990819228851e+01  8.0824919572167161e+01  8.0918275907433383e+01  8.0602312194686945e+01  8.0233016058287205e+01  7.2454437002299997e+01  6.9922968364920564e+01  6.7505841538269863e+01  7.3128988991195286e+01  7.3752628436845811e+01  7.4895988441800000e+01  7.5836452299503705e+01  7.5953737138989055e+01  7.6952938601602199e+01  7.7574908984811941e+01  7.8178565679322489e+01  7.8891541374757821e+01  7.9487725811417548e+01  7.9827171169920661e+01  8.0195941999088845e+01  8.0637762552070271e+01  8.1008500782494977e+01  8.1101520262244378e+01  8.1436917362740843e+01  8.1679503817119269e+01  8.1621428689090408e+01  8.1316958256948752e+01  8.1326746093711364e+01  8.1692555362971078e+01  8.1377172700073601e+01  8.1316241302865947e+01  7.1915339479279581e+01  7.8533748555718020e+01  8.1391499519718096e+01  7.0826154102463931e+01  6.8323150805671702e+01  6.5675112814566901e+01  7.2803633650428978e+01  7.4095765407063581e+01  7.5067475903093808e+01  7.5052241562892505e+01  7.6134250960510556e+01  7.7175952491332268e+01  7.7672088952547938e+01  7.8103664588533988e+01  7.8660347529641371e+01  7.9281729902224015e+01  7.9991853513087435e+01  8.0464465347323014e+01  8.0203719794925519e+01  8.0962969569915870e+01  8.1361060195515108e+01  8.1652860127260581e+01  8.1698454895372308e+01  8.1883933410694482e+01  8.1928965574436219e+01  8.1818565240544558e+01  8.2031040259359614e+01  8.1937227885423411e+01  8.1855335205088011e+01  7.0799767335927541e+01  7.1708524703472079e+01  6.9663959555508356e+01  6.6654330602460377e+01  6.4995760043238150e+01  6.3357616660258500e+01  6.3505002917058476e+01  6.8146854162924910e+01  6.9481356597150167e+01  7.0596471742285161e+01  7.2097378935058089e+01  7.3029447705814860e+01  7.4231451737728776e+01  7.4448018044429418e+01  7.5501024710790759e+01  7.6715646247933336e+01  7.7547798574847477e+01  7.8255375503055092e+01  7.8807405044844842e+01  7.9425499016537117e+01  7.9873802129453793e+01  8.0367335463362025e+01  8.0771837652508822e+01  8.1114788708706598e+01  8.1303937405644248e+01  8.1588223400645120e+01  8.1807431819983762e+01  8.1888777826337659e+01  8.2026486617593562e+01  8.2094811254442277e+01  8.2121315879954381e+01  8.2077140934067501e+01  6.5847506368663701e+01  6.8082818381840539e+01  6.9074867206475361e+01  6.9699857456956451e+01  7.1213875839291461e+01  7.2497497443025551e+01  7.3375897815980323e+01  7.3131314885812102e+01  7.4196207253438899e+01  7.5105548056325404e+01  7.6314216887788533e+01  7.6963589522591946e+01  7.7336135033517564e+01  7.7946518732873130e+01  7.8543887233689176e+01  7.9023222272101165e+01  7.9649011054919256e+01  8.0197999579873141e+01  8.0643991329875277e+01  8.1116350878818309e+01  8.1379267479809656e+01  8.1564342653689891e+01  8.1783163955524671e+01  8.1944192613371186e+01  8.2029040934038122e+01  8.2117045696960645e+01  8.2112963228363384e+01  8.1915864263117996e+01  8.1999299330842064e+01  6.4824108705043201e+01  6.3674161940873802e+01  6.0865875073260973e+01  5.9962579732780824e+01  6.0739324529223836e+01  6.7520442151750586e+01  6.8200786050848038e+01  6.8802467225816358e+01  7.0376825630830496e+01  7.1851040653015403e+01  7.2340756033613019e+01  7.2619263389237304e+01  7.3420314167901992e+01  7.3524455104770141e+01  7.4816970923309768e+01  7.5599215117871935e+01  7.6169092087057834e+01  7.6730067012647098e+01  7.7360681231374784e+01  7.7912721560285732e+01  7.8646249473768535e+01  7.9132353579148827e+01  7.9512511406854841e+01  7.9891201087118006e+01  8.0183269212790378e+01  8.0596735211249040e+01  8.1034875528682576e+01  8.1283233327507162e+01  8.1517490274980489e+01  8.1712791032506743e+01  8.1862373246192092e+01  8.1958458422564675e+01  8.2016797533338647e+01  8.2063320843619294e+01  8.2059052792830869e+01  8.1936574954629450e+01  8.1597359897442090e+01  8.1517067177050180e+01  8.1725903527647958e+01  8.1595392075478074e+01  5.7374817675660744e+01  5.6512610394009172e+01  5.7316876045657722e+01  6.9808835445123862e+01  7.1285059227702561e+01  7.1703233493678042e+01  7.2754317130785950e+01  7.3686928175757785e+01  7.4464238559399831e+01  7.5069275979943413e+01  7.5714306187739837e+01  7.6350337647037009e+01  7.7079429072226503e+01  7.7517759720294293e+01  7.7991270632066644e+01  7.8772686742221936e+01  7.9410304271764375e+01  7