<?xml version="1.0"?>
<VTKFile type="UnstructuredGrid"  version="0.1"  >
<UnstructuredGrid>
<Piece  NumberOfPoints="3984" NumberOfCells="7356">
<Points>
<DataArray  type="Float64"  NumberOfComponents="3"  format="ascii">3 0.504901692839906 0  2.870592087154655 0.4823683486186197 0  3 0.801932550640429 0  2.712819609700631 0.425639219401261 0  2.923581848878968 0.7707455466369024 0  3 0.969048513443635 0  2.517702506464375 0.3569366752858338 0  2.793348253300635 0.6900223799509527 0  2.976138185262463 0.9522763705249254 0  3 0.9990234747496692 0  2.292893218813733 0.2928932188137324 0  2.596341378041969 0.5963413780419684 0  2.889665833804265 0.8896658338042651 0  2.996096130844971 0.996096130844971 0  3 1 0  2.356936675285834 0.5177025064643754 0  2.690022379950953 0.7933482533006351 0  2.952276370524925 0.9761381852624627 0  2.999023474749669 1 0  3 1.000976525250331 0  3.003903869155029 1.003903869155029 0  3.000976525250331 1 0  2.425639219401261 0.7128196097006305 0  2.770745546636902 0.9235818488789674 0  2.969048513443635 1 0  2.996096130844971 1.003903869155029 0  3 1.030951486556365 0  3.023861814737537 1.047723629475075 0  3.110334166195735 1.110334166195735 0  3.047723629475075 1.023861814737537 0  3.030951486556365 1 0  2.482368348618619 0.8705920871546549 0  2.801932550640429 1 0  2.952276370524925 1.023861814737537 0  2.976138185262463 1.047723629475075 0  3 1.198067449359571 0  3.076418151121032 1.229254453363098 0  3.206651746699365 1.309977620049047 0  3.403658621958031 1.403658621958032 0  3.309977620049047 1.206651746699365 0  3.229254453363098 1.076418151121032 0  3.198067449359571 1 0  2.504901692839906 1 0  2.770745546636902 1.076418151121032 0  2.889665833804265 1.110334166195735 0  2.923581848878968 1.229254453363098 0  3 1.495098307160094 0  3.129407912845345 1.517631651381381 0  3.287180390299369 1.574360780598739 0  3.482297493535625 1.643063324714166 0  3.707106781186268 1.707106781186268 0  3.643063324714166 1.482297493535625 0  3.574360780598739 1.287180390299369 0  3.517631651381381 1.129407912845345 0  3.495098307160094 1 0  2.482368348618619 1.129407912845345 0  2.690022379950953 1.206651746699365 0  2.793348253300635 1.309977620049047 0  2.870592087154655 1.517631651381381 0  2.425639219401261 1.287180390299369 0  2.596341378041969 1.403658621958032 0  2.712819609700631 1.574360780598739 0  2.356936675285834 1.482297493535625 0  2.517702506464375 1.643063324714166 0  2.292893218813732 1.707106781186268 0  2 4.495098307160094 0  1.870592087154655 4.517631651381381 0  2 4.198067449359571 0  1.712819609700631 4.574360780598739 0  1.923581848878968 4.229254453363097 0  2 4.030951486556365 0  1.517702506464375 4.643063324714166 0  1.793348253300635 4.309977620049048 0  1.976138185262463 4.047723629475074 0  2 4.000976525250331 0  1.292893218813733 4.707106781186267 0  1.596341378041968 4.403658621958032 0  1.889665833804265 4.110334166195734 0  1.996096130844971 4.003903869155029 0  2 4 0  1.356936675285834 4.482297493535625 0  1.690022379950953 4.206651746699364 0  1.952276370524925 4.023861814737537 0  1.999023474749669 4 0  2 3.999023474749669 0  2.003903869155029 3.996096130844971 0  2.000976525250331 4 0  1.425639219401261 4.28718039029937 0  1.770745546636902 4.076418151121032 0  1.969048513443635 4 0  1.996096130844971 3.996096130844971 0  2 3.969048513443635 0  2.023861814737537 3.952276370524925 0  2.110334166195735 3.889665833804265 0  2.047723629475075 3.976138185262463 0  2.030951486556365 4 0  1.482368348618619 4.129407912845346 0  1.801932550640429 4 0  1.952276370524925 3.976138185262463 0  1.976138185262463 3.952276370524925 0  2 3.801932550640429 0  2.076418151121032 3.770745546636902 0  2.206651746699365 3.690022379950953 0  2.403658621958031 3.596341378041969 0  2.309977620049047 3.793348253300635 0  2.229254453363098 3.923581848878968 0  2.198067449359571 4 0  1.504901692839906 4 0  1.770745546636902 3.923581848878968 0  1.889665833804265 3.889665833804265 0  1.923581848878968 3.770745546636902 0  2 3.504901692839906 0  2.129407912845345 3.482368348618619 0  2.287180390299369 3.425639219401261 0  2.482297493535625 3.356936675285834 0  2.707106781186268 3.292893218813732 0  2.643063324714166 3.517702506464375 0  2.574360780598739 3.712819609700631 0  2.517631651381381 3.870592087154655 0  2.495098307160094 4 0  1.482368348618619 3.870592087154655 0  1.690022379950953 3.793348253300635 0  1.793348253300635 3.690022379950953 0  1.870592087154655 3.482368348618619 0  1.425639219401261 3.712819609700631 0  1.596341378041968 3.596341378041969 0  1.712819609700631 3.425639219401261 0  1.356936675285834 3.517702506464375 0  1.517702506464375 3.356936675285834 0  1.292893218813732 3.292893218813732 0  -6 5.495098307160094 0  -5.870592087154655 5.517631651381381 0  -6 5.198067449359571 0  -5.712819609700631 5.574360780598739 0  -5.923581848878968 5.229254453363097 0  -6 5.030951486556365 0  -5.517702506464375 5.643063324714166 0  -5.793348253300636 5.309977620049048 0  -5.976138185262463 5.047723629475074 0  -6 5.000976525250331 0  -5.292893218813733 5.707106781186267 0  -5.596341378041968 5.403658621958032 0  -5.889665833804266 5.110334166195734 0  -5.996096130844971 5.003903869155029 0  -6 5 0  -5.356936675285834 5.482297493535625 0  -5.690022379950952 5.206651746699364 0  -5.952276370524926 5.023861814737537 0  -5.999023474749669 5 0  -6 4.999023474749669 0  -6.003903869155029 4.996096130844971 0  -6.000976525250331 5 0  -5.425639219401261 5.28718039029937 0  -5.770745546636903 5.076418151121032 0  -5.969048513443635 5 0  -5.996096130844971 4.996096130844971 0  -6 4.969048513443635 0  -6.023861814737537 4.952276370524926 0  -6.110334166195734 4.889665833804266 0  -6.047723629475074 4.976138185262463 0  -6.030951486556365 5 0  -5.482368348618619 5.129407912845346 0  -5.801932550640429 5 0  -5.952276370524926 4.976138185262463 0  -5.976138185262463 4.952276370524926 0  -6 4.801932550640429 0  -6.076418151121032 4.770745546636903 0  -6.206651746699364 4.690022379950952 0  -6.403658621958032 4.596341378041968 0  -6.309977620049048 4.793348253300636 0  -6.229254453363097 4.923581848878968 0  -6.198067449359571 5 0  -5.504901692839906 5 0  -5.770745546636903 4.923581848878968 0  -5.889665833804266 4.889665833804266 0  -5.923581848878968 4.770745546636903 0  -6 4.504901692839906 0  -6.129407912845346 4.482368348618619 0  -6.28718039029937 4.425639219401261 0  -6.482297493535625 4.356936675285834 0  -6.707106781186267 4.292893218813733 0  -6.643063324714166 4.517702506464375 0  -6.574360780598739 4.71281960970063 0  -6.517631651381381 4.870592087154654 0  -6.495098307160094 5 0  -5.482368348618619 4.870592087154654 0  -5.690022379950952 4.793348253300636 0  -5.793348253300636 4.690022379950952 0  -5.870592087154654 4.482368348618619 0  -5.425639219401261 4.71281960970063 0  -5.596341378041968 4.596341378041968 0  -5.71281960970063 4.425639219401261 0  -5.356936675285834 4.517702506464375 0  -5.517702506464375 4.356936675285834 0  -5.292893218813733 4.292893218813733 0  -5 2.504901692839906 0  -4.870592087154655 2.482368348618619 0  -5 2.801932550640429 0  -4.712819609700631 2.425639219401261 0  -4.923581848878968 2.770745546636902 0  -5 2.969048513443635 0  -4.517702506464375 2.356936675285834 0  -4.793348253300636 2.690022379950953 0  -4.976138185262463 2.952276370524925 0  -5 2.999023474749669 0  -4.292893218813733 2.292893218813732 0  -4.596341378041968 2.596341378041969 0  -4.889665833804266 2.889665833804265 0  -4.996096130844971 2.996096130844971 0  -5 3 0  -4.356936675285834 2.517702506464375 0  -4.690022379950952 2.793348253300635 0  -4.952276370524926 2.976138185262463 0  -4.999023474749669 3 0  -5 3.000976525250331 0  -5.003903869155029 3.003903869155029 0  -5.000976525250331 3 0  -4.425639219401261 2.712819609700631 0  -4.770745546636903 2.923581848878968 0  -4.969048513443635 3 0  -4.996096130844971 3.003903869155029 0  -5 3.030951486556365 0  -5.023861814737537 3.047723629475075 0  -5.110334166195734 3.110334166195735 0  -5.047723629475074 3.023861814737537 0  -5.030951486556365 3 0  -4.482368348618619 2.870592087154655 0  -4.801932550640429 3 0  -4.952276370524926 3.023861814737537 0  -4.976138185262463 3.047723629475075 0  -5 3.198067449359571 0  -5.076418151121032 3.229254453363098 0  -5.206651746699364 3.309977620049047 0  -5.403658621958032 3.403658621958031 0  -5.309977620049048 3.206651746699365 0  -5.229254453363097 3.076418151121032 0  -5.198067449359571 3 0  -4.504901692839906 3 0  -4.770745546636903 3.076418151121032 0  -4.889665833804266 3.110334166195735 0  -4.923581848878968 3.229254453363098 0  -5 3.495098307160094 0  -5.129407912845346 3.517631651381381 0  -5.28718039029937 3.574360780598739 0  -5.482297493535625 3.643063324714166 0  -5.707106781186267 3.707106781186268 0  -5.643063324714166 3.482297493535625 0  -5.574360780598739 3.287180390299369 0  -5.517631651381381 3.129407912845345 0  -5.495098307160094 3 0  -4.482368348618619 3.129407912845345 0  -4.690022379950952 3.206651746699365 0  -4.793348253300636 3.309977620049047 0  -4.870592087154654 3.517631651381381 0  -4.425639219401261 3.287180390299369 0  -4.596341378041968 3.403658621958031 0  -4.71281960970063 3.574360780598739 0  -4.356936675285834 3.482297493535625 0  -4.517702506464375 3.643063324714166 0  -4.292893218813733 3.707106781186268 0  5 1 0  4.83038291558927 1.060287186691953 0  5 1.1875 0  4.660765831178542 1.120574373383906 0  4.752051342018341 1.352229284786525 0  5 1.375 0  4.491148746767813 1.180861560075859 0  4.4322882905522 1.432262198034769 0  4.613242116355901 1.55893932648076 0  5 1.5625 0  4.321531662357083 1.241148746767812 0  4.219575161945451 1.491797959243029 0  4.23268619585246 1.762072368835434 0  4.493304945754296 1.792284526517738 0  4.746989430303032 1.775180020690435 0  5 1.75 0  3.982297493535625 1.361723120151718 0  3.966678612559707 1.765358815105942 0  4.001984264978835 2.029033512423678 0  4.337442301453079 2.02507858124129 0  4.620523510659621 2.0217
[...]
<PointData  Scalars="u"> 
<DataArray  type="Float64"  Name="u"  format="ascii">5.3444194775071843e+01  5.7349196470559605e+01  5.3742322174414632e+01  6.0704999284019380e+01  5.8137116049500960e+01  5.3055980321084526e+01  6.3461356387236087e+01  6.2123381976883081e+01  5.8175722195905465e+01  8.5489224644928086e+01  6.5656978063025704e+01  6.5173500858077858e+01  6.3675781847346926e+01  7.4179549542111261e+01  3.9887850680525474e+01  6.7415170892659944e+01  6.7238641025547878e+01  6.7365221230114528e+01  4.7119922743405148e+01  4.7356073480529219e+01  8.0645593010917949e+01  8.5430004386208580e+01  6.9394715360443172e+01  6.9616581351482267e+01  7.3190976245450514e+01  6.5328508116774003e+01  7.3043498569369362e+01  6.7128949854709916e+01  6.3251338784926880e+01  5.7955862722715743e+01  5.2967734537452138e+01  7.1486001488463060e+01  7.2186897880351339e+01  7.4394207776838527e+01  7.4365266402996951e+01  7.1586778209457108e+01  6.8688170354647468e+01  6.5671288501182843e+01  6.2790536234202364e+01  6.0593183517505651e+01  5.7109997864397080e+01  5.3162221375060085e+01  7.3552508342417710e+01  7.4308659578941231e+01  7.4980750113143102e+01  7.3848664980661837e+01  7.1989600426593199e+01  6.9458732344687306e+01  6.6712678805802767e+01  6.3945837446759271e+01  6.1370130096225729e+01  6.0134204958095069e+01  5.8205579976434251e+01  5.5499244587302520e+01  5.2049480135302652e+01  7.5112615754202409e+01  7.5583399845820708e+01  7.5255907109579013e+01  7.3875100342014008e+01  7.6216305074343055e+01  7.6157999719091677e+01  7.5292031847145694e+01  7.6884906037088342e+01  7.6365801755065533e+01  7.7254364554761082e+01  5.9326420772211989e+01  6.3115427808034532e+01  5.9741687398002050e+01  6.6324877482773374e+01  6.4042597341495295e+01  5.9139687950126550e+01  6.8911639858650872e+01  6.7864588630791289e+01  6.4215813926892579e+01  9.1586947955348322e+01  7.0929513284495016e+01  7.0693415277448437e+01  6.9585748714006030e+01  8.0266869511175074e+01  4.5991220905454696e+01  7.2694744669020068e+01  7.2880658682628848e+01  7.3379615426313990e+01  5.3216737141738662e+01  5.3465337983455427e+01  8.6764760789340201e+01  9.1539616478245037e+01  7.4713624687172242e+01  7.5390222491070958e+01  7.9219122176312254e+01  7.1429323179916977e+01  7.9200094370483441e+01  7.3304550227134683e+01  6.9570994238339807e+01  6.4138655782195428e+01  5.9110927262212535e+01  7.6859218326557198e+01  7.8027299540072178e+01  8.0484784979321418e+01  8.0417240184193744e+01  7.7813342754379278e+01  7.5052094586498924e+01  7.2292488109869169e+01  6.9764607647266686e+01  6.7230712331239374e+01  6.3538403033832772e+01  5.9494586601421901e+01  7.8952304427740430e+01  8.0131634179391497e+01  8.0994323218202112e+01  7.9979024275710827e+01  7.8470303509942468e+01  7.6195077077081933e+01  7.3777807331783691e+01  7.1375590008343707e+01  6.9101469826314840e+01  6.7433315121256470e+01  6.5177049791971697e+01  6.2240082323544875e+01  5.8641709779792293e+01  8.0466906406787317e+01  8.1349518873040054e+01  8.1186704612616282e+01  8.0113390835465182e+01  8.1449274860288455e+01  8.1750254756450630e+01  8.1210073921232308e+01  8.1928906293115716e+01  8.1807204282031392e+01  8.2058935936118786e+01  5.3516860483080386e+01  5.7589110693310779e+01  5.3565547536579388e+01  6.1161186332748152e+01  5.8091475491509833e+01  5.2696211742980445e+01  6.4166323312918706e+01  6.2319491111742281e+01  5.7868314061990468e+01  8.5089477827000565e+01  6.6616344577449809e+01  6.5685770398088536e+01  6.3564808184131877e+01  7.3785988273364566e+01  3.9490786862088498e+01  6.8254308398088511e+01  6.7504372338449372e+01  6.7058189746233580e+01  4.6719916322548016e+01  4.6964061170465051e+01  8.0245783849637675e+01  8.5036020997086794e+01  7.0080047346435848e+01  6.9655274584434764e+01  7.2813227947106199e+01  6.4933136832490135e+01  7.2637320751051035e+01  6.6649716404178761e+01  6.2543746159214223e+01  5.7463437991204088e+01  5.2526423488787479e+01  7.2012159128232483e+01  7.2101704031855533e+01  7.4129581889461591e+01  7.3848888921150206e+01  7.0919335607384170e+01  6.7844842688732470e+01  6.4486218718157289e+01  6.1157935804472736e+01  5.9452258826524108e+01  5.6282976818556662e+01  5.2485425648628464e+01  7.3959828884292023e+01  7.4194007293692437e+01  7.4620694697712423e+01  7.3261266610471296e+01  7.0775375581186850e+01  6.7964141669813969e+01  6.4840102792884068e+01  6.1669375961175362e+01  5.8764799044642750e+01  5.8095380794898624e+01  5.6620909188093513e+01  5.4247520694302978e+01  5.1019774263094803e+01  7.5466301031407468e+01  7.5505874941836538e+01  7.4768808932440990e+01  7.2879353040233156e+01  7.6555285152708805e+01  7.5985024204228665e+01  7.4548959567707044e+01  7.7207629484676417e+01  7.6029137248507084e+01  7.7521502592930176e+01  6.0519868330599245e+01  6.4321134495208611e+01  6.0940152097366216e+01  6.7537905946750428e+01  6.5243657346977315e+01  6.0341621734460020e+01  7.0125856892103997e+01  6.9065228155612331e+01  6.5417299572971118e+01  9.2789473748914190e+01  7.2136857579287579e+01  7.1886676775255395e+01  7.0784371392186188e+01  8.1469308269718312e+01  4.7193782708739903e+01  7.3869106291116523e+01  7.4063955498874947e+01  7.4581003349855393e+01  5.4419363036456147e+01  5.4668020310640948e+01  8.7967524572107479e+01  9.2742236765915038e+01  7.5861439665959367e+01  7.6574491200680683e+01  8.0420963155029156e+01  7.2631952503258503e+01  8.0402754128693331e+01  7.4507838985458093e+01  7.0778319055152608e+01  6.5342905688573779e+01  6.0314359640671356e+01  7.7986277969187284e+01  7.9212296849753386e+01  8.1685261275871738e+01  8.1618720425874088e+01  7.9012362249000859e+01  7.6263663863927846e+01  7.3516443700999616e+01  7.0972717515961776e+01  6.8425305497261434e+01  6.4732321417909716e+01  6.0685992768452820e+01  8.0055583361834195e+01  8.1307119620963519e+01  8.2182845398236068e+01  8.1157118205174783e+01  7.9662500488287563e+01  7.7428697348279769e+01  7.5042577839924320e+01  7.2625396447421721e+01  7.0193788749443243e+01  6.8517671814817035e+01  6.6266438397751770e+01  6.3333674960503345e+01  5.9727854345962974e+01  8.1523394966016539e+01  8.2438349860806113e+01  8.2347662794738952e+01  8.1237815767926350e+01  8.2417966483796718e+01  8.2758585840323846e+01  8.2214434289031260e+01  8.2748557541135824e+01  8.2625677677873938e+01  8.2652383921626878e+01  4.8492114225147525e+01  4.9224122184546999e+01  4.9527638263097039e+01  5.0072219629916461e+01  5.1258575041093785e+01  5.0498879241708742e+01  5.1059786681117458e+01  5.3200406248985210e+01  5.3079997916644338e+01  5.1370810428352662e+01  5.2221881601526995e+01  5.4901004054941673e+01  5.6642146084110031e+01  5.4988385458697756e+01  5.3455881917628489e+01  5.2134543034629743e+01  5.5378227052911882e+01  5.8951805519496034e+01  5.9830002976117207e+01  5.7010690978107426e+01  5.5080148107347291e+01  5.2773107384378982e+01  5.7511489129622262e+01  6.1382054882627244e+01  6.2278650532335568e+01  6.2870880780622137e+01  6.0665031623875834e+01  5.8405653821564542e+01  5.6829504490314989e+01  5.4690442023579578e+01  5.3274483454592030e+01  6.0124134282619913e+01  6.5058066888635778e+01  6.5478248538857912e+01  6.4400890203007179e+01  6.1773032111054505e+01  5.9626905126412247e+01  5.7649474550490886e+01  5.6121970716672664e+01  5.4941551867061271e+01  5.3860526704913298e+01  6.3947607785586342e+01  6.8333487139138597e+01  6.8951081181170437e+01  6.7879760400170767e+01  6.6865256533643262e+01  6.3692234245018163e+01  6.0904841018106154e+01  5.9120082171633037e+01  5.7962772351731331e+01  5.6532446423181135e+01  5.4967058048176348e+01  5.3922605549863825e+01  7.0393795941370627e+01  6.8528048507126101e+01  6.5406663781981138e+01  6.2711151621168348e+01  6.0446589395337277e+01  5.8414368667548231e+01  5.7609905505813465e+01  5.6906634187161096e+01  5.5434139064478863e+01  5.3527806367849998e+01  7.1373178413778902e+01  7.2078325467649492e+01  7.1839502413635330e+01  7.2641167443434000e+01  7.3826864351475763e+01  7.4742797954903580e+01  7.1597836258295061e+01  7.0849870940350939e+01  6.7207680169914738e+01  6.4035879192052008e+01  6.6417567393710428e+01  6.1058762286591701e+01  5.8883623160813734e+01  5.6989019725690838e+01  5.6450556803506906e+01  5.6242895837356876e+01  5.4493428285887724e+01  5.3738115247396188e+01  5.2759161105179309e+01  7.3936438757125970e+01  7.3894564314055600e+01  7.4287437456103177e+01  7.2400908141163313e+01  6.9099357625557587e+01  6.6424545420657168e+01  6.4198510958242082e+01  6.0869925691815197e+01  5.8687901449358392e+01  5.6870615364189398e+01  5.5325014360234618e+01  5.5050322158232788e+01  5.3982392544200820e+01  5.2787936330767259e+01  5.2270366558382108e+01  7.4507785890923188e+01  7.6288383666307382e+01  7.6380869515910206e+01  5.4900689476844953e+01  7.6351025650770964e+01  7.6871723040672762e+01  7.6623114833630211e+01  7.6580160110832850e+01  7.4954856172994468e+01  7.1378690213015673e+01  6.7433296742490867e+01  6.3651993638572335e+01  5.3966916115748020e+01  5.1729106077082150e+01  7.7271607873229158e+01  7.7746763430994747e+01  7.8430820731970087e+01  7.8566118019921802e+01  7.7935439646401107e+01  7.7681041183591987e+01  7.6885985863879426e+01  7.8565114005829614e+01  7.8548493590977458e+01  7.9980162569670284e+01  7.8457771715695515e+01  7.9814983366440785e+01  8.0030435577312318e+01  8.1080189238998301e+01  8.1689731959738168e+01  8.0817335947315854e+01  7.9535910976219341e+01  7.8558965273999334e+01  7.8264380455436026e+01  7.7469290328089087e+01  7.6501430955428205e+01  7.6824024543345828e+01  7.6031183597304249e+01  8.0450192921282252e+01  7.9516343119572809e+01  7.8413950331819194e+01  7.6790345923028468e+01  7.5431767516460880e+01  7.4108924759930872e+01  7.5450366298894878e+01  7.3904907406378115e+01  8.0990037704267195e+01  8.1642330465538549e+01  8.2032931800750191e+01  8.2063038679636477e+01  8.1805798671001469e+01  8.0163858621807165e+01  7.9200334203044335e+01  7.8449626987309486e+01  7.7472651719142817e+01  7.6213170778071444e+01  7.4673500604296763e+01  7.3496266213052223e+01  7.1018802060312183e+01  7.0744301724452427e+01  7.3351210638335118e+01  7.0645733783199631e+01  8.1084267057367157e+01  8.1752267916071986e+01  8.2004623890084773e+01  8.2104506403932589e+01  8.2023643217177693e+01  8.1928558444168260e+01  8.0726835310377993e+01  7.9791261932564055e+01  7.9170664773854867e+01  7.7646356120733870e+01  7.6463229764874640e+01  7.4684657017390094e+01  7.3503123836386692e+01  7.2511295691181758e+01  7.0202064947534581e+01  6.7960561556684212e+01  6.5638929095456234e+01  6.7415271175477159e+01  8.0534842813694993e+01  8.1147030011659510e+01  8.1491807244983448e+01  8.1724998979284351e+01  8.1944048241793595e+01  8.2052089051288149e+01  8.1925665916411276e+01  8.1529350847006270e+01  8.1509260486792044e+01  8.1135232070158864e+01  8.0226785751645551e+01  7.9378403359855611e+01  7.8465527611592520e+01  7.7327417611420657e+01  7.6096512022973030e+01  7.5189468569492718e+01  7.3853569781895871e+01  7.2636798045610107e+01  7.0764473184508773e+01  6.8804766169728055e+01  6.7212739650375283e+01  6.5047639835613111e+01  6.2093761234051009e+01  6.3438277513072812e+01  8.0802445935357824e+01  8.1284079301042539e+01  8.1478676377545085e+01  8.1752416250591409e+01  8.1747481378905590e+01  8.1872315966582519e+01  8.1886636692832283e+01  8.1554995601891250e+01  8.0601435215392428e+01  8.0186327865200241e+01  7.9046662932715222e+01  7.9722237091139093e+01  8.0437283553229747e+01  8.0973497754769866e+01  8.0982892308726591e+01  8.1483028193067810e+01  8.1524024653689153e+01  8.1539316757665759e+01  8.1693538997271474e+01  8.1512035498149828e+01  8.1338366091294617e+01  8.0328515749811530e+01  7.9197659065009262e+01  7.7020757749054667e+01  7.5914747200200679e+01  7.8675401346429510e+01  7.7896617911269544e+01  7.6826416043976863e+01  7.5228927599850778e+01  7.4603953179709521e+01  7.2485889054585058e+01  7.1388769116252917e+01  6.9974901426483427e+01  5.7991235619610613e+01  5.8151553102154935e+01  8.0313522323579505e+01  8.0840177785813751e+01  8.1228756716415248e+01  8.1397497528153806e+01  8.1314914479001587e+01  8.1390888159482699e+01  8.1419429603565959e+01  8.1155086726191840e+01  8.0683561016954528e+01  7.9515319605880890e+01  8.0326965051467738e+01  7.9048400678995264e+01  7.8348171861585584e+01  7.7709940545454458e+01  7.6839690745843839e+01  7.5930037676413349e+01  7.4884591307234970e+01  7.3696716625103434e+01  7.3260978679794150e+01  7.2033343708117073e+01  7.0829685036012776e+01  7.9390553937207827e+01  7.8546805114626736e+01  7.6490582225464536e+01  7.4431150814829905e+01  7.2698221940358195e+01  5.3392906587101578e+01  7.9807223177628984e+01  8.0544529602720743e+01  8.0984173889672448e+01  8.1124012246289638e+01  8.0914237921648095e+01  8.1041460816291973e+01  8.1228296321512317e+01  8.1251025411136069e+01  8.1254610619225218e+01  8.0994555364846519e+01  8.0562917143974431e+01  7.9936302178340128e+01  7.9130267115797253e+01  7.8447395585166902e+01  7.7205840740559353e+01  7.5627748676287325e+01  7.3299344969249972e+01  7.1494369142398781e+01  7.0925632284107365e+01  7.7270814141172835e+01  7.8117188033996371e+01  7.8456837245803229e+01  7.9168424243525919e+01  7.4559064655275691e+01  7.5708625113623413e+01  7.6388274327951308e+01  7.2703296213616468e+01  7.2924634896174808e+01  7.1453073990100762e+01  8.0039933926207169e+01  8.0295388023770798e+01  8.0713180015895205e+01  8.0632302090733333e+01  8.0911106584455240e+01  8.1090224692920472e+01  8.1118684883460801e+01  8.1099630369267842e+01  8.0837863387170515e+01  8.0421257220314573e+01  7.9607266493899473e+01  7.8582667224571736e+01  7.8097438153649691e+01  7.6449983415340228e+01  7.4655796902441111e+01  7.2647220204528594e+01  7.0517870050563531e+01  6.8035082276646065e+01  6.8878824509681152e+01  7.7673866715350798e+01  7.6882537282828139e+01  7.6024343203433332e+01  7.5185592735212424e+01  7.3635774027360128e+01  7.3341012165304107e+01  7.2157825532326754e+01  7.1885058531703137e+01  7.7738038759067152e+01  7.8567124781971941e+01  7.9146430014181036e+01  7.9721086500144892e+01  8.0038718834917390e+01  7.9991589126554004e+01  8.0552682609304327e+01  8.0696761086713110e+01  8.0943348933412921e+01  8.1026612980828233e+01  8.0866208063658206e+01  8.0979083574770499e+01  8.0720552668305587e+01  8.0134770034092142e+01  7.9723164402779787e+01  7.8815668400648576e+01  7.7864658996932079e+01  7.7244165077793497e+01  7.6370170587770531e+01  7.3844005651031395e+01  7.1661165871775211e+01  7.0604223877809645e+01  6.8548792017294915e+01  6.7490551655544976e+01  6.4886709942813013e+01  6.4612177909740979e+01  7.6431575773540189e+01  7.5168791803401717e+01  7.4274967062998556e+01  7.3328402126831946e+01  7.2302548382646762e+01  7.2292694979935391e+01  7.7634778970621113e+01  7.8429652598665655e+01  7.9200977025184827e+01  7.9376291772274314e+01  7.8617983824685254e+01  7.9013188240128173e+01  7.9796986767655582e+01  8.0429925005404812e+01  8.0748972037824061e+01  8.0957603181167713e+01  8.0931177794074245e+01  8.0810532297721110e+01  8.0387214477020294e+01  7.9923211387410973e+01  7.9328297712094638e+01  7.8879021792245993e+01  7.7975669186057360e+01  7.6811795465251677e+01  7.5965779161165969e+01  7.5316401184441162e+01  7.3978940134012888e+01  7.2343262431946613e+01  7.0821295594475373e+01  6.9885419765537250e+01  6.9429177588891548e+01  6.7320169993259228e+01  6.6321872277848797e+01  6.3574875393965776e+01  6.1830003415544816e+01  8.0403543446183107e+01  7.6278372399162421e+01  7.7003283295581468e+01  7.7385703545075884e+01  7.7854501083226836e+01  7.4709355100675765e+01  7.5491033968620727e+01  7.3949221555180827e+01  7.3986426615318820e+01  7.3057943172793330e+01  7.2197772233130365e+01  7.7962863896849868e+01  7.6906700109602241e+01  7.5839754694061540e+01  7.6670628318655446e+01  7.8157398619870648e+01  7.9055011218152757e+01  7.9605200005435123e+01  8.0167650419502493e+01  8.0613483556710491e+01  8.0895303900890056e+01  8.0920437837135680e+01  8.0836050630631746e+01  8.0646425909539261e+01  8.0071519587570435e+01  7.9552064459386344e+01  7.8970315870420819e+01  7.8321792378806251e+01  7.7100426384889204e+01  7.6772838147439145e+01  7.5984360687159977e+01  7.5194429667726368e+01  7.3283660327362796e+01  7.1645334180762404e+01  6.9918408687177177e+01  6.9087688474665214e+01  6.8153166436119747e+01  6.8166990149188763e+01  6.5926639024146397e+01  6.5298398329408727e+01  6.4154455158366119e+01  6.1892280875031290e+01  6.0794291484933673e+01  7.4074920034887441e+01  7.4179400562750047e+01  7.5037250737159823e+01  7.3290900728702582e+01  7.1984539118893153e+01  7.3019854862524980e+01  7.7405867002944319e+01  7.7128638427222512e+01  7.7779285648091232e+01  7.8651025391786945e+01  7.9086310053891097e+01  7.9676472966907482e+01  8.0348246779491674e+01  8.0682904204776023e+01  8.0791002497077770e+01  8.0916017801135311e+01  8.0813509626037288e+01  8.0620496888128585e+01  8.0214268460354717e+01  7.9645083352391595e+01  7.8866264529465838e+01  7.8096747556191858e+01  7.6711432049961360e+01  7.5508753223806366e+01  7.5608653394330489e+01  7.4714709344781951e+01  7.3991229927404220e+01  7.2651922176692850e+01  7.0654387414476858e+01  7.6245026192453963e+01  7.5238713993397255e+01  7.4322452521883051e+01  7.3440161372893897e+01  7.2355837657241921e+01  7.1663102521021088e+01  6.7099643403594854e+01  6.4636137532872951e+01  6.3219153077911706e+01  6.1713005640570415e+01  6.0113979505129187e+01  5.9139482247044000e+01  5.9908853153365584e+01  7.6485260249815340e+01  7.5502336843563185e+01  7.4601791794165891e+01  7.3499862546169396e+01  7.2314120986666708e+01  7.1235719923045551e+01  7.6774217748311955e+01  7.7475565107227482e+01  7.8414306460201956e+01  7.9043379719704731e+01  7.9775622262620999e+01  8.0378410481820524e+01  8.0579155396477759e+01  8.0898245054896719e+01  8.0932400270419890e+01  8.0668190103074195e+01  8.0375032937331497e+01  7.9857861209703074e+01  7.9261792475675989e+01  7.8473261734050624e+01  7.7798469778632011e+01  7.6738906679270329e+01  7.5657350328609795e+01  7.4304618237884057e+01  7.3757299002363354e+01  7.4697499400195966e+01  7.5825445466974742e+01  8.0914353303597792e+01  7.2985008401566049e+01  7.1859192217936922e+01  5.8465565898588402e+01  7.3453621927571191e+01  7.2080643022091223e+01  7.1514981123970557e+01  7.0885693179749850e+01  7.4490463149936048e+01  7.5493983650474505e+01  7.6298031613304332e+01  7.6968036733736383e+01  7.7787753358615163e+01  7.8305497083088795e+01  7.9087083536296376e+01  8.0193432217305343e+01  7.9731042070571746e+01  8.0647933641637394e+01  8.0958251403544494e+01  8.1069716140252481e+01  8.0840590685295567e+01  8.0554916690718656e+01  8.0168497971337047e+01  7.9687730203319262e+01  7.9011884542349208e+01  7.8132324636215216e+01  7.6675670092728183e+01  7.7535799734153244e+01  7.5886699393574787e+01  7.4743272974827789e+01  7.3461917070821599e+01  7.2778380747519407e+01  7.3372755663978182e+01  7.4394774803455334e+01  7.5458391921876952e+01  7.5370667232932860e+01  7.2200636748395141e+01  7.0840076319492567e+01  7.0487891702756187e+01  7.6604023172278843e+01  7.7355616726846733e+01  7.8234249996669206e+01  7.9241976713025281e+01  7.9713401277506037e+01  8.0573011613420164e+01  8.1171564250926011e+01  8.1250522501498025e+01  8.1056457536915843e+01  8.0742537185674621e+01  8.0380465084000718e+01  7.9716212502330222e+01  7.9324660074798871e+01  7.8604308822643347e+01  7.7256638936961195e+01  7.6411098374118737e+01  7.5291548573341188e+01  7.3841655163285878e+01  7.5080309810834933e+01  7.2965981555966366e+01  7.2065351963514814e+01  7.1055448085000748e+01  7.0254534529009874e+01  6.9528977779126436e+01  7.4153906461475515e+01  7.4548988139816984e+01  7.5589604184917832e+01  7.6840465003508157e+01  7.7696973339015813e+01  7.8393265797834147e+01  7.9393614680961548e+01  8.0148921867000425e+01  8.0811903684583797e+01  8.1420877595911108e+01  8.1448892360736821e+01  8.1256968108651378e+01  8.0862488379621823e+01  8.0461526827944809e+01  7.9888537530404108e+01  7.8980915747882477e+01  7