<?xml version="1.0"?>
<VTKFile type="UnstructuredGrid"  version="0.1"  >
<UnstructuredGrid>
<Piece  NumberOfPoints="6432" NumberOfCells="12116">
<Points>
<DataArray  type="Float64"  NumberOfComponents="3"  format="ascii">3 0.3819660112504897 0  2.843408347405157 0.3736333896206288 0  3 0.5986121811345446 0  2.675884240244967 0.3517684804899346 0  2.862309893853584 0.5869296815607524 0  3 0.7928932188140729 0  2.492225278930009 0.3229670385733456 0  2.705578223215987 0.5583673348239806 0  2.88819660112527 0.77639320225054 0  3 0.9409830056258242 0  2.292893218813648 0.2928932188136479 0  2.524397193004713 0.5243971930047131 0  2.741180954897836 0.7411809548978358 0  2.920540688701558 0.9205406887015585 0  3 1 0  2.322967038573346 0.4922252789300092 0  2.558367334823981 0.7055782232159871 0  2.77639320225054 0.88819660112527 0  2.940983005625824 1 0  3 1.059016994374176 0  3.079459311298442 1.079459311298441 0  3.059016994374176 1 0  2.351768480489935 0.6758842402449674 0  2.586929681560752 0.8623098938535841 0  2.792893218814073 1 0  2.920540688701558 1.079459311298441 0  3 1.207106781185927 0  3.11180339887473 1.22360679774946 0  3.258819045102164 1.258819045102164 0  3.22360679774946 1.11180339887473 0  3.207106781185927 1 0  2.373633389620628 0.843408347405157 0  2.598612181134545 1 0  2.77639320225054 1.11180339887473 0  2.88819660112527 1.22360679774946 0  3 1.401387818865455 0  3.137690106146416 1.413070318439248 0  3.294421776784013 1.441632665176019 0  3.475602806995287 1.475602806995287 0  3.441632665176019 1.294421776784013 0  3.413070318439248 1.137690106146416 0  3.401387818865455 1 0  2.38196601125049 1 0  2.586929681560752 1.137690106146416 0  2.741180954897836 1.258819045102164 0  2.862309893853584 1.413070318439248 0  3 1.61803398874951 0  3.156591652594843 1.626366610379372 0  3.324115759755033 1.648231519510065 0  3.507774721069991 1.677032961426654 0  3.707106781186353 1.707106781186352 0  3.677032961426654 1.507774721069991 0  3.648231519510065 1.324115759755033 0  3.626366610379372 1.156591652594843 0  3.61803398874951 1 0  2.373633389620628 1.156591652594843 0  2.558367334823981 1.294421776784013 0  2.705578223215987 1.441632665176019 0  2.843408347405157 1.626366610379372 0  2.351768480489935 1.324115759755033 0  2.524397193004713 1.475602806995287 0  2.675884240244967 1.648231519510065 0  2.322967038573346 1.507774721069991 0  2.492225278930009 1.677032961426654 0  2.292893218813647 1.707106781186352 0  2 4.61803398874951 0  1.843408347405157 4.626366610379371 0  2 4.401387818865455 0  1.675884240244967 4.648231519510065 0  1.862309893853584 4.413070318439248 0  2 4.207106781185927 0  1.492225278930009 4.677032961426654 0  1.705578223215987 4.441632665176019 0  1.88819660112527 4.22360679774946 0  2 4.059016994374176 0  1.292893218813648 4.707106781186353 0  1.524397193004713 4.475602806995287 0  1.741180954897836 4.258819045102165 0  1.920540688701559 4.079459311298441 0  2 4 0  1.322967038573346 4.507774721069991 0  1.558367334823981 4.294421776784013 0  1.77639320225054 4.11180339887473 0  1.940983005625824 4 0  2 3.940983005625824 0  2.079459311298442 3.920540688701558 0  2.059016994374176 4 0  1.351768480489935 4.324115759755033 0  1.586929681560752 4.137690106146416 0  1.792893218814073 4 0  1.920540688701559 3.920540688701558 0  2 3.792893218814073 0  2.11180339887473 3.77639320225054 0  2.258819045102164 3.741180954897836 0  2.22360679774946 3.88819660112527 0  2.207106781185927 4 0  1.373633389620628 4.156591652594843 0  1.598612181134545 4 0  1.77639320225054 3.88819660112527 0  1.88819660112527 3.77639320225054 0  2 3.598612181134545 0  2.137690106146416 3.586929681560752 0  2.294421776784013 3.558367334823981 0  2.475602806995287 3.524397193004713 0  2.441632665176019 3.705578223215987 0  2.413070318439248 3.862309893853584 0  2.401387818865455 4 0  1.38196601125049 4 0  1.586929681560752 3.862309893853584 0  1.741180954897836 3.741180954897836 0  1.862309893853584 3.586929681560752 0  2 3.38196601125049 0  2.156591652594843 3.373633389620628 0  2.324115759755033 3.351768480489935 0  2.507774721069991 3.322967038573346 0  2.707106781186353 3.292893218813647 0  2.677032961426654 3.492225278930009 0  2.648231519510065 3.675884240244967 0  2.626366610379372 3.843408347405157 0  2.61803398874951 4 0  1.373633389620628 3.843408347405157 0  1.558367334823981 3.705578223215987 0  1.705578223215987 3.558367334823981 0  1.843408347405157 3.373633389620628 0  1.351768480489935 3.675884240244967 0  1.524397193004713 3.524397193004713 0  1.675884240244967 3.351768480489935 0  1.322967038573346 3.492225278930009 0  1.492225278930009 3.322967038573346 0  1.292893218813648 3.292893218813647 0  -6 5.61803398874951 0  -5.843408347405157 5.626366610379371 0  -6 5.401387818865455 0  -5.675884240244967 5.648231519510065 0  -5.862309893853584 5.413070318439248 0  -6 5.207106781185927 0  -5.492225278930009 5.677032961426654 0  -5.705578223215987 5.441632665176019 0  -5.88819660112527 5.22360679774946 0  -6 5.059016994374176 0  -5.292893218813647 5.707106781186353 0  -5.524397193004713 5.475602806995287 0  -5.741180954897835 5.258819045102165 0  -5.920540688701559 5.079459311298441 0  -6 5 0  -5.322967038573346 5.507774721069991 0  -5.558367334823981 5.294421776784013 0  -5.77639320225054 5.11180339887473 0  -5.940983005625824 5 0  -6 4.940983005625824 0  -6.079459311298441 4.920540688701559 0  -6.059016994374176 5 0  -5.351768480489935 5.324115759755033 0  -5.586929681560752 5.137690106146416 0  -5.792893218814073 5 0  -5.920540688701559 4.920540688701559 0  -6 4.792893218814073 0  -6.11180339887473 4.77639320225054 0  -6.258819045102165 4.741180954897835 0  -6.22360679774946 4.88819660112527 0  -6.207106781185927 5 0  -5.373633389620628 5.156591652594843 0  -5.598612181134545 5 0  -5.77639320225054 4.88819660112527 0  -5.88819660112527 4.77639320225054 0  -6 4.598612181134545 0  -6.137690106146416 4.586929681560752 0  -6.294421776784013 4.558367334823981 0  -6.475602806995287 4.524397193004713 0  -6.441632665176019 4.705578223215987 0  -6.413070318439248 4.862309893853584 0  -6.401387818865455 5 0  -5.38196601125049 5 0  -5.586929681560752 4.862309893853584 0  -5.741180954897835 4.741180954897835 0  -5.862309893853584 4.586929681560752 0  -6 4.38196601125049 0  -6.156591652594843 4.373633389620628 0  -6.324115759755033 4.351768480489935 0  -6.507774721069991 4.322967038573346 0  -6.707106781186353 4.292893218813647 0  -6.677032961426654 4.492225278930009 0  -6.648231519510065 4.675884240244967 0  -6.626366610379372 4.843408347405157 0  -6.61803398874951 5 0  -5.373633389620628 4.843408347405157 0  -5.558367334823981 4.705578223215987 0  -5.705578223215987 4.558367334823981 0  -5.843408347405157 4.373633389620628 0  -5.351768480489935 4.675884240244967 0  -5.524397193004713 4.524397193004713 0  -5.675884240244967 4.351768480489935 0  -5.322967038573346 4.492225278930009 0  -5.492225278930009 4.322967038573346 0  -5.292893218813647 4.292893218813647 0  -5 2.38196601125049 0  -4.843408347405157 2.373633389620629 0  -5 2.598612181134545 0  -4.675884240244967 2.351768480489935 0  -4.862309893853584 2.586929681560752 0  -5 2.792893218814073 0  -4.492225278930009 2.322967038573346 0  -4.705578223215987 2.558367334823981 0  -4.88819660112527 2.77639320225054 0  -5 2.940983005625824 0  -4.292893218813647 2.292893218813648 0  -4.524397193004713 2.524397193004713 0  -4.741180954897835 2.741180954897836 0  -4.920540688701559 2.920540688701558 0  -5 3 0  -4.322967038573346 2.492225278930009 0  -4.558367334823981 2.705578223215987 0  -4.77639320225054 2.88819660112527 0  -4.940983005625824 3 0  -5 3.059016994374176 0  -5.079459311298441 3.079459311298442 0  -5.059016994374176 3 0  -4.351768480489935 2.675884240244967 0  -4.586929681560752 2.862309893853584 0  -4.792893218814073 3 0  -4.920540688701559 3.079459311298442 0  -5 3.207106781185927 0  -5.11180339887473 3.22360679774946 0  -5.258819045102165 3.258819045102164 0  -5.22360679774946 3.11180339887473 0  -5.207106781185927 3 0  -4.373633389620628 2.843408347405157 0  -4.598612181134545 3 0  -4.77639320225054 3.11180339887473 0  -4.88819660112527 3.22360679774946 0  -5 3.401387818865455 0  -5.137690106146416 3.413070318439248 0  -5.294421776784013 3.441632665176019 0  -5.475602806995287 3.475602806995287 0  -5.441632665176019 3.294421776784013 0  -5.413070318439248 3.137690106146416 0  -5.401387818865455 3 0  -4.38196601125049 3 0  -4.586929681560752 3.137690106146416 0  -4.741180954897835 3.258819045102164 0  -4.862309893853584 3.413070318439248 0  -5 3.61803398874951 0  -5.156591652594843 3.626366610379372 0  -5.324115759755033 3.648231519510065 0  -5.507774721069991 3.677032961426654 0  -5.707106781186353 3.707106781186353 0  -5.677032961426654 3.507774721069991 0  -5.648231519510065 3.324115759755033 0  -5.626366610379372 3.156591652594843 0  -5.61803398874951 3 0  -4.373633389620628 3.156591652594843 0  -4.558367334823981 3.294421776784013 0  -4.705578223215987 3.441632665176019 0  -4.843408347405157 3.626366610379372 0  -4.351768480489935 3.324115759755033 0  -4.524397193004713 3.475602806995287 0  -4.675884240244967 3.648231519510065 0  -4.322967038573346 3.507774721069991 0  -4.492225278930009 3.677032961426654 0  -4.292893218813647 3.707106781186353 0  5 1 0  5 1.1875 0  4.827254248593689 1 0  5 1.375 0  4.774625127436217 1.190725542188815 0  4.654508497187377 1 0  4.795685564948176 1.503494320171386 0  5 1.5625 0  4.633229176833026 1.366257369669115 0  4.535571696635581 1.176836689821396 0  4.481762745781066 1 0  4.856267205581102 1.661206773798245 0  5 1.75 0  4.689409473820198 1.687699236167515 0  4.60784560155642 1.536324222026939 0  4.458027710481697 1.451934295621926 0  4.353363905980899 1.28736948322329 0  4.309016994374755 1 0  4.813772758633532 1.87305606464568 0  5 1.9375 0  4.658258320854826 1.842998343199929 0  4.530548399033449 1.675635120559427 0  4.377973042682878 1.629775066020617 0  4.241466707589882 1.467498817908458 0  4.068363
[...]
<PointData  Scalars="u"> 
<DataArray  type="Float64"  Name="u"  format="ascii">5.3470118090882700e+01  5.7360197914952892e+01  5.3580968301527228e+01  6.0742863182861349e+01  5.8435754429283698e+01  5.3689081580368395e+01  6.3490657413173231e+01  6.2443494381778898e+01  6.0372447610167718e+01  5.4613007666962623e+01  6.5652983779584588e+01  6.5334308790496522e+01  6.4872608895438532e+01  6.4629099906889152e+01  5.5939606090923014e+01  6.7456669619414171e+01  6.7662085287324857e+01  6.8449816731741905e+01  7.1137313286104828e+01  7.0959559291614184e+01  6.4360650804433988e+01  5.4437484911944672e+01  6.9529822273236647e+01  7.0449945038259784e+01  7.2358196564843894e+01  7.4140399297828978e+01  7.1724041595305437e+01  6.7432570158138589e+01  6.3364750173164744e+01  5.9380361420405741e+01  5.3083973333045137e+01  7.1744086949890047e+01  7.3110085409840082e+01  7.4766570889941178e+01  7.4420101204506537e+01  7.1855448516122024e+01  6.8745599728052298e+01  6.5410300027160147e+01  6.2486312234915644e+01  6.0271392351144705e+01  5.6805519899890420e+01  5.2436456303086757e+01  7.3841702158951250e+01  7.5066381337642568e+01  7.5510723150137807e+01  7.4179704813037233e+01  7.1865237963146313e+01  6.9263210469711595e+01  6.6481826574777799e+01  6.3795198487293199e+01  6.1365831801770604e+01  5.9990379720170139e+01  5.7934913831773009e+01  5.5145692196926703e+01  5.1756348836990782e+01  7.5421959870712840e+01  7.6029098495771862e+01  7.5558658963301809e+01  7.3909154723933270e+01  7.6447164514499789e+01  7.6392855046768375e+01  7.5398989928285758e+01  7.7001754018228638e+01  7.6455574076682495e+01  7.7254875205186337e+01  5.9311453452435487e+01  6.3080856911594800e+01  5.9495900131116962e+01  6.6326431951014243e+01  6.4222227133478597e+01  5.9685446222351906e+01  6.8923079489953395e+01  6.8072571448571225e+01  6.6241642500073198e+01  6.0683273450484137e+01  7.0926596692459427e+01  7.0783068034811208e+01  7.0567372706048189e+01  7.0593446990375071e+01  6.2043053669945131e+01  7.2709564892675843e+01  7.3140523632892609e+01  7.4220234403307501e+01  7.7165118704042271e+01  7.7097559206621938e+01  7.0615256830424954e+01  6.0612910705815061e+01  7.4769637686921897e+01  7.5967053366518144e+01  7.8184421561273339e+01  8.0182215283208350e+01  7.7960096998271212e+01  7.3841856361143826e+01  6.9999388165153775e+01  6.5832269003922534e+01  5.9425108055855404e+01  7.6973097468712695e+01  7.8650934155923522e+01  8.0607190224222919e+01  8.0492117600943558e+01  7.8246738291578595e+01  7.5379226085709220e+01  7.2304608923913932e+01  6.9638497304034360e+01  6.7142607094418111e+01  6.3472621181366478e+01  5.8957065899795133e+01  7.9049948509394881e+01  8.0602122551680793e+01  8.1346429298199553e+01  8.0326015154410328e+01  7.8475946277009967e+01  7.6190027847592305e+01  7.3719126248547681e+01  7.1314888279980252e+01  6.9097141390197208e+01  6.7349872856923184e+01  6.5002114922261669e+01  6.1986467600633574e+01  5.8420882730572309e+01  8.0579684576400979e+01  8.1525470363755176e+01  8.1397255138850241e+01  8.0174671559915851e+01  8.1520604709315705e+01  8.1833400531088273e+01  8.1261998096595264e+01  8.1955659405486060e+01  8.1829783803903013e+01  8.2058650299195634e+01  5.3626804335367275e+01  5.7694270285001608e+01  5.3583373707352848e+01  6.1273525856320724e+01  5.8614972072540823e+01  5.3519712202109375e+01  6.4232788137955083e+01  6.2836807892527069e+01  6.0370598695971388e+01  5.4286645732936634e+01  6.6611125459343896e+01  6.5967693966987142e+01  6.5101915063765546e+01  6.4441453229983381e+01  5.5542825936664272e+01  6.8340612085165333e+01  6.8167740453157748e+01  6.8510437320657374e+01  7.0830300006736962e+01  7.0488607905937045e+01  6.3741012618335567e+01  5.3954194641406858e+01  7.0326119643827496e+01  7.0819728416260290e+01  7.2285857836296117e+01  7.3768152563315127e+01  7.1042270303814391e+01  6.6545080886770535e+01  6.2200291959502621e+01  5.8508016706484874e+01  5.2395842460617089e+01  7.2447097243709820e+01  7.3360899942325418e+01  7.4599167438312719e+01  7.3906910311242058e+01  7.0835336549949062e+01  6.7463025955116066e+01  6.3833798483276091e+01  6.0617811683204145e+01  5.8812624158053339e+01  5.5654273719796748e+01  5.1510023275126251e+01  7.4456031841517415e+01  7.5216542763813180e+01  7.5225173692673010e+01  7.3404852148474376e+01  7.0359617778861320e+01  6.7451337170384818e+01  6.4366687166159622e+01  6.1405888953086162e+01  5.8761333313430669e+01  5.7871563628382589e+01  5.6214789970527406e+01  5.3743943741956492e+01  5.0606594659489730e+01  7.5962163719180722e+01  7.6077292905858741e+01  7.5075522486196903e+01  7.2728815211849195e+01  7.6916895212282910e+01  7.6295740639388256e+01  7.4598237413670475e+01  7.7389200359724597e+01  7.6136641441880073e+01  7.7522832980400537e+01  6.0503199740591775e+01  6.4290866834079040e+01  6.0690468774044859e+01  6.7544590422112080e+01  6.5426808783188790e+01  6.0883915920099781e+01  7.0140180264668729e+01  6.9277161205213901e+01  6.7441756775398133e+01  6.1884755854801575e+01  7.2134104930340726e+01  7.1977956363768016e+01  7.1760864859457783e+01  7.1792373662267750e+01  6.3245646178148327e+01  7.3884031088777249e+01  7.4314269306028194e+01  7.5405977950453504e+01  7.8364287206916714e+01  7.8301072558621613e+01  7.1822264222809423e+01  6.1815959727613226e+01  7.5910296221204305e+01  7.7121507730301062e+01  7.9362935138544273e+01  8.1377234482931797e+01  7.9164316762694469e+01  7.5057764318858176e+01  7.1212925631798939e+01  6.7031401984080873e+01  6.0613886888054772e+01  7.8077623020675489e+01  7.9782086814845158e+01  8.1769034392230395e+01  8.1671269191925774e+01  7.9445024800104605e+01  7.6611037795450812e+01  7.3545250679076418e+01  7.0836605791022507e+01  6.8309491234793228e+01  6.4621132434527652e+01  6.0088065307322147e+01  8.0111451141586699e+01  8.1697583561434442e+01  8.2470892715088084e+01  8.1470515954252221e+01  7.9650637866823757e+01  7.7435066357076792e+01  7.5000734795649549e+01  7.2565666464674507e+01  7.0187348495968735e+01  6.8405668589180308e+01  6.6038346876055598e+01  6.3008622049086036e+01  5.9426899740953857e+01  8.1580123254834163e+01  8.2557309912119294e+01  8.2451812824528545e+01  8.1246431157716131e+01  8.2431728700335682e+01  8.2763327494675934e+01  8.2198551636779783e+01  8.2735762552953418e+01  8.2601718513615438e+01  8.2651777704253476e+01  4.8490923015782073e+01  4.9527338531226739e+01  4.8850238616712161e+01  5.0493195580019695e+01  5.0197769802899984e+01  4.9227364810381452e+01  5.1929817645890012e+01  5.1373026273329472e+01  5.1825490044724127e+01  5.0873235654436598e+01  4.9612558340141483e+01  5.2422154648846842e+01  5.2134888805971215e+01  5.3363043832388911e+01  5.2982556530399044e+01  5.3221099212624765e+01  5.2483221858755776e+01  5.0030291081071290e+01  5.3484894449579443e+01  5.2772932786372898e+01  5.4220180415106746e+01  5.4179428425686396e+01  5.4848631313344526e+01  5.4592007091483744e+01  5.4586819377874711e+01  5.1887304766811035e+01  5.0446368446096606e+01  5.4959181708225465e+01  5.5295395112438555e+01  5.6617708159442692e+01  5.6115993314090936e+01  5.7503702608931029e+01  5.4451347205046972e+01  5.0877752707404994e+01  5.2759040874502880e+01  5.4295937638732596e+01  5.3272430383948851e+01  5.6267538309605541e+01  5.4681947468448783e+01  5.3633829982427542e+01  5.6901296474194517e+01  5.7156198551600298e+01  5.8371891279742457e+01  5.9860604002018711e+01  6.1352660540523999e+01  5.9998087027115147e+01  5.7915587176835231e+01  5.5119168917200270e+01  5.1318025492286118e+01  5.7666695879414632e+01  5.6129064809315238e+01  5.7298488825417046e+01  5.8171868747173583e+01  5.8747841539011866e+01  6.0136263341289151e+01  6.1903860828890046e+01  6.3255127094179947e+01  6.3789576501190133e+01  5.4974346218709002e+01  5.3856576600760775e+01  5.1818507775031811e+01  5.7865671783663622e+01  5.9363626914953940e+01  6.0634452103488897e+01  6.1766834528619754e+01  6.3063650083668605e+01  6.4546017340037878e+01  6.7062304176830509e+01  6.6492021673926146e+01  5.6930305111176835e+01  5.5343490301170931e+01  5.3947348115402669e+01  5.9429734435857590e+01  6.0761220388299655e+01  6.2046924659826011e+01  6.3420666886890793e+01  6.4719393997027538e+01  6.6513428209108071e+01  6.8261556882470558e+01  7.0257976217064581e+01  7.0752994173770674e+01  6.8500766247534202e+01  6.9299468547957304e+01  5.8100780064657876e+01  5.6817083992462990e+01  5.5855760375497212e+01  5.4894440805407484e+01  5.3915903540887307e+01  5.8317440665459351e+01  5.9513899186229793e+01  6.0758077268018354e+01  6.1918463942635384e+01  6.4163012696806319e+01  6.6027468132953459e+01  6.8166468367550607e+01  7.0169265410758982e+01  7.2381281146012569e+01  7.3070828529452683e+01  7.2349012546620628e+01  7.1840546486059566e+01  5.6595034562748971e+01  5.7619177985559460e+01  5.5272490353906612e+01  5.4400997592061117e+01  5.3768375503896351e+01  5.8759632713371332e+01  5.7612876818469807e+01  5.6231859026475568e+01  5.5018687156193117e+01  5.4152111498360462e+01  5.3518929156017379e+01  6.0272272541834852e+01  6.1853175029157619e+01  6.3958966631512510e+01  6.5976938880636226e+01  6.5937562641325371e+01  6.7779638477381368e+01  7.0679916200414652e+01  7.2746165844193200e+01  7.3965556711531178e+01  7.4892522044142268e+01  7.4478670306436783e+01  7.3906681215572121e+01  6.3064880716363973e+01  5.8775718025558966e+01  6.0205325994599136e+01  6.2112583689426906e+01  6.4265491784493406e+01  6.6190506499094553e+01  6.8388620029044247e+01  7.0873201992840407e+01  7.1938176759398047e+01  7.3700372669018719e+01  7.4263320555566636e+01  7.5383368787375957e+01  7.6411012745521177e+01  7.6492001630698439e+01  7.6465460171846829e+01  7.5394578157972362e+01  5.7375822885610035e+01  5.6244498046115808e+01  5.5511651278889566e+01  5.4591268658088467e+01  5.3526644978478778e+01  5.3179101223867342e+01  5.9406642577407133e+01  5.8024096322728454e+01  5.6516475161991345e+01  5.5236417781594298e+01  5.5255235913328789e+01  5.3961776711468964e+01  5.3347710894932312e+01  5.2757984837968166e+01  6.0655954084376788e+01  6.2603020879384260e+01  6.4943256066396373e+01  6.5798678350427309e+01  6.7652699133144921e+01  7.0273517277346528e+01  7.3374080874615871e+01  7.5546360173428894e+01  7.6058162089445915e+01  7.6783511497538981e+01  7.7362118065422578e+01  7.7312125486774022e+01  7.7256571498772061e+01  7.2645376248961114e+01  5.8536506720917863e+01  5.9857768666220345e+01  6.2449642940413973e+01  6.4258574150671521e+01  6.6559119710354366e+01  6.8196686673257219e+01  6.9093153724636736e+01  7.2533843120929617e+01  7.4555699885330199e+01  7.6366127401491923e+01  7.6877222669053282e+01  7.7672059156472670e+01  7.7926637634539162e+01  7.8074066194713879e+01  7.7986311019314783e+01  7.8184154899483673e+01  7.7701381931898311e+01  7.6995037959838356e+01  5.6382956641863409e+01  5.4798076757542830e+01  5.4346781112087491e+01  5.3448630641089331e+01  5.2576379340966589e+01  5.2149197023641101e+01  5.2273904726576859e+01  5.4412684099954802e+01  5.7148872184063613e+01  5.5253467571579861e+01  5.9316643296598272e+01  6.1239963064834761e+01  6.3158825900543562e+01  6.6045106802010466e+01  6.7354256423648039e+01  6.5741854680300989e+01  7.2309785305142370e+01  7.4426349745110485e+01  7.7231554462730330e+01  7.7845435267332462e+01  7.8618496894581767e+01  7.8919678653128685e+01  7.8984534013559411e+01  7.8746557518175251e+01  7.8852685683278381e+01  7.8542962420982079e+01  7.8034286664356941e+01  7.7616819616782706e+01  7.6942659611603148e+01  7.6445567037428106e+01  7.1311660092482185e+01  5.1732524904646269e+01  5.6137612184245199e+01  5.7686288151203378e+01  5.8895849913159260e+01  6.2156356566350432e+01  6.3896236220146143e+01  6.5002616293489368e+01  7.3723887640643866e+01  7.6227316747129436e+01  7.8468936187814151e+01  8.0013642802378996e+01  8.0001345906880175e+01  7.9972081075462313e+01  7.9747049565064884e+01  7.9636105857916363e+01  7.9227393736367176e+01  7.8805106115400449e+01  7.8222862479558216e+01  7.7224513349213780e+01  7.6127310345850745e+01  7.6982404557979351e+01  7.8992140658523937e+01  7.5450587606565222e+01  7.5428263894628188e+01  5.6564976526043381e+01  5.6985513553887877e+01  5.9440367877193658e+01  6.1503956610954333e+01  6.1982979432035997e+01  8.0175480382066283e+01  8.1260957876642436e+01  8.1050671304529928e+01  8.0960124076170871e+01  8.0722244977663351e+01  8.0463009253666158e+01  8.0589021640212039e+01  8.0161186160730821e+01  8.0201990930133817e+01  7.9620496593790222e+01  7.8826933688549659e+01  7.8209023816600208e+01  7.7233010756639331e+01  7.5874897125966925e+01  7.4431249137791312e+01  7.3807444642363393e+01  7.3831109543024994e+01  7.9721189839654471e+01  5.7767358501303413e+01  5.8492969396367215e+01  8.1828232681779113e+01  8.1693347569941892e+01  8.1379997606078419e+01  8.1084307163301347e+01  8.1228045953021095e+01  8.1250441154244655e+01  8.0709264519277056e+01  8.0635047911346248e+01  8.0114812845084543e+01  7.9707550374082430e+01  7.9208747128483495e+01  7.8670528412265398e+01  7.8006338978386580e+01  7.6499018895274020e+01  7.5777664774935232e+01  7.3857503372641062e+01  7.1889211176030017e+01  7.1489386357497295e+01  7.1763404553582589e+01  7.3014263903307665e+01  8.2061918321854193e+01  8.2070989119943775e+01  8.1820903774085764e+01  8.1628828080975310e+01  8.1557871213127598e+01  8.1049320972225829e+01  8.1070914848523500e+01  8.0206534306484130e+01  8.0653607169598146e+01  8.0148679691109521e+01  7.9489913322682597e+01  7.8931419893588526e+01  7.8371884958689421e+01  7.7734979969718012e+01  7.7251659919979389e+01  7.6276665739766429e+01  7.5205080718746231e+01  7.5036601619993974e+01  7.3944519192622380e+01  7.2669743374773674e+01  7.2032794842170176e+01  7.0185001055413821e+01  6.9403072253230107e+01  6.7456406213587343e+01  6.9538554954362951e+01  8.1951577435451796e+01  8.2053277304741314e+01  8.2112690766674532e+01  8.1969610290688749e+01  8.1867133030166656e+01  8.1607809688329993e+01  8.1012293906454104e+01  8.0600838384036393e+01  8.0409972730194809e+01  7.9918747568285454e+01  7.9225759052452517e+01  7.8627992455856614e+01  7.7944442812087559e+01  7.6671022785059648e+01  7.5617122946978668e+01  7.4790394114072001e+01  7.3626395494117190e+01  7.1957691891834429e+01  7.1168704384110086e+01  6.9566293637254645e+01  6.7834199026118014e+01  6.5653852335351004e+01  8.1524398777149003e+01  8.1509112847267019e+01  8.1635174627817420e+01  8.1886726868979238e+01  8.2077768178816555e+01  8.2053760107675117e+01  8.1920351613644328e+01  8.1574751767035011e+01  8.1307102236404091e+01  8.0839726667351826e+01  8.0604735543855526e+01  8.0127585101935765e+01  7.9645329122342417e+01  7.9046086477208974e+01  7.8207605503394944e+01  7.7469532325347842e+01  7.6235595655448975e+01  7.5309111514702494e+01  7.4216039442822691e+01  7.2766653988409814e+01  7.1551967399757473e+01  7.0516712863437832e+01  6.9100862429955313e+01  6.7766384727706949e+01  6.5798066984997888e+01  6.3315036848667390e+01  6.3496573266837913e+01  8.0540695560932491e+01  8.0580705197312255e+01  8.0961042898645118e+01  8.1224618258276166e+01  8.1590691924336369e+01  8.1810231638306661e+01  8.2008140266245107e+01  8.2018718008244321e+01  8.1862347059150977e+01  8.1769657056508507e+01  8.1512234004673388e+01  8.1108869125320524e+01  8.0472931123287793e+01  7.9904097668227180e+01  7.9373205865369968e+01  7.8863521342925466e+01  7.7987574966814222e+01  7.7154429680522384e+01  7.6954715653418589e+01  7.5504625888739426e+01  7.4848112116097155e+01  7.3681258177563848e+01  7.3159530217641276e+01  7.2047277770953855e+01  7.0967018827083919e+01  7.0276430712007638e+01  6.8799848598733334e+01  6.7512647742044138e+01  6.5842196632633531e+01  6.3670712173444230e+01  6.0854907384834100e+01  6.0386601368078367e+01  6.0731205408309876e+01  7.8999053136078530e+01  7.9042375658665151e+01  7.9829914452384870e+01  8.0305535447223463e+01  8.0695314081222023e+01  8.1070997871639989e+01  8.1416561616185760e+01  8.1671829444981782e+01  8.1743887561327597e+01  8.1658974464296676e+01  8.1336347451982405e+01  8.1061778906559681e+01  8.0743998142980615e+01  8.0356041054847864e+01  7.9830317587737639e+01  7.9288807419142756e+01  7.8421125821884189e+01  7.7739578392632353e+01  7.6795556176821805e+01  7.5871122903894289e+01  7.4864060532798007e+01  7.4338611075719825e+01  7.3379829641432266e+01  7.2615211155691910e+01  7.1645616783637351e+01  7.0570173901678430e+01  6.9798908605041731e+01  8.1936548291269546e+01  5.7368127287134385e+01  5.7171882854278095e+01  5.7330651022943982e+01  7.7302651908626927e+01  7.7267686042500898e+01  7.6975905013506178e+01  7.8723831492302921e+01  7.8545204928343964e+01  7.9343471491220242e+01  8.0112105631694860e+01  8.0700741983487461e+01  8.1174881879524037e+01  8.1454835590993540e+01  8.1448290185684243e+01  8.1577636922020972e+01  8.1605110768861209e+01  8.1493568102357216e+01  8.1141237590393587e+01  8.0848029960540487e+01  8.0461719294857403e+01  8.0156533846040773e+01  7.9720129294204057e+01  7.9121886268882150e+01  7.8648252337209371e+01  7.7634924192982396e+01  7.6811945447720973e+01  7.6111639375042259e+01  7.5335213357720122e+01  7.4164921911415703e+01  7.3810179285417860e+01  7.2903021466135939e+01  7.2096507336079554e+01  7.1166049235297336e+01  7.4203720458072922e+01  5.3394276181503486e+01  5.3468439410634439e+01  5.3533576401426387e+01  7.6361856814705945e+01  7.5203154137356094e+01  7.4778702574735547e+01  7.7375226818689825e+01  7.8350514932092949e+01  7.9267305298458410e+01  7.9949492863916106e+01  8.0381898438695160e+01  8.0794379177125734e+01  8.0892440155228329e+01  8.1214067012990654e+01  8.1308545134832315e+01  8.1440933205955929e+01  8.1459185470116097e+01  8.1455432597457346e+01  8.1302123706004835e+01  8.1025707380096165e+01  8.0721975251146716e+01  8.0381270370116624e+01  7.9957843164673406e+01  7.9514256162014661e+01  7.8672135252368065e+01  7.8193538875053164e+01  7.7286280406412573e+01  7.6326809334627455e+01  7.5505926815386715e+01  7.4669772407702922e+01  7.3391788438597402e+01  7.3110975577464671e+01  7.2806850901984703e+01  7.1615859283674638e+01  7.4525513263335256e+01  7.3465007772060716e+01  7.2702096350205437e+01  7.5321110185440347e+01  7.6715496681968773e+01  7.7865699944942378e+01  7.8436578020104776e+01  7.8853954518869841e+01  7.9682024389565981e+01  8.0072954041557779e+01  8.0596086379663049e+01  8.1063004029570706e+01  8.1226456952601637e+01  8.1332578767231809e+01  8.1327297540681755e+01  8.1220277685034816e+01  8.0917632224656799e+01  8.0614771215106302e+01  8.0080675278230231e+01  7.9733798228749038e+01  7.9202106329887357e+01  7.8675088514391106e+01  7.8178191142411919e+01  7.7557883232198606e+01  7.6793325393118110e+01  7.5640484979787686e+01  7.4691909116474193e+01  7.4067691844261262e+01  7.3115857524024960e+01  7.2279819119978029e+01  7.2157028315558506e+01  7.1940371510628026e+01  7.2143866996583697e+01  7.0916888000682420e+01  7.3645731265883697e+01  7.3401063089723962e+01  7.4788578477090553e+01  7.6149885207659068e+01  7.6848182905965629e+01  7.7705949815444697e+01  7.8403438562998346e+01  7.9219655529489145e+01  7.9555433877395956e+01  7.9878284309380859e+01  8.0353738379711118e+01  8.0773156298411351e+01  8.0930374410925396e+01  8.1103884918459769e+01  8.1245566724354475e+01  8.1197246076685161e+01  8.1169711451357983e+01  8.0930898978235433e+01  8.0630496541131862e+01  8.0334709597329820e+01  7.9933067514654880e+01  7.9626805276877121e+01  7.9585697157726187e+01  7.9034017310271352e+01  7.8514618775289264e+01  7.7973509632454906e+01  7.7415372146832695e+01  7.6731583764228304e+01  7.5928370371611038e+01  7.4814176467413304e+01  7.3813376400746336e+01  7.3225413129105760e+01  7.2311145097227637e+01  7.0331452984340586e+01  7.0194071763807230e+01  7.1537093474944740e+01  7.2303530333948515e+01  7.3620869266613582e+01  7.4215621392335905e+01  7.5374371091578510e+01  7.5999778261199481e+01  7.6920433674619019e+01  7.8240991775902273e+01  7.8931277349690149e+01  7.9388115280472633e+01  8.0029837420556660e+01  8.0443686803124791e+01  8.0782669498232764e+01  8