<?xml version="1.0"?>
<VTKFile type="UnstructuredGrid"  version="0.1"  >
<UnstructuredGrid>
<Piece  NumberOfPoints="15319" NumberOfCells="29424">
<Points>
<DataArray  type="Float64"  NumberOfComponents="3"  format="ascii">3 0.504901692839906 0  2.870592087154655 0.4823683486186197 0  3 0.801932550640429 0  2.712819609700631 0.425639219401261 0  2.923581848878968 0.7707455466369024 0  3 0.969048513443635 0  2.517702506464375 0.3569366752858338 0  2.793348253300635 0.6900223799509527 0  2.976138185262463 0.9522763705249254 0  3 0.9990234747496692 0  2.292893218813733 0.2928932188137324 0  2.596341378041969 0.5963413780419684 0  2.889665833804265 0.8896658338042651 0  2.996096130844971 0.996096130844971 0  3 1 0  2.356936675285834 0.5177025064643754 0  2.690022379950953 0.7933482533006351 0  2.952276370524925 0.9761381852624627 0  2.999023474749669 1 0  3 1.000976525250331 0  3.003903869155029 1.003903869155029 0  3.000976525250331 1 0  2.425639219401261 0.7128196097006305 0  2.770745546636902 0.9235818488789674 0  2.969048513443635 1 0  2.996096130844971 1.003903869155029 0  3 1.030951486556365 0  3.023861814737537 1.047723629475075 0  3.110334166195735 1.110334166195735 0  3.047723629475075 1.023861814737537 0  3.030951486556365 1 0  2.482368348618619 0.8705920871546549 0  2.801932550640429 1 0  2.952276370524925 1.023861814737537 0  2.976138185262463 1.047723629475075 0  3 1.198067449359571 0  3.076418151121032 1.229254453363098 0  3.206651746699365 1.309977620049047 0  3.403658621958031 1.403658621958032 0  3.309977620049047 1.206651746699365 0  3.229254453363098 1.076418151121032 0  3.198067449359571 1 0  2.504901692839906 1 0  2.770745546636902 1.076418151121032 0  2.889665833804265 1.110334166195735 0  2.923581848878968 1.229254453363098 0  3 1.495098307160094 0  3.129407912845345 1.517631651381381 0  3.287180390299369 1.574360780598739 0  3.482297493535625 1.643063324714166 0  3.707106781186268 1.707106781186268 0  3.643063324714166 1.482297493535625 0  3.574360780598739 1.287180390299369 0  3.517631651381381 1.129407912845345 0  3.495098307160094 1 0  2.482368348618619 1.129407912845345 0  2.690022379950953 1.206651746699365 0  2.793348253300635 1.309977620049047 0  2.870592087154655 1.517631651381381 0  2.425639219401261 1.287180390299369 0  2.596341378041969 1.403658621958032 0  2.712819609700631 1.574360780598739 0  2.356936675285834 1.482297493535625 0  2.517702506464375 1.643063324714166 0  2.292893218813732 1.707106781186268 0  2 4.495098307160094 0  1.870592087154655 4.517631651381381 0  2 4.198067449359571 0  1.712819609700631 4.574360780598739 0  1.923581848878968 4.229254453363097 0  2 4.030951486556365 0  1.517702506464375 4.643063324714166 0  1.793348253300635 4.309977620049048 0  1.976138185262463 4.047723629475074 0  2 4.000976525250331 0  1.292893218813733 4.707106781186267 0  1.596341378041968 4.403658621958032 0  1.889665833804265 4.110334166195734 0  1.996096130844971 4.003903869155029 0  2 4 0  1.356936675285834 4.482297493535625 0  1.690022379950953 4.206651746699364 0  1.952276370524925 4.023861814737537 0  1.999023474749669 4 0  2 3.999023474749669 0  2.003903869155029 3.996096130844971 0  2.000976525250331 4 0  1.425639219401261 4.28718039029937 0  1.770745546636902 4.076418151121032 0  1.969048513443635 4 0  1.996096130844971 3.996096130844971 0  2 3.969048513443635 0  2.023861814737537 3.952276370524925 0  2.110334166195735 3.889665833804265 0  2.047723629475075 3.976138185262463 0  2.030951486556365 4 0  1.482368348618619 4.129407912845346 0  1.801932550640429 4 0  1.952276370524925 3.976138185262463 0  1.976138185262463 3.952276370524925 0  2 3.801932550640429 0  2.076418151121032 3.770745546636902 0  2.206651746699365 3.690022379950953 0  2.403658621958031 3.596341378041969 0  2.309977620049047 3.793348253300635 0  2.229254453363098 3.923581848878968 0  2.198067449359571 4 0  1.504901692839906 4 0  1.770745546636902 3.923581848878968 0  1.889665833804265 3.889665833804265 0  1.923581848878968 3.770745546636902 0  2 3.504901692839906 0  2.129407912845345 3.482368348618619 0  2.287180390299369 3.425639219401261 0  2.482297493535625 3.356936675285834 0  2.707106781186268 3.292893218813732 0  2.643063324714166 3.517702506464375 0  2.574360780598739 3.712819609700631 0  2.517631651381381 3.870592087154655 0  2.495098307160094 4 0  1.482368348618619 3.870592087154655 0  1.690022379950953 3.793348253300635 0  1.793348253300635 3.690022379950953 0  1.870592087154655 3.482368348618619 0  1.425639219401261 3.712819609700631 0  1.596341378041968 3.596341378041969 0  1.712819609700631 3.425639219401261 0  1.356936675285834 3.517702506464375 0  1.517702506464375 3.356936675285834 0  1.292893218813732 3.292893218813732 0  -6 5.495098307160094 0  -5.870592087154655 5.517631651381381 0  -6 5.198067449359571 0  -5.712819609700631 5.574360780598739 0  -5.923581848878968 5.229254453363097 0  -6 5.030951486556365 0  -5.517702506464375 5.643063324714166 0  -5.793348253300636 5.309977620049048 0  -5.976138185262463 5.047723629475074 0  -6 5.000976525250331 0  -5.292893218813733 5.707106781186267 0  -5.596341378041968 5.403658621958032 0  -5.889665833804266 5.110334166195734 0  -5.996096130844971 5.003903869155029 0  -6 5 0  -5.356936675285834 5.482297493535625 0  -5.690022379950952 5.206651746699364 0  -5.952276370524926 5.023861814737537 0  -5.999023474749669 5 0  -6 4.999023474749669 0  -6.003903869155029 4.996096130844971 0  -6.000976525250331 5 0  -5.425639219401261 5.28718039029937 0  -5.770745546636903 5.076418151121032 0  -5.969048513443635 5 0  -5.996096130844971 4.996096130844971 0  -6 4.969048513443635 0  -6.023861814737537 4.952276370524926 0  -6.110334166195734 4.889665833804266 0  -6.047723629475074 4.976138185262463 0  -6.030951486556365 5 0  -5.482368348618619 5.129407912845346 0  -5.801932550640429 5 0  -5.952276370524926 4.976138185262463 0  -5.976138185262463 4.952276370524926 0  -6 4.801932550640429 0  -6.076418151121032 4.770745546636903 0  -6.206651746699364 4.690022379950952 0  -6.403658621958032 4.596341378041968 0  -6.309977620049048 4.793348253300636 0  -6.229254453363097 4.923581848878968 0  -6.198067449359571 5 0  -5.504901692839906 5 0  -5.770745546636903 4.923581848878968 0  -5.889665833804266 4.889665833804266 0  -5.923581848878968 4.770745546636903 0  -6 4.504901692839906 0  -6.129407912845346 4.482368348618619 0  -6.28718039029937 4.425639219401261 0  -6.482297493535625 4.356936675285834 0  -6.707106781186267 4.292893218813733 0  -6.643063324714166 4.517702506464375 0  -6.574360780598739 4.71281960970063 0  -6.517631651381381 4.870592087154654 0  -6.495098307160094 5 0  -5.482368348618619 4.870592087154654 0  -5.690022379950952 4.793348253300636 0  -5.793348253300636 4.690022379950952 0  -5.870592087154654 4.482368348618619 0  -5.425639219401261 4.71281960970063 0  -5.596341378041968 4.596341378041968 0  -5.71281960970063 4.425639219401261 0  -5.356936675285834 4.517702506464375 0  -5.517702506464375 4.356936675285834 0  -5.292893218813733 4.292893218813733 0  -5 2.504901692839906 0  -4.870592087154655 2.482368348618619 0  -5 2.801932550640429 0  -4.712819609700631 2.425639219401261 0  -4.923581848878968 2.770745546636902 0  -5 2.969048513443635 0  -4.517702506464375 2.356936675285834 0  -4.793348253300636 2.690022379950953 0  -4.976138185262463 2.952276370524925 0  -5 2.999023474749669 0  -4.292893218813733 2.292893218813732 0  -4.596341378041968 2.596341378041969 0  -4.889665833804266 2.889665833804265 0  -4.996096130844971 2.996096130844971 0  -5 3 0  -4.356936675285834 2.517702506464375 0  -4.690022379950952 2.793348253300635 0  -4.952276370524926 2.976138185262463 0  -4.999023474749669 3 0  -5 3.000976525250331 0  -5.003903869155029 3.003903869155029 0  -5.000976525250331 3 0  -4.425639219401261 2.712819609700631 0  -4.770745546636903 2.923581848878968 0  -4.969048513443635 3 0  -4.996096130844971 3.003903869155029 0  -5 3.030951486556365 0  -5.023861814737537 3.047723629475075 0  -5.110334166195734 3.110334166195735 0  -5.047723629475074 3.023861814737537 0  -5.030951486556365 3 0  -4.482368348618619 2.870592087154655 0  -4.801932550640429 3 0  -4.952276370524926 3.023861814737537 0  -4.976138185262463 3.047723629475075 0  -5 3.198067449359571 0  -5.076418151121032 3.229254453363098 0  -5.206651746699364 3.309977620049047 0  -5.403658621958032 3.403658621958031 0  -5.309977620049048 3.206651746699365 0  -5.229254453363097 3.076418151121032 0  -5.198067449359571 3 0  -4.504901692839906 3 0  -4.770745546636903 3.076418151121032 0  -4.889665833804266 3.110334166195735 0  -4.923581848878968 3.229254453363098 0  -5 3.495098307160094 0  -5.129407912845346 3.517631651381381 0  -5.28718039029937 3.574360780598739 0  -5.482297493535625 3.643063324714166 0  -5.707106781186267 3.707106781186268 0  -5.643063324714166 3.482297493535625 0  -5.574360780598739 3.287180390299369 0  -5.517631651381381 3.129407912845345 0  -5.495098307160094 3 0  -4.482368348618619 3.129407912845345 0  -4.690022379950952 3.206651746699365 0  -4.793348253300636 3.309977620049047 0  -4.870592087154654 3.517631651381381 0  -4.425639219401261 3.287180390299369 0  -4.596341378041968 3.403658621958031 0  -4.71281960970063 3.574360780598739 0  -4.356936675285834 3.482297493535625 0  -4.517702506464375 3.643063324714166 0  -4.292893218813733 3.707106781186268 0  5 1 0  4.83038291558927 1.060287186691953 0  5 1.1875 0  4.660765831178542 1.120574373383906 0  4.752051342018341 1.352229284786525 0  5 1.375 0  4.491148746767813 1.180861560075859 0  4.4322882905522 1.432262198034769 0  4.613242116355901 1.55893932648076 0  5 1.5625 0  4.321531662357083 1.241148746767812 0  4.219575161945451 1.491797959243029 0  4.23268619585246 1.762072368835434 0  4.493304945754296 1.792284526517738 0  4.746989430303032 1.775180020690435 0  5 1.75 0  3.982297493535625 1.361723120151718 0  3.966678612559707 1.765358815105942 0  4.001984264978835 2.029033512423678 0  4.337442301453079 2.02507858124129 0  4.620523510659621 2.02
[...]
<PointData  Scalars="u"> 
<DataArray  type="Float64"  Name="u"  format="ascii">5.3501601522945244e+01  5.7316161371297262e+01  5.3618014702935689e+01  6.0688772180923912e+01  5.8274991534042577e+01  5.4507186856714924e+01  6.3457673884273945e+01  6.2226767843529849e+01  5.8069696853987288e+01  3.8375811178369126e+01  6.5647476200211486e+01  6.5210347724554964e+01  6.4258898482551047e+01  3.5525446254448248e+01  3.8901052984491884e+01  6.7405937250756779e+01  6.7367959881110238e+01  6.8412473967448221e+01  7.1312611262629531e+01  7.1296295286511508e+01  1.5306562803942307e+02  3.8373633782222178e+01  6.9391216245324799e+01  6.9944450334126387e+01  7.1695273671718283e+01  7.0482511588471127e+01  7.1596026243314881e+01  6.8194669412223021e+01  6.3665370479490370e+01  5.7854579296711258e+01  5.4414363902482570e+01  7.1499121409335018e+01  7.2550703124987763e+01  7.4572261017633622e+01  7.4484408008195842e+01  7.1946549769054656e+01  6.9013863554498315e+01  6.5799926797427815e+01  6.2791890411935896e+01  6.0696319354595850e+01  5.7317889980151143e+01  5.3038631417013406e+01  7.3509404428562632e+01  7.4564215825970479e+01  7.5237050264705559e+01  7.4093910662352584e+01  7.1946566351128737e+01  6.9471203516212981e+01  6.6708051207069360e+01  6.3935559803045898e+01  6.1359932624830357e+01  6.0130857476227561e+01  5.8189886467839415e+01  5.5466614814649887e+01  5.2109157392587420e+01  7.5107029347502291e+01  7.5696397446520592e+01  7.5364112784278433e+01  7.3869536598985235e+01  7.6209111402777069e+01  7.6186049613182945e+01  7.5284438756563347e+01  7.6877607935806282e+01  7.6358478352769737e+01  7.7252456795277723e+01  5.9383137012620914e+01  6.3083273375319138e+01  5.9618755905512941e+01  6.6310073317552892e+01  6.4181410014679486e+01  6.0592789161507049e+01  6.8909482161722934e+01  6.7968591955652911e+01  6.4115498549687189e+01  4.4475690953489860e+01  7.0921739478575347e+01  7.0731172655351159e+01  7.0172009614408779e+01  4.1617434106350530e+01  4.5004521868773935e+01  7.2687215736640667e+01  7.3010507385381175e+01  7.4439684364063496e+01  7.7405625016135517e+01  7.7409407838160362e+01  1.5918877984753897e+02  4.4481208887763870e+01  7.4711705102205528e+01  7.5717720710095378e+01  7.7753084539843712e+01  7.6583415203955084e+01  7.7724059538818906e+01  7.4359651499737282e+01  6.9981425805386863e+01  6.4033351062855601e+01  6.0556520497882374e+01  7.6873279648481343e+01  7.8390278079990509e+01  8.0622656288739790e+01  8.0600535326005527e+01  7.8175782906223333e+01  7.5379072933353058e+01  7.2421597970491362e+01  6.9766545869562052e+01  6.7334045803474041e+01  6.3745193980904247e+01  5.9370530743796266e+01  7.8908017069708833e+01  8.0384278996631522e+01  8.1250219981920480e+01  8.0226570896608251e+01  7.8426077381372679e+01  7.6209332365156044e+01  7.3775749913810259e+01  7.1367037816564576e+01  6.9091482793635066e+01  6.7428908361982565e+01  6.5160497258837637e+01  6.2206984956813059e+01  5.8699598911342029e+01  8.0461117199518625e+01  8.1423892140550606e+01  8.1321994762679353e+01  8.0107854522217522e+01  8.1441341200803677e+01  8.1777238158708229e+01  8.1202433821654438e+01  8.1921312609304039e+01  8.1799605197961668e+01  8.2055529438628298e+01  5.3574499485549431e+01  5.7554795965857060e+01  5.3439088509124694e+01  6.1143077973877503e+01  5.8220234171136426e+01  5.4134711882048663e+01  6.4160695968495446e+01  6.2413840946611572e+01  5.7734387871294857e+01  3.8111646754480383e+01  6.6604835244589751e+01  6.5718193432691351e+01  6.4118020591913307e+01  3.5039652815684974e+01  3.6828708712354825e+01  6.8243005300106105e+01  6.7620018665992646e+01  6.8019375674366856e+01  7.0328516473788810e+01  7.0328469379822991e+01  1.5192945813939212e+02  3.8110993454571783e+01  7.0074647460973367e+01  6.9949743975147143e+01  7.1091845927821780e+01  6.9397672932983639e+01  7.0915679537941912e+01  6.7610128633400848e+01  6.2925481016679669e+01  5.7328730710685093e+01  5.3959244906015165e+01  7.2024097236756020e+01  7.2415186668554540e+01  7.4048268684607891e+01  7.3869265417688297e+01  7.1230975557947190e+01  6.8140415869507336e+01  6.4603432372463885e+01  6.1156261359916755e+01  5.9547953414336597e+01  5.6483368280225370e+01  5.2361803414493131e+01  7.3916969209489196e+01  7.4403358850516369e+01  7.4799816249946446e+01  7.3466284361355733e+01  7.0732435254223120e+01  6.7974415900150234e+01  6.4833092798534622e+01  6.1658342701284198e+01  5.8755667859488625e+01  5.8093516961228801e+01  5.6606244211502130e+01  5.4215302898576041e+01  5.1080555344915354e+01  7.5460762655995680e+01  7.5556492088842987e+01  7.4876875273271139e+01  7.2872246973096466e+01  7.6547934072826962e+01  7.6007406801730468e+01  7.4540834583420462e+01  7.7199893584084293e+01  7.6021187321626030e+01  7.7520669632112572e+01  6.0576225415948436e+01  6.4289007504834032e+01  6.0816969576841998e+01  6.7523310409665470e+01  6.5373606833369095e+01  6.1782089205421137e+01  7.0123920691900835e+01  6.9160914499219516e+01  6.5287156421373467e+01  4.5811866272453365e+01  7.2129304984944625e+01  7.1921356688374217e+01  7.1339444581990293e+01  4.2723669394905158e+01  4.4531715155789499e+01  7.3861788892329670e+01  7.4180828431187791e+01  7.5545727416939656e+01  7.8028564065840754e+01  7.8032825197289455e+01  1.5964882990376438e+02  4.5817073083242256e+01  7.5859782908188521e+01  7.6868597198969596e+01  7.8705221299333431e+01  7.7096926215385736e+01  7.8677890971579501e+01  7.5469617635114844e+01  7.1158480931678469e+01  6.5207907291327913e+01  6.1747056605369686e+01  7.8000456630574803e+01  7.9523248830567582e+01  8.1631711145840342e+01  8.1611229769445899e+01  7.9330945899122369e+01  7.6561206694446028e+01  7.3633779394887128e+01  7.0970983353793287e+01  6.8520564523653505e+01  6.4930077864521451e+01  6.0560360404089217e+01  8.0010327978292437e+01  8.1507973848464005e+01  8.2361826334279527e+01  8.1369532333997611e+01  7.9616545555639320e+01  7.7443152359638958e+01  7.5040788087948030e+01  7.2616045572136002e+01  7.0180401926714580e+01  6.8509735411626934e+01  6.6247379815844099e+01  6.3299228185264610e+01  5.9784192041140869e+01  8.1517275035734798e+01  8.2509949065483966e+01  8.2423939922072861e+01  8.1231358341197591e+01  8.2409533516493255e+01  8.2778629748813813e+01  8.2206022702885591e+01  8.2740486190708822e+01  8.2617443582601382e+01  8.2648186854951518e+01  4.8493035241993041e+01  4.9224044573468170e+01  4.9525768400971579e+01  5.0068832980507892e+01  5.1260712372788916e+01  5.0494735254246052e+01  5.1055855586350503e+01  5.3209088070939387e+01  5.3082308543809461e+01  5.1370575605005769e+01  5.2225221579457781e+01  5.4912014092433687e+01  5.6643361171868143e+01  5.4987632797086164e+01  5.3452104291599355e+01  5.2134722154350463e+01  5.5371317243083475e+01  5.8946198630632125e+01  5.9826987233412929e+01  5.7010642477659552e+01  5.5082650752607279e+01  5.2771505885292015e+01  5.7507080513237298e+01  6.1363235437642437e+01  6.2274991941779604e+01  6.2873457973723426e+01  6.0666152544791515e+01  5.8410295506019885e+01  5.6828044594631784e+01  5.4684924136782037e+01  5.3271599149716472e+01  6.0128162316151858e+01  6.5056218795343867e+01  6.5479954457619854e+01  6.4410528263365066e+01  6.1770556560439971e+01  5.9623886487910497e+01  5.7649281181910347e+01  5.6121830315746891e+01  5.4939247193442895e+01  5.3855994444500929e+01  6.3936650001337576e+01  6.8325171739330969e+01  6.8945946048153345e+01  6.7865664677339268e+01  6.6859153407697491e+01  6.3697667083336256e+01  6.0905146102665064e+01  5.9121823945088266e+01  5.7955389124864702e+01  5.6530939214403404e+01  5.4961993151857442e+01  5.3916155192620721e+01  7.0389373811285552e+01  6.8523265084995501e+01  6.5406985765214642e+01  6.2713400840257393e+01  6.0449258475538763e+01  5.8411955484571813e+01  5.7606373730768027e+01  5.6907780916817721e+01  5.5423402441388411e+01  5.3520583819397736e+01  7.1363775710581848e+01  7.2069244636718651e+01  7.1820222448518180e+01  7.2639973157159346e+01  7.3821480695152232e+01  7.4723170967523103e+01  7.1593909032433587e+01  7.0848233003625097e+01  6.7208425300945166e+01  6.4041224418563658e+01  6.6421964580249082e+01  6.1059401490784296e+01  5.8886969681403357e+01  5.6991281674129254e+01  5.6449686130470809e+01  5.6241178321988805e+01  5.4492952176165652e+01  5.3736515061910914e+01  5.2757876425085541e+01  7.3930162206918794e+01  7.3881905465154304e+01  7.4285639762404543e+01  7.2404930687152770e+01  6.9091390628285552e+01  6.6429474337631731e+01  6.4201017719960163e+01  6.0877104870955023e+01  5.8687095117560084e+01  5.6871425889989418e+01  5.5321550347086685e+01  5.5054861596850046e+01  5.3982597620821984e+01  5.2784724937695806e+01  5.2271547962832585e+01  7.4503417687944960e+01  7.6279487698362402e+01  7.6362563096210707e+01  5.4899424126887631e+01  7.6347059964669256e+01  7.6864912347463772e+01  7.6624782653365031e+01  7.6569190966058898e+01  7.4959068170368568e+01  7.1369075444144940e+01  6.7428983315506713e+01  6.3663058536643035e+01  5.3969531487999234e+01  5.1732672241330746e+01  7.7256795042079816e+01  7.7742814804858710e+01  7.8418793707025671e+01  7.8557464778123631e+01  7.7927285843129425e+01  7.7665432598288490e+01  7.6878087325496708e+01  7.8558473591519316e+01  7.8536967407975595e+01  7.9959783905327825e+01  7.8453101780305389e+01  7.9806864740504096e+01  8.0025326195135975e+01  8.1074231340250435e+01  8.1674746213975723e+01  8.0796488483230050e+01  7.9531413239036183e+01  7.8553061408129693e+01  7.8262746089199794e+01  7.7461149405065299e+01  7.6484236750181452e+01  7.6817115536290771e+01  7.6018824282924797e+01  8.0440045566300000e+01  7.9507499241387620e+01  7.8398562930521564e+01  7.6780807779402423e+01  7.5422819443236307e+01  7.4099578826978444e+01  7.5442201722085628e+01  7.3882698876506836e+01  8.0982201109758861e+01  8.1628579212236389e+01  8.2021156479781325e+01  8.2056468678908900e+01  8.1799523627327432e+01  8.0156642727426728e+01  7.9190410771399655e+01  7.8444809760569498e+01  7.7459970116671542e+01  7.6205404642394669e+01  7.4667189394628707e+01  7.3489223821110812e+01  7.1012498638547413e+01  7.0735486740720901e+01  7.3342498556945230e+01  7.0650040318126401e+01  8.1077783952763511e+01  8.1743033110843626e+01  8.1998140786751534e+01  8.2099464570736941e+01  8.2013385242086528e+01  8.1921415443953947e+01  8.0721646295472382e+01  7.9785660610837979e+01  7.9163828249266274e+01  7.7639338055444597e+01  7.6458103157565603e+01  7.4678210509931503e+01  7.3498859824627147e+01  7.2505190366530002e+01  7.0190862991135901e+01  6.7960091481183682e+01  6.5642913535969498e+01  6.7407298553685493e+01  8.0528899933403835e+01  8.1140659476955207e+01  8.1484253277023171e+01  8.1716057065193283e+01  8.1935590618504207e+01  8.2046156628931840e+01  8.1919385959261376e+01  8.1520624172558740e+01  8.1496533256019873e+01  8.1124479935939135e+01  8.0219144389632291e+01  7.9374745634551672e+01  7.8460655891545770e+01  7.7323380820076466e+01  7.6094187583081847e+01  7.5185640495478040e+01  7.3849379446892883e+01  7.2629068857915129e+01  7.0762500257003182e+01  6.8798927122244550e+01  6.7210343273448970e+01  6.5038946910508130e+01  6.2065369044997283e+01  6.3452159213518762e+01  8.0797379883042368e+01  8.1278431159011475e+01  8.1472890681370387e+01  8.1747570916031407e+01  8.1742059771611721e+01  8.1863533791230651e+01  8.1880395782725756e+01  8.1547373135581807e+01  8.0593009966679688e+01  8.0170704664964816e+01  7.9044488381213668e+01  7.9717001609169827e+01  8.0432743999293024e+01  8.0967598779649279e+01  8.0976575537147951e+01  8.1477572725025198e+01  8.1517686146487520e+01  8.1534396699868168e+01  8.1688813493320524e+01  8.1506526069659245e+01  8.1322160329774107e+01  8.0321300905749567e+01  7.9191961672387848e+01  7.7019633755353922e+01  7.5887754161518657e+01  7.8670441417818665e+01  7.7892605431674383e+01  7.6821181306421678e+01  7.5223817444551742e+01  7.4597912325659365e+01  7.2478334271635660e+01  7.1385850625373919e+01  6.9968116553508963e+01  5.7999435645303926e+01  5.8121503783459318e+01  8.0309053248340959e+01  8.0835078111779225e+01  8.1224058425720074e+01  8.1392747228955756e+01  8.1310291478635406e+01  8.1387207566796320e+01  8.1413656794426089e+01  8.1150133891045016e+01  8.0677080720089563e+01  7.9513290987782511e+01  8.0320961218012698e+01  7.9045119739341558e+01  7.8341981625583969e+01  7.7706386295187528e+01  7.6835797933775638e+01  7.5925637082988345e+01  7.4882070571706009e+01  7.3694635546990142e+01  7.3256587382027192e+01  7.2030289775084881e+01  7.0827287963073459e+01  7.9384999365237064e+01  7.8544731829384801e+01  7.6489005652061479e+01  7.4433112669814776e+01  7.2688878765514758e+01  5.3403659608441494e+01  7.9801298944993363e+01  8.0540931212709069e+01  8.0979832581822336e+01  8.1121356681383375e+01  8.0909516830087313e+01  8.1038627040826029e+01  8.1224669963286487e+01  8.1248179875283981e+01  8.1250742978359995e+01  8.0990924828009014e+01  8.0560674151176215e+01  7.9933572755571532e+01  7.9127954585534908e+01  7.8444003452848619e+01  7.7203907872747322e+01  7.5628966660359666e+01  7.3304707644996000e+01  7.1500080016737812e+01  7.0921234045677664e+01  7.7267630977053742e+01  7.8111181420248158e+01  7.8454304944253892e+01  7.9164112938491826e+01  7.4553973177646498e+01  7.5704677540768429e+01  7.6386725708155168e+01  7.2700095336303718e+01  7.2921295650682708e+01  7.1450775174235901e+01  8.0034146083672553e+01  8.0292306351198391e+01  8.0709251153571572e+01  8.0626758775120607e+01  8.0906959936508457e+01  8.1088010417265380e+01  8.1114429874536356e+01  8.1095903073455133e+01  8.0835702458513282e+01  8.0417761064579224e+01  7.9604406508096361e+01  7.8579694199906385e+01  7.8095768278000833e+01  7.6449499790703527e+01  7.4647969091249351e+01  7.2645467688099302e+01  7.0513259356969314e+01  6.8023413402214416e+01  6.8901093128780346e+01  7.7671398227899090e+01  7.6878803256320538e+01  7.6022164018241099e+01  7.5181434693191008e+01  7.3634631467286582e+01  7.3339988012974629e+01  7.2156134999624854e+01  7.1883276515235295e+01  7.7735365561683011e+01  7.8564286799735200e+01  7.9143528352400722e+01  7.9718365460518626e+01  8.0035922429073082e+01  7.9986924788734953e+01  8.0549633000895241e+01  8.0693889265201889e+01  8.0940624823617810e+01  8.1020918819912424e+01  8.0859747584959564e+01  8.0976339596273533e+01  8.0716069343231894e+01  8.0131148792460110e+01  7.9719958105262904e+01  7.8813095070785423e+01  7.7862590495120600e+01  7.7241677982737556e+01  7.6366164582820815e+01  7.3845705919209593e+01  7.1657735692206671e+01  7.0604690078458617e+01  6.8551520812217177e+01  6.7494737006004314e+01  6.4891388042683076e+01  6.4628091658126834e+01  7.6428296565979451e+01  7.5165975970445871e+01  7.4272603125134822e+01  7.3327504150045471e+01  7.2300848391149387e+01  7.2290626294505699e+01  7.7631007451943802e+01  7.8426081043057835e+01  7.9198377611150775e+01  7.9373876629159724e+01  7.8614935733312507e+01  7.9009369655195215e+01  7.9793585371052771e+01  8.0426048741782736e+01  8.0746750965567287e+01  8.0954562954946951e+01  8.0925275387490530e+01  8.0806510194726513e+01  8.0382409221104282e+01  7.9918842215355056e+01  7.9325202273526145e+01  7.8877374857319438e+01  7.7972513381650089e+01  7.6810753861844262e+01  7.5963030127860691e+01  7.5314912892003676e+01  7.3977113168184246e+01  7.2341773652706820e+01  7.0820924182224545e+01  6.9885517235910996e+01  6.9427602757263926e+01  6.7322635878851372e+01  6.6324642817065197e+01  6.3582776294163800e+01  6.1832880995540485e+01  8.0399543164509069e+01  7.6276337455739977e+01  7.7000163198327456e+01  7.7382711593688953e+01  7.7852098295498365e+01  7.4707512578224282e+01  7.5488586967058936e+01  7.3947210998373691e+01  7.3984186043554814e+01  7.3056305457704525e+01  7.2196479708461951e+01  7.7959887051956287e+01  7.6904482597338429e+01  7.5837279049588730e+01  7.6668000349836333e+01  7.8154324745252666e+01  7.9053462912543338e+01  7.9602209306764124e+01  8.0165056854312169e+01  8.0608461981751901e+01  8.0891150733453571e+01  8.0918285393443568e+01  8.0833962803976803e+01  8.0641860157259018e+01  8.0066993807526146e+01  7.9549570190697224e+01  7.8967494085050532e+01  7.8318773563060816e+01  7.7096530812098422e+01  7.6771398100940303e+01  7.5982987042018266e+01  7.5192571350793671e+01  7.3279526699356055e+01  7.1642900753946890e+01  6.9917329516819620e+01  6.9087401358138322e+01  6.8151180799180068e+01  6.8162571826673982e+01  6.5925753970024914e+01  6.5297345548356020e+01  6.4155102632938650e+01  6.1893500245505699e+01  6.0790430664151849e+01  7.4072211575966918e+01  7.4177614034296681e+01  7.5035608561423075e+01  7.3287785216014015e+01  7.1983102317661420e+01  7.3018707918456400e+01  7.7403423871126634e+01  7.7126767096497701e+01  7.7777986131168817e+01  7.8646222194290118e+01  7.9084766678439053e+01  7.9674642274428223e+01  8.0345542961501820e+01  8.0678420680546296e+01  8.0788223526990350e+01  8.0912390285369185e+01  8.0810606368408969e+01  8.0616403107598671e+01  8.0211081492932550e+01  7.9641296225471748e+01  7.8863759582263825e+01  7.8093192073666174e+01  7.6709198505604107e+01  7.5505973977109022e+01  7.5605627997470705e+01  7.4711502407205487e+01  7.3988447259885220e+01  7.2650355169792292e+01  7.0650090649807680e+01  7.6242092286218849e+01  7.5236985575950499e+01  7.4320315376225267e+01  7.3438093564000198e+01  7.2353923632756235e+01  7.1662246946151498e+01  6.7098638623194702e+01  6.4632110973672496e+01  6.3219674418060933e+01  6.1707861792978314e+01  6.0112476160381469e+01  5.9139131377758211e+01  5.9905102341098825e+01  7.6483801403852709e+01  7.5500479548224973e+01  7.4600301665688164e+01  7.3498275489222209e+01  7.2312171588136977e+01  7.1233693722878414e+01  7.6771878493244088e+01  7.7473719998236675e+01  7.8413609354994762e+01  7.9041573606871850e+01  7.9773583049683211e+01  8.0375886811170133e+01  8.0573662254015318e+01  8.0894592546305290e+01  8.0927325675312275e+01  8.0662877531120202e+01  8.0373123716880002e+01  7.9854250698092187e+01  7.9259328441131771e+01  7.8470656134416359e+01  7.7796594477048970e+01  7.6737176442740250e+01  7.5655235514228551e+01  7.4302648448121147e+01  7.3754776885684180e+01  7.4695034042642988e+01  7.5823687760372223e+01  8.0912004501780785e+01  7.2983069843249396e+01  7.1856313319693712e+01  5.8466524434976293e+01  7.3451782373508266e+01  7.2078590437190584e+01  7.1513517387695956e+01  7.0885337420963324e+01  7.4488567219038686e+01  7.5491175804455850e+01  7.6296847817358255e+01  7.6966810107389705e+01  7.7784531700764944e+01  7.8303140637732724e+01  7.9082428723804654e+01  8.0188257317476683e+01  7.9726819955713765e+01  8.0639087243499333e+01  8.0956688376445399e+01  8.1064672653270449e+01  8.0836900201308225e+01  8.0550035005157085e+01  8.0165122363028317e+01  7.9683631694174153e+01  7.9008116639652485e+01  7.8129697518907449e+01  7.6672554287821967e+01  7.7534203256341826e+01  7.5884756547038862e+01  7.4741677737137536e+01  7.3460027471909299e+01  7.2775826347708232e+01  7.3371992070433961e+01  7.4392941224662763e+01  7.5457634442618271e+01  7.5370311862650254e+01  7.2199515773069663e+01  7.0838951051137755e+01  7.0486581356454792e+01  7.6602650228350456e+01  7.7353295888327352e+01  7.8231690837690280e+01  7.9239715613133185e+01  7.9711656403500342e+01  8.0567717192881190e+01  8.1165583055971823e+01  8.1246944158898259e+01  8.1053009750228796e+01  8.0738565651185240e+01  8.0376642468375763e+01  7.9711967979745182e+01  7.9323008826857105e+01  7.8599285549723731e+01  7.7254291429105535e+01  7.6408624150293790e+01  7.5289499622318715e+01  7.3840224112552619e+01  7.5078920672574583e+01  7.2965240870435281e+01  7.2063570815618064e+01  7.1053975240801236e+01  7.0253406140746606e+01  6.9526831536411635e+01  7.4153550469030080e+01  7.4547635321223339e+01  7.5587081391420995e+01  7.6839719422498760e+01  7.7698072102154484e+01  7.8390066646462799e+01  7.9388749225332290e+01  8.0146547261243072e+01  8.0809716947952111e+01  8.1415375969649759e+01  8.1444436329900455e+01  8.1252344250831385e+01  8.0856894458985622e+01  8.0458492897750560e+01  7.9883643268741721e+01  7.8976787199591215e+01  7