<?xml version="1.0"?>
<VTKFile type="UnstructuredGrid"  version="0.1"  >
<UnstructuredGrid>
<Piece  NumberOfPoints="65" NumberOfCells="96">
<Points>
<DataArray  type="Float64"  NumberOfComponents="3"  format="ascii">0.00924879599350819 -0.00924879599350819 0  3.407001858613835 -4.542669144818447 0  4.542669144795958 -3.407001858596969 0  16.74821145047959 -33.49642290095917 0  0.1086164266588248 -0.1086164266588248 0  33.49642290095917 -16.74821145047959 0  68.61299382779822 -274.4519753111929 0  0.1847261894852845 -0.2770892842279268 0  0.277089284227918 -0.1847261894852786 0  274.4519753111929 -68.61299382779822 0  -0.00924879599350819 -0.00924879599350819 0  5.656854249492383 6.280369834735104e-16 0  -274.4519753111929 -68.61299382779825 0  -33.49642290095917 -16.74821145047959 0  -4.542669144795958 -3.407001858596969 0  -3.407001858596969 -4.542669144795958 0  -16.74821145047959 -33.49642290095917 0  -68.61299382779822 -274.4519753111929 0  0 5.656854249492383 0  18.93859459957188 -56.81578379871564 0  1.937195786978388 -1.937195786978388 0  56.81578379865049 -18.93859459955016 0  -5.656854249492383 0 0  -0.1086164266588248 -0.1086164266588248 0  23.83793724888971 0 0  -56.81578379865049 -18.93859459955016 0  -0.277089284227918 -0.1847261894852786 0  -0.1847261894852786 -0.277089284227918 0  -18.93859459955016 -56.81578379865049 0  0 23.83793724888971 0  1.980051468157392 -3.960102936314784 0  3.960102936314784 -1.980051468157392 0  -23.83793724888971 0 0  274.4519753111929 68.61299382779823 0  -1.937195786978388 -1.937195786978388 0  181.0193359837564 0 0  -3.960102936314784 -1.980051468157392 0  -1.980051468157392 -3.960102936314784 0  0 181.0193359837564 0  1.124193881841373 -1.124193881841373 0  -181.0193359837564 0 0  56.81578379871564 18.93859459957189 0  33.49642290095917 16.74821145047959 0  -1.124193881841373 -1.124193881841373 0  5792.61875143209 0 0  0 5792.61875143209 0  4.542669144818447 3.407001858613835 0  -5792.61875143209 0 0  3.960102936314784 1.980051468157392 0  0.2770892842279268 0.1847261894852845 0  0.009248795993505678 0.009248795993505678 0  0 0 0  0.1086164266588248 0.1086164266588248 0  1.124193881841373 1.124193881841373 0  1.937195786978388 1.937195786978388 0  3.407001858596968 4.542669144795958 0  0 -5792.61875143209 0  0.1847261894852572 0.2770892842278858 0  1.980051468138295 3.96010293627659 0  16.74820920948106 33.49641841896213 0  0 -181.0193359837564 0  18.93859459955016 56.81578379865049 0  68.61299382514082 274.4519753005633 0  0 -23.83793724888971 0  0 -5.656854249492384 0  </DataArray>
</Points>
<Cells>
<DataArray  type="UInt32"  Name="connectivity"  format="ascii">0 1 2  2 4 5  1 3 4  1 2 4  9 21 22  8 20 21  5 8 9  8 9 21  6 18 19  3 6 7  7 19 20  6 7 19  4 5 8  7 8 20  3 4 7  4 7 8  45 47 51  38 39 45  39 40 47  39 45 47  18 19 29  19 20 30  29 30 38  19 29 30  21 22 32  31 32 40  20 21 31  21 31 32  30 38 39  20 30 31  31 39 40  30 31 39  22 32 33  33 41 42  32 40 41  32 33 41  46 50 52  49 52 54  42 46 49  46 49 52  47 51 53  40 47 48  48 53 54  47 48 53  41 42 49  48 49 54  40 41 48  41 48 49  62 63 64  60 61 63  59 61 62  61 62 63  51 53 56  53 54 58  56 58 60  53 56 58  50 52 55  55 57 59  52 54 57  52 55 57  58 60 61  54 57 58  57 59 61  57 58 61  17 18 29  28 29 38  16 17 28  17 28 29  43 45 51  34 37 43  37 38 45  37 43 45  10 15 23  15 16 27  23 27 34  15 23 27  28 37 38  27 34 37  16 27 28  27 28 37  11 12 24  12 13 25  24 25 35  12 24 25  10 14 23  23 26 34  13 14 26  14 23 26  43 44 51  35 36 44  34 36 43  36 43 44  13 25 26  26 34 36  25 35 36  25 26 36  </DataArray>
<DataArray  type="UInt32"  Name="offsets"  format="ascii">3 6 9 12 15 18 21 24 27 30 33 36 39 42 45 48 51 54 57 60 63 66 69 72 75 78 81 84 87 90 93 96 99 102 105 108 111 114 117 120 123 126 129 132 135 138 141 144 147 150 153 156 159 162 165 168 171 174 177 180 183 186 189 192 195 198 201 204 207 210 213 216 219 222 225 228 231 234 237 240 243 246 249 252 255 258 261 264 267 270 273 276 279 282 285 288 </DataArray>
<DataArray  type="UInt8"  Name="types"  format="ascii">5 5 5 5 5 5 5 5 5 5 5 5 5 5 5 5 5 5 5 5 5 5 5 5 5 5 5 5 5 5 5 5 5 5 5 5 5 5 5 5 5 5 5 5 5 5 5 5 5 5 5 5 5 5 5 5 5 5 5 5 5 5 5 5 5 5 5 5 5 5 5 5 5 5 5 5 5 5 5 5 5 5 5 5 5 5 5 5 5 5 5 5 5 5 5 5 </DataArray>
</Cells>
<CellData  Scalars="f_930"> 
<DataArray  type="Float64"  Name="f_930"  format="ascii">2.4852744875063792e-02   1.4838928130762381e+00   1.4838928130762381e+00   1.4838928130762381e+00   1.1073373270048288e+00   1.8442162783896927e+00   1.5335332971256683e+00   1.3036110590386001e+00   1.1073373270042564e+00   1.5335332971256683e+00   1.8442162783898652e+00   1.3036110590379371e+00   1.9802752346907011e+00   1.8442162783898652e+00   1.9802752346907011e+00   1.9802752346907011e+00   3.4295738685282234e-01   1.8762346248118369e+00   1.8762346248118369e+00   3.4295738685282234e-01   1.1479383662335816e+00   1.8140997238379859e+00   7.6272104368933491e-01   7.6272104368933491e-01   1.1479383662341354e+00   7.6272104369004057e-01   1.8140997238377741e+00   7.6272104369004057e-01   1.9369575904731191e+00   1.8140997238379859e+00   1.9369575904731191e+00   1.9369575904731191e+00   1.1479383662341354e+00   1.2214420479752459e+00   2.5307227626839079e-01   2.4782635315438084e-01   2.4852744875064572e-02   7.2490118085849997e-01   1.4816571569705435e+00   1.4816571569705435e+00   3.4295738685282234e-01   1.8418682009701879e+00   1.9979569135660606e+00   1.9979569135660606e+00   1.2214420479752459e+00   1.7425725820386275e+00   1.8418682009701879e+00   1.7425725820386275e+00   0.0000000000000000e+00   2.4782635311941495e-01   1.2214420602944676e+00   2.4782635311941495e-01   4.8939763875527960e-04   1.9979569135660893e+00   1.8418682009702292e+00   1.9979569135660893e+00   2.4852744875189264e-02   1.4816570960661699e+00   7.2490118085408151e-01   1.4816570960661699e+00   1.8418682009702292e+00   1.7425725820408575e+00   1.2214420602944676e+00   1.7425725820408575e+00   1.1479383662335816e+00   2.5307227626811590e-01   1.2214420479759691e+00   2.4782635315465595e-01   3.4295738685282234e-01   1.9979569135660606e+00   1.8418682009702303e+00   1.9979569135660606e+00   2.4852744875188636e-02   1.4816571569728385e+00   7.2490118085408173e-01   1.4816571569728385e+00   1.8418682009702303e+00   1.7425725820383491e+00   1.2214420479759691e+00   1.7425725820383491e+00   0.0000000000000000e+00   1.2214420479759691e+00   2.4782635315465595e-01   2.4782635315465595e-01   2.4852744875188636e-02   7.2490118085408173e-01   1.4816571569728385e+00   1.4816571569728385e+00   4.8939763876171250e-04   1.8418682009702303e+00   1.9979569135660606e+00   1.9979569135660606e+00   1.2214420479759691e+00   1.7425725820383491e+00   1.8418682009702303e+00   1.7425725820383491e+00   </DataArray> 
</CellData> 
</Piece>
</UnstructuredGrid>
</VTKFile>